  -1.42500000000000         0.000000000000000E+000
  -1.23500000000000         1.964317524596720E-020
  -1.04500000000000         6.252750980478542E-019
 -0.855000000000000         5.227088548812462E-018
 -0.665000000000000         2.868300507943063E-017
 -0.475000000000000         1.264134843164259E-016
 -0.285000000000000         4.638657734894339E-016
 -9.499999999999975E-002    1.455175617859332E-015
  9.500000000000020E-002    4.004640030999564E-015
  0.285000000000000         9.771186904172214E-015
  0.475000000000000         2.161729218745536E-014
  0.665000000000000         4.350306344425233E-014
  0.855000000000000         8.042065558645137E-014
   1.04500000000000         1.391809573276957E-013
   1.23500000000000         2.264493414258879E-013
   1.42500000000000         3.492313078665006E-013
   1.61500000000000         5.136424909825271E-013
   1.80500000000000         7.266490525161054E-013
   1.99500000000000         9.943226448441330E-013
   2.18500000000000         1.322220606266842E-012
   2.37500000000000         1.715705645411723E-012
   2.56500000000000         2.179208751372777E-012
   2.75500000000000         2.716098964335637E-012
   2.94500000000000         3.328435078314669E-012
   3.13500000000000         4.016503900960865E-012
   3.32500000000000         4.779648058576298E-012
   3.51500000000000         5.617870066296558E-012
   3.70500000000000         6.528617876747608E-012
   3.89500000000000         7.511304962673453E-012
   4.08500000000000         8.564533673792576E-012
   4.27500000000000         9.686658981045718E-012
   4.46500000000000         1.087591988831604E-011
   4.65500000000000         1.212975664356154E-011
   4.84500000000000         1.344570796000948E-011
   5.03500000000000         1.482194083954176E-011
   5.22500000000000         1.625752310621462E-011
   5.41500000000000         1.775246310321601E-011
   5.60500000000000         1.930742332470949E-011
   5.79500000000000         2.092359029593627E-011
   5.98500000000000         2.260281406373003E-011
   6.17500000000000         2.434780755784006E-011
   6.36500000000000         2.616247306243553E-011
   6.55500000000000         2.805252274126768E-011
   6.74500000000000         3.002168861355901E-011
   6.93500000000000         3.207434159969750E-011
   7.12500000000000         3.421546645125298E-011
   7.31500000000000         3.644827620145994E-011
   7.50500000000000         3.877484702070643E-011
   7.69500000000000         4.119569814122105E-011
   7.88500000000000         4.370975371568796E-011
   8.07500000000000         4.631414595971907E-011
   8.26500000000000         4.900474299500507E-011
   8.45500000000000         5.177669860626926E-011
   8.64500000000000         5.462366984948355E-011
   8.83500000000000         5.753831079223757E-011
   9.02500000000000         6.051271261696199E-011
   9.21500000000000         6.353706391989541E-011
   9.40500000000000         6.660249363867243E-011
   9.59500000000000         6.969948648706592E-011
   9.78500000000000         7.282086661977555E-011
   9.97500000000000         7.595911676081711E-011
   10.1650000000000         7.910901581555334E-011
   10.3550000000000         8.226733916534323E-011
   10.5450000000000         8.543319847922635E-011
   10.7350000000000         8.860753410429290E-011
   10.9250000000000         9.179025453513552E-011
   11.1150000000000         9.498199179604128E-011
   11.3050000000000         9.818491022812074E-011
   11.4950000000000         1.014049194050456E-010
   11.6850000000000         1.046496208451888E-010
   11.8750000000000         1.079261444652971E-010
   12.0650000000000         1.112404899292343E-010
   12.2550000000000         1.145972544810323E-010
   12.4450000000000         1.179999190524954E-010
   12.6350000000000         1.214519083815040E-010
   12.8250000000000         1.249531907785937E-010
   13.0150000000000         1.285050006674733E-010
   13.2050000000000         1.321071447778873E-010
   13.3950000000000         1.357587336126565E-010
   13.5850000000000         1.394586145503246E-010
   13.7750000000000         1.432058449569703E-010
   13.9650000000000         1.469996471921794E-010
   14.1550000000000         1.508403515677269E-010
   14.3450000000000         1.547275350312975E-010
   14.5350000000000         1.586659733554771E-010
   14.7250000000000         1.626553558230961E-010
   14.9150000000000         1.667005273184192E-010
   15.1050000000000         1.708108740389126E-010
   15.2950000000000         1.749933371578621E-010
   15.4850000000000         1.792550640965469E-010
   15.6750000000000         1.836036035630907E-010
   15.8650000000000         1.880434036366760E-010
   16.0550000000000         1.925784610031145E-010
   16.2450000000000         1.972112245317481E-010
   16.4350000000000         2.019420271969603E-010
   16.6250000000000         2.067697862711651E-010
   16.8150000000000         2.116911760108853E-010
   17.0050000000000         2.167011402830897E-010
   17.1950000000000         2.218009624074337E-010
   17.3850000000000         2.269799212057162E-010
   17.5750000000000         2.322384449245389E-010
   17.7650000000000         2.375664447976966E-010
   17.9550000000000         2.429622815218342E-010
   18.1450000000000         2.484228843740804E-010
   18.3350000000000         2.539447329758274E-010
   18.5250000000000         2.595246266348794E-010
   18.7150000000000         2.651587511384175E-010
   18.9050000000000         2.708415305820335E-010
   19.0950000000000         2.765694315871456E-010
   19.2850000000000         2.823408464009009E-010
   19.4750000000000         2.881545539683121E-010
   19.6650000000000         2.940092075735173E-010
   19.8550000000000         2.999029908042339E-010
   20.0450000000000         3.058337201076037E-010
   20.2350000000000         3.117982835675513E-010
   20.4250000000000         3.177926022117641E-010
   20.6150000000000         3.238118865910266E-010
   20.8050000000000         3.298507249114243E-010
   20.9950000000000         3.359032415678409E-010
   21.1850000000000         3.419631218680129E-010
   21.3750000000000         3.480302148621372E-010
   21.5650000000000         3.540924851071780E-010
   21.7550000000000         3.601510041519817E-010
   21.9450000000000         3.662028458805048E-010
   22.1350000000000         3.722465716422509E-010
   22.3250000000000         3.782839585046648E-010
   22.5150000000000         3.843201916368407E-010
   22.7050000000000         3.903621002873006E-010
   22.8950000000000         3.964197283710850E-010
   23.0850000000000         4.025039165847135E-010
   23.2750000000000         4.086256750408267E-010
   23.4650000000000         4.147980210466280E-010
   23.6550000000000         4.210303063124097E-010
   23.8450000000000         4.273331486432097E-010
   24.0350000000000         4.337155864364970E-010
   24.2250000000000         4.401844070547075E-010
   24.4150000000000         4.467451515232727E-010
   24.6050000000000         4.534012896256299E-010
   24.7950000000000         4.601543960334531E-010
   24.9850000000000         4.670037733667959E-010
   25.1750000000000         4.739466119587975E-010
   25.3650000000000         4.809796463665067E-010
   25.5550000000000         4.880973453662587E-010
   25.7450000000000         4.952938359246023E-010
   25.9350000000000         5.025631684186769E-010
   26.1250000000000         5.098997119535186E-010
   26.3150000000000         5.172983257425373E-010
   26.5050000000000         5.247568176346625E-010
   26.6950000000000         5.322727698238319E-010
   26.8850000000000         5.398455615355306E-010
   27.0750000000000         5.474755643391373E-010
   27.2650000000000         5.551651041890297E-010
   27.4550000000000         5.629176452191044E-010
   27.6450000000000         5.707364903065090E-010
   27.8350000000000         5.786247842674807E-010
   28.0250000000000         5.865820035426043E-010
   28.2150000000000         5.946128720558602E-010
   28.4050000000000         6.027170964797155E-010
   28.5950000000000         6.108943192613300E-010
   28.7850000000000         6.191421372458267E-010
   28.9750000000000         6.274560736257583E-010
   29.1650000000000         6.358299050650738E-010
   29.3550000000000         6.442557906538844E-010
   29.5450000000000         6.527224636716147E-010
   29.7350000000000         6.612203791394275E-010
   29.9250000000000         6.697379143600803E-010
   30.1150000000000         6.782638222802762E-010
   30.3050000000000         6.867860424643151E-010
   30.4950000000000         6.952967101523638E-010
   30.6850000000000         7.037883158858219E-010
   30.8750000000000         7.122563352864284E-010
   31.0650000000000         7.206975103360972E-010
   31.2550000000000         7.291117732972617E-010
   31.4450000000000         7.374996734770055E-010
   31.6350000000000         7.458632025203746E-010
   31.8250000000000         7.542069957467153E-010
   32.0150000000000         7.625361723707679E-010
   32.2050000000000         7.708570725370142E-010
   32.3950000000000         7.791767605628517E-010
   32.5850000000000         7.875029476498800E-010
   32.7750000000000         7.958437977018550E-010
   32.9650000000000         8.042059557057869E-010
   33.1550000000000         8.125975695097075E-010
   33.3450000000000         8.210185769721891E-010
   33.5350000000000         8.294755041257823E-010
   33.7250000000000         8.379758368758391E-010
   33.9150000000000         8.465264020571858E-010
   34.1050000000000         8.551326046639659E-010
   34.2950000000000         8.637978644613186E-010
   34.4850000000000         8.725255676600113E-010
   34.6750000000000         8.813175936615762E-010
   34.8650000000000         8.901760437047307E-010
   35.0550000000000         8.991024006511806E-010
   35.2450000000000         9.080978386010685E-010
   35.4350000000000         9.171625339184130E-010
   35.6250000000000         9.262964041957170E-010
   35.8150000000000         9.354981138962961E-010
   36.0050000000000         9.447652814769007E-010
   36.1950000000000         9.540951784996262E-010
   36.3850000000000         9.634841790693183E-010
   36.5750000000000         9.729322442449066E-010
   36.7650000000000         9.824325349956229E-010
   36.9550000000000         9.919859126747503E-010
   37.1450000000000         1.001588005049417E-009
   37.3350000000000         1.011236693345299E-009
   37.5250000000000         1.020930714196622E-009
   37.7150000000000         1.030669345876495E-009
   37.9050000000000         1.040452178571542E-009
   38.0950000000000         1.050279089792220E-009
   38.2850000000000         1.060150153296248E-009
   38.4750000000000         1.070065368182066E-009
   38.6650000000000         1.080024364800537E-009
   38.8550000000000         1.090026230656556E-009
   39.0450000000000         1.100071636109656E-009
   39.2350000000000         1.110159679388344E-009
   39.4250000000000         1.120289137492988E-009
   39.6150000000000         1.130455110915353E-009
   39.8050000000000         1.140655141402182E-009
   39.9950000000000         1.150883504102453E-009
   40.1850000000000         1.161134629943845E-009
   40.3750000000000         1.171400435572526E-009
   40.5650000000000         1.181681204605920E-009
   40.7550000000000         1.191972440845567E-009
   40.9450000000000         1.202264052721100E-009
   41.1350000000000         1.212546747512430E-009
   41.3250000000000         1.222814981368799E-009
   41.5150000000000         1.233064969939882E-009
   41.7050000000000         1.243295334931843E-009
   41.8950000000000         1.253506739247954E-009
   42.0850000000000         1.263700804523398E-009
   42.2750000000000         1.273881690352129E-009
   42.4650000000000         1.284054818356451E-009
   42.6550000000000         1.294226540667695E-009
   42.8450000000000         1.304403739367538E-009
   43.0350000000000         1.314594611489457E-009
   43.2250000000000         1.324807724411005E-009
   43.4150000000000         1.335050246686454E-009
   43.6050000000000         1.345330667527126E-009
   43.7950000000000         1.355650347925741E-009
   43.9850000000000         1.366015470822659E-009
   44.1750000000000         1.376429796869156E-009
   44.3650000000000         1.386897950119264E-009
   44.5550000000000         1.397423035804580E-009
   44.7450000000000         1.408005663020999E-009
   44.9350000000000         1.418644639948279E-009
   45.1250000000000         1.429336976457748E-009
   45.3150000000000         1.440079630383873E-009
   45.5050000000000         1.450868677978502E-009
   45.6950000000000         1.461700757369051E-009
   45.8850000000000         1.472573480285391E-009
   46.0750000000000         1.483484559891891E-009
   46.2650000000000         1.494433463398972E-009
   46.4550000000000         1.505420335632787E-009
   46.6450000000000         1.516445494679508E-009
   46.8350000000000         1.527511138997434E-009
   47.0250000000000         1.538619136061421E-009
   47.2150000000000         1.549771358123958E-009
   47.4050000000000         1.560969370886535E-009
   47.5950000000000         1.572213208811750E-009
   47.7850000000000         1.583500871630141E-009
   47.9750000000000         1.594830282895875E-009
   48.1650000000000         1.606197270806689E-009
   48.3550000000000         1.617597106809520E-009
   48.5450000000000         1.629025202219498E-009
   48.7350000000000         1.640477097291278E-009
   48.9250000000000         1.651947201921432E-009
   49.1150000000000         1.663433431141055E-009
   49.3050000000000         1.674933331440630E-009
   49.4950000000000         1.686444130821758E-009
   49.6850000000000         1.697965089545607E-009
   49.8750000000000         1.709497535484096E-009
   50.0650000000000         1.721044192665699E-009
   50.2550000000000         1.732609203006474E-009
   50.4450000000000         1.744197610560486E-009
   50.6350000000000         1.755815011187048E-009
   50.8250000000000         1.767465410669834E-009
   51.0150000000000         1.779153985248305E-009
   51.2050000000000         1.790880579901310E-009
   51.3950000000000         1.802645857059132E-009
   51.5850000000000         1.814447982249218E-009
   51.7750000000000         1.826281297445728E-009
   51.9650000000000         1.838137451406528E-009
   52.1550000000000         1.850005352705420E-009
   52.3450000000000         1.861872633291804E-009
   52.5350000000000         1.873726321036370E-009
   52.7250000000000         1.885553519849739E-009
   52.9150000000000         1.897342754227188E-009
   53.1050000000000         1.909085321492523E-009
   53.2950000000000         1.920774926736844E-009
   53.4850000000000         1.932408607772222E-009
   53.6750000000000         1.943985903443199E-009
   53.8650000000000         1.955511014112323E-009
   54.0550000000000         1.966991275220304E-009
   54.2450000000000         1.978436809669522E-009
   54.4350000000000         1.989860116217021E-009
   54.6250000000000         2.001275107962941E-009
   54.8150000000000         2.012696470155359E-009
   55.0050000000000         2.024138288858418E-009
   55.1950000000000         2.035613429188314E-009
   55.3850000000000         2.047131274492280E-009
   55.5750000000000         2.058701059349390E-009
   55.7650000000000         2.070327129899296E-009
   55.9550000000000         2.082012307387509E-009
   56.1450000000000         2.093756950835781E-009
   56.3350000000000         2.105558637304737E-009
   56.5250000000000         2.117412941228363E-009
   56.7150000000000         2.129313420265895E-009
   56.9050000000000         2.141252800598538E-009
   57.0950000000000         2.153223335940430E-009
   57.2850000000000         2.165217292166492E-009
   57.4750000000000         2.177228493937705E-009
   57.6650000000000         2.189251420254151E-009
   57.8550000000000         2.201281840014259E-009
   58.0450000000000         2.213316573167417E-009
   58.2350000000000         2.225354207065779E-009
   58.4250000000000         2.237393863545171E-009
   58.6150000000000         2.249435392296556E-009
   58.8050000000000         2.261479078227852E-009
   58.9950000000000         2.273525540002801E-009
   59.1850000000000         2.285575781222567E-009
   59.3750000000000         2.297630439332893E-009
   59.5650000000000         2.309690034730987E-009
   59.7550000000000         2.321754762246655E-009
   59.9450000000000         2.333824563613192E-009
   60.1350000000000         2.345898714417242E-009
   60.3250000000000         2.357975247070452E-009
   60.5150000000000         2.370050549136226E-009
   60.7050000000000         2.382121234918124E-009
   60.8950000000000         2.394184181884804E-009
   61.0850000000000         2.406235572372056E-009
   61.2750000000000         2.418272047220076E-009
   61.4650000000000         2.430290228009247E-009
   61.6550000000000         2.442286084001419E-009
   61.8450000000000         2.454255586099797E-009
   62.0350000000000         2.466193912794517E-009
   62.2250000000000         2.478096163387270E-009
   62.4150000000000         2.489957550292372E-009
   62.6050000000000         2.501773268115054E-009
   62.7950000000000         2.513537819513933E-009
   62.9850000000000         2.525251416843272E-009
   63.1750000000000         2.536911172673411E-009
   63.3650000000000         2.548513507705468E-009
   63.5550000000000         2.560055605136738E-009
   63.7450000000000         2.571535775011729E-009
   63.9350000000000         2.582953505755059E-009
   64.1250000000000         2.594309141698240E-009
   64.3150000000000         2.605604248381965E-009
   64.5050000000000         2.616841153386702E-009
   64.6950000000000         2.628023174591312E-009
   64.8850000000000         2.639155409523733E-009
   65.0750000000000         2.650242871867282E-009
   65.2650000000000         2.661294669537639E-009
   65.4550000000000         2.672319993166360E-009
   65.6450000000000         2.683328175849730E-009
   65.8350000000000         2.694329497193105E-009
   66.0250000000000         2.705334370142203E-009
   66.2150000000000         2.716352954953508E-009
   66.4050000000000         2.727392044612802E-009
   66.5950000000000         2.738456359105339E-009
   66.7850000000000         2.749544925234284E-009
   66.9750000000000         2.760662110372066E-009
   67.1650000000000         2.771808945971485E-009
   67.3550000000000         2.782986257137929E-009
   67.5450000000000         2.794194010619477E-009
   67.7350000000000         2.805429879235749E-009
   67.9250000000000         2.816689168525761E-009
   68.1150000000000         2.827966498120753E-009
   68.3050000000000         2.839256414687566E-009
   68.4950000000000         2.850553077741407E-009
   68.6850000000000         2.861849517750003E-009
   68.8750000000000         2.873139904603134E-009
   69.0650000000000         2.884419598451801E-009
   69.2550000000000         2.895685218291275E-009
   69.4450000000000         2.906934650177396E-009
   69.6350000000000         2.918166951645167E-009
   69.8250000000000         2.929381970417503E-009
   70.0150000000000         2.940578930705199E-009
   70.2050000000000         2.951758172485660E-009
   70.3950000000000         2.962919827479664E-009
   70.5850000000000         2.974064464399874E-009
   70.7750000000000         2.985191982993594E-009
   70.9650000000000         2.996301918790996E-009
   71.1550000000000         3.007392787035779E-009
   71.3450000000000         3.018461223673558E-009
   71.5350000000000         3.029504131865831E-009
   71.7250000000000         3.040515398431984E-009
   71.9150000000000         3.051492229514839E-009
   72.1050000000000         3.062425640294635E-009
   72.2950000000000         3.073314629502691E-009
   72.4850000000000         3.084155035602410E-009
   72.6750000000000         3.094942945453238E-009
   72.8650000000000         3.105675708439935E-009
   73.0550000000000         3.116344680303815E-009
   73.2450000000000         3.126943381764596E-009
   73.4350000000000         3.137465888632971E-009
   73.6250000000000         3.147907003559295E-009
   73.8150000000000         3.158263946685153E-009
   74.0050000000000         3.168534666352792E-009
   74.1950000000000         3.178718018346391E-009
   74.3850000000000         3.188814439715088E-009
   74.5750000000000         3.198825565293072E-009
   74.7650000000000         3.208754205499882E-009
   74.9550000000000         3.218604487449603E-009
   75.1450000000000         3.228381633211870E-009
   75.3350000000000         3.238091708178723E-009
   75.5250000000000         3.247737565061879E-009
   75.7150000000000         3.257332133080112E-009
   75.9050000000000         3.266875121239860E-009
   76.0950000000000         3.276372631167359E-009
   76.2850000000000         3.285838023220783E-009
   76.4750000000000         3.295281272177530E-009
   76.6650000000000         3.304709414782702E-009
   76.8550000000000         3.314128607274986E-009
   77.0450000000000         3.323541130254766E-009
   77.2350000000000         3.332950308645167E-009
   77.4250000000000         3.342359696620149E-009
   77.6150000000000         3.351771099865539E-009
   77.8050000000000         3.361183859996171E-009
   77.9950000000000         3.370595803034477E-009
   78.1850000000000         3.380003341722842E-009
   78.3750000000000         3.389402062445087E-009
   78.5650000000000         3.398786284406858E-009
   78.7550000000000         3.408150381203200E-009
   78.9450000000000         3.417488658974825E-009
   79.1350000000000         3.426799716465919E-009
   79.3250000000000         3.436076644123864E-009
   79.5150000000000         3.445317312734656E-009
   79.7050000000000         3.454516825936562E-009
   79.8950000000000         3.463669610030479E-009
   80.0850000000000         3.472772802958983E-009
   80.2750000000000         3.481824291600348E-009
   80.4650000000000         3.490822709773028E-009
   80.6550000000000         3.499766041489155E-009
   80.8450000000000         3.508653446758005E-009
   81.0350000000000         3.517483222502623E-009
   81.2250000000000         3.526253474482132E-009
   81.4150000000000         3.534960838886127E-009
   81.6050000000000         3.543604130838593E-009
   81.7950000000000         3.552180989253326E-009
   81.9850000000000         3.560689326154802E-009
   82.1750000000000         3.569126582666031E-009
   82.3650000000000         3.577492340502733E-009
   82.5550000000000         3.585784185697345E-009
   82.7450000000000         3.594000236097394E-009
   82.9350000000000         3.602138293396199E-009
   83.1250000000000         3.610196316226185E-009
   83.3150000000000         3.618172872187479E-009
   83.5050000000000         3.626067744303185E-009
   83.6950000000000         3.633880431824497E-009
   83.8850000000000         3.641611708260439E-009
   84.0750000000000         3.649263886394396E-009
   84.2650000000000         3.656836930595389E-009
   84.4550000000000         3.664332715686081E-009
   84.6450000000000         3.671752226972942E-009
   84.8350000000000         3.679096534704425E-009
   85.0250000000000         3.686366921909929E-009
   85.2150000000000         3.693566566950857E-009
   85.4050000000000         3.700699038079644E-009
   85.5950000000000         3.707767551833033E-009
   85.7850000000000         3.714774464161355E-009
   85.9750000000000         3.721721997765954E-009
   86.1650000000000         3.728612246385405E-009
   86.3550000000000         3.735447279674127E-009
   86.5450000000000         3.742229219275500E-009
   86.7350000000000         3.748960807114162E-009
   86.9250000000000         3.755645190497612E-009
   87.1150000000000         3.762285787358100E-009
   87.3050000000000         3.768886181891858E-009
   87.4950000000000         3.775450855806013E-009
   87.6850000000000         3.781984761379728E-009
   87.8750000000000         3.788492813725519E-009
   88.0650000000000         3.794978952603147E-009
   88.2550000000000         3.801445882707382E-009
   88.4450000000000         3.807894113624170E-009
   88.6350000000000         3.814324506226788E-009
   88.8250000000000         3.820736902611496E-009
   89.0150000000000         3.827128099187008E-009
   89.2050000000000         3.833492054203796E-009
   89.3950000000000         3.839822146367439E-009
   89.5850000000000         3.846109455704221E-009
   89.7750000000000         3.852345804609985E-009
   89.9650000000000         3.858522821693886E-009
   90.1550000000000         3.864631913805093E-009
   90.3450000000000         3.870665246025208E-009
   90.5350000000000         3.876615977356049E-009
   90.7250000000000         3.882478442468770E-009
   90.9150000000000         3.888248725025272E-009
   91.1050000000000         3.893923907761093E-009
   91.2950000000000         3.899502431973683E-009
   91.4850000000000         3.904983890452385E-009
   91.6750000000000         3.910369049067031E-009
   91.8650000000000         3.915659564013261E-009
   92.0550000000000         3.920857907056319E-009
   92.2450000000000         3.925966618057257E-009
   92.4350000000000         3.930987471150940E-009
   92.6250000000000         3.935920406984529E-009
   92.8150000000000         3.940765035036611E-009
   93.0050000000000         3.945520140874694E-009
   93.1950000000000         3.950182335237825E-009
   93.3850000000000         3.954747008071138E-009
   93.5750000000000         3.959207081276132E-009
   93.7650000000000         3.963554091423430E-009
   93.9550000000000         3.967779363412267E-009
   94.1450000000000         3.971874473360381E-009
   94.3350000000000         3.975831652146812E-009
   94.5250000000000         3.979644208784990E-009
   94.7150000000000         3.983307383429832E-009
   94.9050000000000         3.986817447546185E-009
   95.0950000000000         3.990172826597538E-009
   95.2850000000000         3.993373990648544E-009
   95.4750000000000         3.996423034635252E-009
   95.6650000000000         3.999319438550330E-009
   95.8550000000000         4.002073181646689E-009
   96.0450000000000         4.004683363910435E-009
   96.2350000000000         4.007154167557158E-009
   96.4250000000000         4.009497326263361E-009
   96.6150000000000         4.011724081079380E-009
   96.8050000000000         4.013845048140882E-009
   96.9950000000000         4.015869205365842E-009
   97.1850000000000         4.017804143549184E-009
   97.3750000000000         4.019656476152789E-009
   97.5650000000000         4.021430293235869E-009
   97.7550000000000         4.023129319077571E-009
   97.9450000000000         4.024754503179735E-009
   98.1350000000000         4.026305582492953E-009
   98.3250000000000         4.027780801196484E-009
   98.5150000000000         4.029177746233723E-009
   98.7050000000000         4.030493405113609E-009
   98.8950000000000         4.031723972652620E-009
   99.0850000000000         4.032865009232020E-009
   99.2750000000000         4.033911531586999E-009
   99.4650000000000         4.034857044853372E-009
   99.6550000000000         4.035695004021767E-009
   99.8450000000000         4.036417764581717E-009
   100.035000000000         4.037018849296810E-009
   100.225000000000         4.037492243236653E-009
   100.415000000000         4.037831253374822E-009
   100.605000000000         4.038031383341573E-009
   100.795000000000         4.038089426719734E-009
   100.985000000000         4.038003666470712E-009
   101.175000000000         4.037772825582138E-009
   101.365000000000         4.037396593575079E-009
   101.555000000000         4.036873443075997E-009
   101.745000000000         4.036203208643601E-009
   101.935000000000         4.035384965358899E-009
   102.125000000000         4.034418222340705E-009
   102.315000000000         4.033302686538864E-009
   102.505000000000         4.032039028383417E-009
   102.695000000000         4.030627495606889E-009
   102.885000000000         4.029068966323355E-009
   103.075000000000         4.027364460046596E-009
   103.265000000000         4.025515234372553E-009
   103.455000000000         4.023521236619955E-009
   103.645000000000         4.021381758454420E-009
   103.835000000000         4.019094178946423E-009
   104.025000000000         4.016656062307897E-009
   104.215000000000         4.014063024435875E-009
   104.405000000000         4.011313752000392E-009
   104.595000000000         4.008405058319770E-009
   104.785000000000         4.005332025148940E-009
   104.975000000000         4.002089600617470E-009
   105.165000000000         3.998673384364838E-009
   105.355000000000         3.995080256544868E-009
   105.545000000000         3.991307766234731E-009
   105.735000000000         3.987354224345381E-009
   105.925000000000         3.983218890659170E-009
   106.115000000000         3.978901919596727E-009
   106.305000000000         3.974403924206262E-009
   106.495000000000         3.969728376473178E-009
   106.685000000000         3.964875425814750E-009
   106.875000000000         3.959852785421690E-009
   107.065000000000         3.954661510749325E-009
   107.255000000000         3.949308581515931E-009
   107.445000000000         3.943800421399672E-009
   107.635000000000         3.938143361432029E-009
   107.825000000000         3.932343296386650E-009
   108.015000000000         3.926405179489580E-009
   108.205000000000         3.920333199154653E-009
   108.395000000000         3.914132194542527E-009
   108.585000000000         3.907809569996348E-009
   108.775000000000         3.901372043375421E-009
   108.965000000000         3.894822631587269E-009
   109.155000000000         3.888163769394667E-009
   109.345000000000         3.881395479502059E-009
   109.535000000000         3.874516283365861E-009
   109.725000000000         3.867525904436741E-009
   109.915000000000         3.860422291106352E-009
   110.105000000000         3.853202076622127E-009