  -1.42500000000000         0.000000000000000E+000
  -1.23500000000000        -2.583954294225393E-020
  -1.04500000000000        -1.884489185151888E-017
 -0.855000000000000        -1.639240018598537E-016
 -0.665000000000000        -8.758942721883509E-016
 -0.475000000000000        -3.747749911576457E-015
 -0.285000000000000        -1.338196895601148E-014
 -9.499999999999975E-002   -4.108680540785835E-014
  9.500000000000020E-002   -1.100914559283496E-013
  0.285000000000000        -2.626603484159316E-013
  0.475000000000000        -5.602102973903353E-013
  0.665000000000000        -1.085140233774400E-012
  0.855000000000000        -1.926607943491523E-012
   1.04500000000000        -3.179682883495250E-012
   1.23500000000000        -4.961874296187219E-012
   1.42500000000000        -7.304428990985643E-012
   1.61500000000000        -1.033468262883905E-011
   1.80500000000000        -1.407401685474446E-011
   1.99500000000000        -1.851783101346351E-011
   2.18500000000000        -2.366114744086256E-011
   2.37500000000000        -2.947965546623404E-011
   2.56500000000000        -3.593220751525654E-011
   2.75500000000000        -4.296800272799261E-011
   2.94500000000000        -5.049110148563867E-011
   3.13500000000000        -5.843015200249426E-011
   3.32500000000000        -6.669134110969968E-011
   3.51500000000000        -7.532538020144683E-011
   3.70500000000000        -8.420398310724863E-011
   3.89500000000000        -9.336029804758511E-011
   4.08500000000000        -1.027610500575502E-010
   4.27500000000000        -1.123901284296819E-010
   4.46500000000000        -1.222488987675291E-010
   4.65500000000000        -1.323717664353405E-010
   4.84500000000000        -1.428206284665711E-010
   5.03500000000000        -1.536567568259207E-010
   5.22500000000000        -1.649020534749089E-010
   5.41500000000000        -1.765360398614899E-010
   5.60500000000000        -1.885239610330927E-010
   5.79500000000000        -2.008332631745782E-010
   5.98500000000000        -2.134880407366126E-010
   6.17500000000000        -2.264313910043884E-010
   6.36500000000000        -2.395897205369969E-010
   6.55500000000000        -2.529400323995683E-010
   6.74500000000000        -2.665135022891390E-010
   6.93500000000000        -2.803666017605834E-010
   7.12500000000000        -2.945751669460217E-010
   7.31500000000000        -3.092008420573386E-010
   7.50500000000000        -3.242765819895755E-010
   7.69500000000000        -3.398855884890425E-010
   7.88500000000000        -3.561187757451106E-010
   8.07500000000000        -3.731769119966003E-010
   8.26500000000000        -3.911437765190734E-010
   8.45500000000000        -4.100685026981867E-010
   8.64500000000000        -4.299334802697654E-010
   8.83500000000000        -4.507645196550507E-010
   9.02500000000000        -4.725430882539322E-010
   9.21500000000000        -4.951907777731059E-010
   9.40500000000000        -5.185305118648693E-010
   9.59500000000000        -5.424471369338036E-010
   9.78500000000000        -5.668138684479510E-010
   9.97500000000000        -5.915036516602910E-010
   10.1650000000000        -6.163697253776423E-010
   10.3550000000000        -6.413261337235850E-010
   10.5450000000000        -6.662692100064055E-010
   10.7350000000000        -6.911066046363901E-010
   10.9250000000000        -7.158345280498390E-010
   11.1150000000000        -7.404473840383767E-010
   11.3050000000000        -7.649646232290878E-010
   11.4950000000000        -7.894573700059637E-010
   11.6850000000000        -8.140308346715590E-010
   11.8750000000000        -8.387761674884389E-010
   12.0650000000000        -8.637611981896964E-010
   12.2550000000000        -8.890388550934943E-010
   12.4450000000000        -9.146464960251792E-010
   12.6350000000000        -9.406025935705001E-010
   12.8250000000000        -9.668707966191158E-010
   13.0150000000000        -9.934840179748620E-010
   13.2050000000000        -1.020404805606122E-009
   13.3950000000000        -1.047592820960008E-009
   13.5850000000000        -1.075058949699709E-009
   13.7750000000000        -1.102779606039653E-009
   13.9650000000000        -1.130710334367094E-009
   14.1550000000000        -1.158815213722972E-009
   14.3450000000000        -1.187040658438943E-009
   14.5350000000000        -1.215381925386278E-009
   14.7250000000000        -1.243849539687164E-009
   14.9150000000000        -1.272525340635110E-009
   15.1050000000000        -1.301451218886957E-009
   15.2950000000000        -1.330648311566037E-009
   15.4850000000000        -1.360218311203786E-009
   15.6750000000000        -1.390213444380374E-009
   15.8650000000000        -1.420647888567677E-009
   16.0550000000000        -1.451545582655846E-009
   16.2450000000000        -1.482962385847431E-009
   16.4350000000000        -1.514880187899631E-009
   16.6250000000000        -1.547296388154475E-009
   16.8150000000000        -1.580254294825798E-009
   17.0050000000000        -1.613775413706279E-009
   17.1950000000000        -1.647865015772705E-009
   17.3850000000000        -1.682522422592156E-009
   17.5750000000000        -1.717756895377482E-009
   17.7650000000000        -1.753547613360235E-009
   17.9550000000000        -1.789896946663885E-009
   18.1450000000000        -1.826795602620799E-009
   18.3350000000000        -1.864233541526614E-009
   18.5250000000000        -1.902206454045691E-009
   18.7150000000000        -1.940716653728513E-009
   18.9050000000000        -1.979801486910173E-009
   19.0950000000000        -2.019511253732360E-009
   19.2850000000000        -2.059891133164790E-009
   19.4750000000000        -2.100966749284038E-009
   19.6650000000000        -2.142744756795324E-009
   19.8550000000000        -2.185210884011175E-009
   20.0450000000000        -2.228348507003214E-009
   20.2350000000000        -2.272128134838868E-009
   20.4250000000000        -2.316511875238199E-009
   20.6150000000000        -2.361455421670953E-009
   20.8050000000000        -2.406897703123629E-009
   20.9950000000000        -2.452805530396833E-009
   21.1850000000000        -2.499153318959122E-009
   21.3750000000000        -2.545896478485852E-009
   21.5650000000000        -2.593072823743895E-009
   21.7550000000000        -2.640659350160184E-009
   21.9450000000000        -2.688702384842602E-009
   22.1350000000000        -2.737281497876258E-009
   22.3250000000000        -2.786399198692387E-009
   22.5150000000000        -2.836129746367511E-009
   22.7050000000000        -2.886580676072915E-009
   22.8950000000000        -2.937899059857314E-009
   23.0850000000000        -2.990173966626623E-009
   23.2750000000000        -3.043422016254542E-009
   23.4650000000000        -3.097758562289513E-009
   23.6550000000000        -3.153243847500249E-009
   23.8450000000000        -3.209920339582719E-009
   24.0350000000000        -3.267794667760548E-009
   24.2250000000000        -3.326858375336887E-009
   24.4150000000000        -3.387048120360657E-009
   24.6050000000000        -3.448287533732795E-009
   24.7950000000000        -3.510513930668811E-009
   24.9850000000000        -3.573658685285617E-009
   25.1750000000000        -3.637580177104210E-009
   25.3650000000000        -3.702272968110408E-009
   25.5550000000000        -3.767565424158185E-009
   25.7450000000000        -3.833389793665454E-009
   25.9350000000000        -3.899638732030074E-009
   26.1250000000000        -3.966296029669226E-009
   26.3150000000000        -4.033214415082275E-009
   26.5050000000000        -4.100366693635170E-009
   26.6950000000000        -4.167792661573956E-009
   26.8850000000000        -4.235541003253754E-009
   27.0750000000000        -4.303683882819982E-009
   27.2650000000000        -4.372275963427060E-009
   27.4550000000000        -4.441311702594278E-009
   27.6450000000000        -4.510850452770228E-009
   27.8350000000000        -4.580938445900136E-009
   28.0250000000000        -4.651601308426665E-009
   28.2150000000000        -4.722852406321605E-009
   28.4050000000000        -4.794649680319673E-009
   28.5950000000000        -4.866998194783199E-009
   28.7850000000000        -4.939808680092130E-009
   28.9750000000000        -5.012922314379838E-009
   29.1650000000000        -5.086267417423540E-009
   29.3550000000000        -5.159715117751943E-009
   29.5450000000000        -5.233072570171040E-009
   29.7350000000000        -5.306156161795043E-009
   29.9250000000000        -5.378790536727339E-009
   30.1150000000000        -5.450811632173212E-009
   30.3050000000000        -5.522080401287882E-009
   30.4950000000000        -5.592512894019948E-009
   30.6850000000000        -5.662026070470887E-009
   30.8750000000000        -5.730615407810643E-009
   31.0650000000000        -5.798368516849679E-009
   31.2550000000000        -5.865336766205057E-009
   31.4450000000000        -5.931661758657316E-009
   31.6350000000000        -5.997529013358050E-009
   31.8250000000000        -6.063106761627896E-009
   32.0150000000000        -6.128609329173769E-009
   32.2050000000000        -6.194218355595208E-009
   32.3950000000000        -6.260113675655470E-009
   32.5850000000000        -6.326437937085586E-009
   32.7750000000000        -6.393195753046525E-009
   32.9650000000000        -6.460492229542512E-009
   33.1550000000000        -6.528348881439006E-009
   33.3450000000000        -6.596816292577550E-009
   33.5350000000000        -6.665824744952355E-009
   33.7250000000000        -6.735239467568372E-009
   33.9150000000000        -6.804953146891600E-009
   34.1050000000000        -6.874958738875274E-009
   34.2950000000000        -6.945189237315790E-009
   34.4850000000000        -7.015573631374599E-009
   34.6750000000000        -7.086015819415529E-009
   34.8650000000000        -7.156573161190795E-009
   35.0550000000000        -7.227274277205599E-009
   35.2450000000000        -7.298154370414316E-009
   35.4350000000000        -7.369241017243889E-009
   35.6250000000000        -7.440734230993913E-009
   35.8150000000000        -7.512737357525811E-009
   36.0050000000000        -7.585346145614631E-009
   36.1950000000000        -7.658556803732221E-009
   36.3850000000000        -7.732424726555210E-009
   36.5750000000000        -7.806981377933252E-009
   36.7650000000000        -7.882251258828438E-009
   36.9550000000000        -7.958231627397307E-009
   37.1450000000000        -8.034839683707911E-009
   37.3350000000000        -8.112032952197038E-009
   37.5250000000000        -8.189767494954644E-009
   37.7150000000000        -8.267997850055795E-009
   37.9050000000000        -8.346694797031663E-009
   38.0950000000000        -8.425861461057663E-009
   38.2850000000000        -8.505546201523496E-009
   38.4750000000000        -8.585756935062578E-009
   38.6650000000000        -8.666586514267269E-009
   38.8550000000000        -8.748160161894371E-009
   39.0450000000000        -8.830613095219583E-009
   39.2350000000000        -8.914094022698744E-009
   39.4250000000000        -8.998762521631659E-009
   39.6150000000000        -9.084768218075839E-009
   39.8050000000000        -9.172256345235156E-009
   39.9950000000000        -9.261362472455948E-009
   40.1850000000000        -9.352188980541434E-009
   40.3750000000000        -9.444719236011620E-009
   40.5650000000000        -9.538990326337820E-009
   40.7550000000000        -9.634973469682805E-009
   40.9450000000000        -9.732546914199622E-009
   41.1350000000000        -9.831715900786868E-009
   41.3250000000000        -9.932260069377207E-009
   41.5150000000000        -1.003407517211590E-008
   41.7050000000000        -1.013701491420111E-008
   41.8950000000000        -1.024087649408934E-008
   42.0850000000000        -1.034559258473156E-008
   42.2750000000000        -1.045092124221170E-008
   42.4650000000000        -1.055663750489745E-008
   42.6550000000000        -1.066257177444544E-008
   42.8450000000000        -1.076868285576671E-008
   43.0350000000000        -1.087488945274298E-008
   43.2250000000000        -1.098096606950363E-008
   43.4150000000000        -1.108693638972134E-008
   43.6050000000000        -1.119269402570727E-008
   43.7950000000000        -1.129819383672219E-008
   43.9850000000000        -1.140339740225133E-008
   44.1750000000000        -1.150832552109597E-008
   44.3650000000000        -1.161306010368858E-008
   44.5550000000000        -1.171772730341175E-008
   44.7450000000000        -1.182238286157350E-008
   44.9350000000000        -1.192719716398837E-008
   45.1250000000000        -1.203225716674809E-008
   45.3150000000000        -1.213772666479667E-008
   45.5050000000000        -1.224378111068194E-008
   45.6950000000000        -1.235057832833138E-008
   45.8850000000000        -1.245827270160829E-008
   46.0750000000000        -1.256699793774473E-008
   46.2650000000000        -1.267672886415565E-008
   46.4550000000000        -1.278748367022408E-008
   46.6450000000000        -1.289922424926500E-008
   46.8350000000000        -1.301190422612094E-008
   47.0250000000000        -1.312542465733587E-008
   47.2150000000000        -1.323953802228073E-008
   47.4050000000000        -1.335420558970837E-008
   47.5950000000000        -1.346928745206775E-008
   47.7850000000000        -1.358459100271588E-008
   47.9750000000000        -1.370000322929011E-008
   48.1650000000000        -1.381547249602681E-008
   48.3550000000000        -1.393077233127162E-008
   48.5450000000000        -1.404592945841737E-008
   48.7350000000000        -1.416083128876015E-008
   48.9250000000000        -1.427546179478630E-008
   49.1150000000000        -1.438978818179149E-008
   49.3050000000000        -1.450389645683904E-008
   49.4950000000000        -1.461781767911501E-008
   49.6850000000000        -1.473170331176392E-008
   49.8750000000000        -1.484579777311760E-008
   50.0650000000000        -1.496025107722778E-008
   50.2550000000000        -1.507541650187386E-008
   50.4450000000000        -1.519149799993728E-008
   50.6350000000000        -1.530850990659933E-008
   50.8250000000000        -1.542656941800044E-008
   51.0150000000000        -1.554585402827055E-008
   51.2050000000000        -1.566630516357363E-008
   51.3950000000000        -1.578788377468424E-008
   51.5850000000000        -1.591046154890075E-008
   51.7750000000000        -1.603385359250938E-008
   51.9650000000000        -1.615803363780753E-008
   52.1550000000000        -1.628276932675005E-008
   52.3450000000000        -1.640787429559829E-008
   52.5350000000000        -1.653323755857868E-008
   52.7250000000000        -1.665870577544422E-008
   52.9150000000000        -1.678418877215724E-008
   53.1050000000000        -1.690957832781270E-008
   53.2950000000000        -1.703487964008692E-008
   53.4850000000000        -1.716013859406036E-008
   53.6750000000000        -1.728542717060366E-008
   53.8650000000000        -1.741082347307822E-008
   54.0550000000000        -1.753638109626442E-008
   54.2450000000000        -1.766224261450564E-008
   54.4350000000000        -1.778854679410240E-008
   54.6250000000000        -1.791543994621042E-008
   54.8150000000000        -1.804306445139152E-008
   55.0050000000000        -1.817160170497336E-008
   55.1950000000000        -1.830100787238844E-008
   55.3850000000000        -1.843140824857122E-008
   55.5750000000000        -1.856283133346093E-008
   55.7650000000000        -1.869529548472293E-008
   55.9550000000000        -1.882875593277615E-008
   56.1450000000000        -1.896317305795443E-008
   56.3350000000000        -1.909843535027856E-008
   56.5250000000000        -1.923444343971142E-008
   56.7150000000000        -1.937117455874650E-008
   56.9050000000000        -1.950850652900856E-008
   57.0950000000000        -1.964630770709739E-008
   57.2850000000000        -1.978457425791080E-008
   57.4750000000000        -1.992316406139895E-008
   57.6650000000000        -2.006205140638437E-008
   57.8550000000000        -2.020123029332741E-008
   58.0450000000000        -2.034065860168186E-008
   58.2350000000000        -2.048039101407525E-008
   58.4250000000000        -2.062049004658517E-008
   58.6150000000000        -2.076104243428738E-008
   58.8050000000000        -2.090209018317426E-008
   58.9950000000000        -2.104365191749469E-008
   59.1850000000000        -2.118575950144657E-008
   59.3750000000000        -2.132840331282909E-008
   59.5650000000000        -2.147158793813720E-008
   59.7550000000000        -2.161530637987986E-008
   59.9450000000000        -2.175954068076720E-008
   60.1350000000000        -2.190426159110492E-008
   60.3250000000000        -2.204940956124724E-008
   60.5150000000000        -2.219497424904975E-008
   60.7050000000000        -2.234095425430131E-008
   60.8950000000000        -2.248721766884018E-008
   61.0850000000000        -2.263380414741912E-008
   61.2750000000000        -2.278051463633964E-008
   61.4650000000000        -2.292730298510522E-008
   61.6550000000000        -2.307404046389920E-008
   61.8450000000000        -2.322062431896038E-008
   62.0350000000000        -2.336698048474787E-008
   62.2250000000000        -2.351308588635699E-008
   62.4150000000000        -2.365886958813055E-008
   62.6050000000000        -2.380432033544742E-008
   62.7950000000000        -2.394937919593212E-008
   62.9850000000000        -2.409409290291794E-008
   63.1750000000000        -2.423848809531538E-008
   63.3650000000000        -2.438261974653908E-008
   63.5550000000000        -2.452656134482457E-008
   63.7450000000000        -2.467033800283271E-008
   63.9350000000000        -2.481396701807650E-008
   64.1250000000000        -2.495751139694219E-008
   64.3150000000000        -2.510105693171747E-008
   64.5050000000000        -2.524470011967877E-008
   64.6950000000000        -2.538852495574463E-008
   64.8850000000000        -2.553257747680646E-008
   65.0750000000000        -2.567693475881759E-008
   65.2650000000000        -2.582170089456006E-008
   65.4550000000000        -2.596692039593734E-008
   65.6450000000000        -2.611259246285736E-008
   65.8350000000000        -2.625873398758234E-008
   66.0250000000000        -2.640536054705709E-008
   66.2150000000000        -2.655251776175427E-008
   66.4050000000000        -2.670023541546716E-008
   66.5950000000000        -2.684849387339853E-008
   66.7850000000000        -2.699730582344109E-008
   66.9750000000000        -2.714664116993164E-008
   67.1650000000000        -2.729653466901786E-008
   67.3550000000000        -2.744697356086023E-008
   67.5450000000000        -2.759793301273184E-008
   67.7350000000000        -2.774936166617815E-008
   67.9250000000000        -2.790119483238844E-008
   68.1150000000000        -2.805339537849073E-008
   68.3050000000000        -2.820594121524742E-008
   68.4950000000000        -2.835884647551750E-008
   68.6850000000000        -2.851214544362251E-008
   68.8750000000000        -2.866586099658802E-008
   69.0650000000000        -2.882002481109345E-008
   69.2550000000000        -2.897467044647205E-008
   69.4450000000000        -2.912984227318119E-008
   69.6350000000000        -2.928557244808930E-008
   69.8250000000000        -2.944186322777739E-008
   70.0150000000000        -2.959884641120837E-008
   70.2050000000000        -2.975656733608578E-008
   70.3950000000000        -2.991508001774961E-008
   70.5850000000000        -3.007441692990826E-008
   70.7750000000000        -3.023462371796264E-008
   70.9650000000000        -3.039573682141396E-008
   71.1550000000000        -3.055784719019764E-008
   71.3450000000000        -3.072109588727642E-008
   71.5350000000000        -3.088553920125706E-008
   71.7250000000000        -3.105133077085170E-008
   71.9150000000000        -3.121851130093194E-008
   72.1050000000000        -3.138707096681437E-008
   72.2950000000000        -3.155701606656352E-008
   72.4850000000000        -3.172832969089919E-008
   72.6750000000000        -3.190099420147763E-008
   72.8650000000000        -3.207498851592307E-008
   73.0550000000000        -3.225023370764604E-008
   73.2450000000000        -3.242667748692403E-008
   73.4350000000000        -3.260424143823106E-008
   73.6250000000000        -3.278287760013184E-008
   73.8150000000000        -3.296256969749132E-008
   74.0050000000000        -3.314312273501895E-008
   74.1950000000000        -3.332453666791137E-008
   74.3850000000000        -3.350660271330486E-008
   74.5750000000000        -3.368921477048385E-008
   74.7650000000000        -3.387222182523056E-008
   74.9550000000000        -3.405550272517352E-008
   75.1450000000000        -3.423888416259389E-008
   75.3350000000000        -3.442240215421334E-008
   75.5250000000000        -3.460599569958619E-008
   75.7150000000000        -3.478969453490774E-008
   75.9050000000000        -3.497349627525947E-008
   76.0950000000000        -3.515745445333381E-008
   76.2850000000000        -3.534165248597317E-008
   76.4750000000000        -3.552608148892804E-008
   76.6650000000000        -3.571073893225527E-008
   76.8550000000000        -3.589567801988104E-008
   77.0450000000000        -3.608087545362120E-008
   77.2350000000000        -3.626627015779160E-008
   77.4250000000000        -3.645187195253536E-008
   77.6150000000000        -3.663758430508836E-008
   77.8050000000000        -3.682330837408723E-008
   77.9950000000000        -3.700892216997617E-008
   78.1850000000000        -3.719431209813255E-008
   78.3750000000000        -3.737934588662117E-008
   78.5650000000000        -3.756385109354829E-008
   78.7550000000000        -3.774770530638257E-008
   78.9450000000000        -3.793085449933107E-008
   79.1350000000000        -3.811325821097577E-008
   79.3250000000000        -3.829491796955242E-008
   79.5150000000000        -3.847587796212621E-008
   79.7050000000000        -3.865628776953812E-008
   79.8950000000000        -3.883625739115993E-008
   80.0850000000000        -3.901591971649650E-008
   80.2750000000000        -3.919536835078146E-008
   80.4650000000000        -3.937478706936488E-008
   80.6550000000000        -3.955427094516271E-008
   80.8450000000000        -3.973407545426140E-008
   81.0350000000000        -3.991436283319741E-008
   81.2250000000000        -4.009530138703779E-008
   81.4150000000000        -4.027703721684423E-008
   81.6050000000000        -4.045971482193366E-008
   81.7950000000000        -4.064356598101230E-008
   81.9850000000000        -4.082866572130663E-008
   82.1750000000000        -4.101507777772858E-008
   82.3650000000000        -4.120277995391081E-008
   82.5550000000000        -4.139170321628324E-008
   82.7450000000000        -4.158165566942533E-008
   82.9350000000000        -4.177248499644391E-008
   83.1250000000000        -4.196411416705323E-008
   83.3150000000000        -4.215638314914736E-008
   83.5050000000000        -4.234910833961155E-008
   83.6950000000000        -4.254225362483930E-008
   83.8850000000000        -4.273574147638934E-008
   84.0750000000000        -4.292952860250920E-008
   84.2650000000000        -4.312355918553974E-008
   84.4550000000000        -4.331777479452542E-008
   84.6450000000000        -4.351219265841196E-008
   84.8350000000000        -4.370680197763974E-008
   85.0250000000000        -4.390160114735286E-008
   85.2150000000000        -4.409662219495502E-008
   85.4050000000000        -4.429190561914578E-008
   85.5950000000000        -4.448747891865045E-008
   85.7850000000000        -4.468350520942775E-008
   85.9750000000000        -4.487996576304194E-008
   86.1650000000000        -4.507702805848430E-008
   86.3550000000000        -4.527477890610771E-008
   86.5450000000000        -4.547321144296640E-008
   86.7350000000000        -4.567237649414224E-008
   86.9250000000000        -4.587231506004943E-008
   87.1150000000000        -4.607310430261896E-008
   87.3050000000000        -4.627482769962077E-008
   87.4950000000000        -4.647751494094312E-008
   87.6850000000000        -4.668119973714863E-008
   87.8750000000000        -4.688584064796744E-008
   88.0650000000000        -4.709153680972530E-008
   88.2550000000000        -4.729832278637532E-008
   88.4450000000000        -4.750614384763386E-008
   88.6350000000000        -4.771500662658831E-008
   88.8250000000000        -4.792490235691991E-008
   89.0150000000000        -4.813578724655085E-008
   89.2050000000000        -4.834759003301100E-008
   89.3950000000000        -4.856023779808598E-008
   89.5850000000000        -4.877359559393746E-008
   89.7750000000000        -4.898757559228586E-008
   89.9650000000000        -4.920215969442091E-008
   90.1550000000000        -4.941731497475098E-008
   90.3450000000000        -4.963297638352820E-008
   90.5350000000000        -4.984896452767794E-008
   90.7250000000000        -5.006520587492169E-008
   90.9150000000000        -5.028160899936237E-008
   91.1050000000000        -5.049810053211140E-008
   91.2950000000000        -5.071462539526803E-008
   91.4850000000000        -5.093115437317787E-008
   91.6750000000000        -5.114758567048634E-008
   91.8650000000000        -5.136382280999386E-008
   92.0550000000000        -5.157982560597472E-008
   92.2450000000000        -5.179560654092811E-008
   92.4350000000000        -5.201104075239474E-008
   92.6250000000000        -5.222609137273829E-008
   92.8150000000000        -5.244074434352123E-008
   93.0050000000000        -5.265501121539504E-008
   93.1950000000000        -5.286892066855145E-008
   93.3850000000000        -5.308248502070500E-008
   93.5750000000000        -5.329579966860298E-008
   93.7650000000000        -5.350894627661201E-008
   93.9550000000000        -5.372201824685267E-008
   94.1450000000000        -5.393510429924971E-008
   94.3350000000000        -5.414830732038676E-008
   94.5250000000000        -5.436178082797144E-008
   94.7150000000000        -5.457570084842704E-008
   94.9050000000000        -5.478998854499044E-008
   95.0950000000000        -5.500475996846877E-008
   95.2850000000000        -5.522008584848743E-008
   95.4750000000000        -5.543603596514154E-008
   95.6650000000000        -5.565260565150757E-008
   95.8550000000000        -5.586985911401607E-008
   96.0450000000000        -5.608778448096207E-008
   96.2350000000000        -5.630637523590871E-008
   96.4250000000000        -5.652558174840348E-008
   96.6150000000000        -5.674534922049959E-008
   96.8050000000000        -5.696564941300773E-008
   96.9950000000000        -5.718648104576616E-008
   97.1850000000000        -5.740779296493224E-008
   97.3750000000000        -5.762954049676036E-008
   97.5650000000000        -5.785165817500776E-008
   97.7550000000000        -5.807416597255404E-008
   97.9450000000000        -5.829708341921547E-008
   98.1350000000000        -5.852042083424381E-008
   98.3250000000000        -5.874419428211556E-008
   98.5150000000000        -5.896846554634974E-008
   98.7050000000000        -5.919327265307234E-008
   98.8950000000000        -5.941862641177520E-008
   99.0850000000000        -5.964450378791056E-008
   99.2750000000000        -5.987084024335479E-008
   99.4650000000000        -6.009752528464149E-008
   99.6550000000000        -6.032448945703738E-008
   99.8450000000000        -6.055148234336969E-008
   100.035000000000        -6.077840188509745E-008
   100.225000000000        -6.100507402142928E-008
   100.415000000000        -6.123135153902947E-008
   100.605000000000        -6.145704050814808E-008
   100.795000000000        -6.168195073551439E-008
   100.985000000000        -6.190597078994581E-008
   101.175000000000        -6.212896320428596E-008
   101.365000000000        -6.235073046769558E-008
   101.555000000000        -6.257126576028631E-008
   101.745000000000        -6.279058275153280E-008
   101.935000000000        -6.300883379713477E-008
   102.125000000000        -6.322610915947906E-008
   102.315000000000        -6.344258105104887E-008
   102.505000000000        -6.365844899475030E-008
   102.695000000000        -6.387396812122570E-008
   102.885000000000        -6.408942549448803E-008
   103.075000000000        -6.430509616659931E-008
   103.265000000000        -6.452120922031150E-008
   103.455000000000        -6.473801484260049E-008
   103.645000000000        -6.495573078504231E-008
   103.835000000000        -6.517449058407990E-008
   104.025000000000        -6.539437132218622E-008
   104.215000000000        -6.561531673715709E-008
   104.405000000000        -6.583730389246713E-008
   104.595000000000        -6.606029470198733E-008
   104.785000000000        -6.628421540973769E-008
   104.975000000000        -6.650897882548214E-008
   105.165000000000        -6.673457890140066E-008
   105.355000000000        -6.696100065386421E-008
   105.545000000000        -6.718820105425796E-008
   105.735000000000        -6.741613404641610E-008
   105.925000000000        -6.764474481161480E-008
   106.115000000000        -6.787393720331829E-008
   106.305000000000        -6.810358820938674E-008
   106.495000000000        -6.833364474844551E-008
   106.685000000000        -6.856407887503804E-008
   106.875000000000        -6.879481227265719E-008
   107.065000000000        -6.902585295374560E-008
   107.255000000000        -6.925714565184677E-008
   107.445000000000        -6.948868464787676E-008
   107.635000000000        -6.972046269424230E-008
   107.825000000000        -6.995247216882860E-008
   108.015000000000        -7.018470582416703E-008
   108.205000000000        -7.041715368945392E-008
   108.395000000000        -7.064979929555963E-008
   108.585000000000        -7.088260653174884E-008
   108.775000000000        -7.111552176188423E-008
   108.965000000000        -7.134851625568917E-008
   109.155000000000        -7.158155429629790E-008
   109.345000000000        -7.181467532455811E-008
   109.535000000000        -7.204786249458720E-008
   109.725000000000        -7.228111238164808E-008
   109.915000000000        -7.251442158784046E-008
   110.105000000000        -7.274779531073387E-008