  -1.42500000000000        -7.157768128048180E-019
  -1.23500000000000        -5.205876112364092E-016
  -1.04500000000000        -3.497508523539010E-015
 -0.855000000000000        -1.570335624155573E-014
 -0.665000000000000        -5.983061964154044E-014
 -0.475000000000000        -1.873230860123800E-013
 -0.285000000000000        -5.005711193188879E-013
 -9.499999999999975E-002   -1.144039170876575E-012
  9.500000000000020E-002   -2.314798946456809E-012
  0.285000000000000        -4.016095747557392E-012
  0.475000000000000        -6.298614609685891E-012
  0.665000000000000        -8.768359372106877E-012
  0.855000000000000        -1.140186233480898E-011
   1.04500000000000        -1.465696600244438E-011
   1.23500000000000        -1.552252859020652E-011
   1.42500000000000        -1.904983221758959E-011
   1.61500000000000        -1.964212155268699E-011
   1.80500000000000        -1.951467957932529E-011
   1.99500000000000        -1.937679414626023E-011
   2.18500000000000        -1.870336836488739E-011
   2.37500000000000        -1.756354636152396E-011
   2.56500000000000        -1.615632032447597E-011
   2.75500000000000        -1.349871315540125E-011
   2.94500000000000        -1.152220939638589E-011
   3.13500000000000        -8.923506657889876E-012
   3.32500000000000        -1.032825441943845E-011
   3.51500000000000        -6.774620887940984E-012
   3.70500000000000        -7.692854142234481E-012
   3.89500000000000        -6.771109962008846E-012
   4.08500000000000        -6.324829976917219E-012
   4.27500000000000        -6.362658330069831E-012
   4.46500000000000        -7.315715511474493E-012
   4.65500000000000        -9.030314776153478E-012
   4.84500000000000        -1.072759911686813E-011
   5.03500000000000        -1.133430165204142E-011
   5.22500000000000        -1.076702874218263E-011
   5.41500000000000        -9.804287673732480E-012
   5.60500000000000        -8.902519941349079E-012
   5.79500000000000        -9.569956247892045E-012
   5.98500000000000        -7.993703760150516E-012
   6.17500000000000        -5.955104288996045E-012
   6.36500000000000        -5.318070082071800E-012
   6.55500000000000        -6.181662797766597E-012
   6.74500000000000        -7.745971797050924E-012
   6.93500000000000        -9.846695678508121E-012
   7.12500000000000        -1.155429157558092E-011
   7.31500000000000        -1.246716955457150E-011
   7.50500000000000        -1.477192707008486E-011
   7.69500000000000        -1.729032566762096E-011
   7.88500000000000        -2.285177272635688E-011
   8.07500000000000        -2.517252828209499E-011
   8.26500000000000        -2.653356389584760E-011
   8.45500000000000        -2.604574494364174E-011
   8.64500000000000        -2.676071506111931E-011
   8.83500000000000        -2.624734663701496E-011
   9.02500000000000        -2.407537175324816E-011
   9.21500000000000        -1.917020976703305E-011
   9.40500000000000        -1.598035947841745E-011
   9.59500000000000        -1.246832258207133E-011
   9.78500000000000        -8.948800503958070E-012
   9.97500000000000        -4.883393490608083E-012
   10.1650000000000        -2.502344282319126E-012
   10.3550000000000         3.693092277548162E-013
   10.5450000000000         2.927469607659304E-012
   10.7350000000000         3.032443671337228E-012
   10.9250000000000         3.187463293946617E-012
   11.1150000000000         2.648664759733315E-012
   11.3050000000000         6.784602170448253E-013
   11.4950000000000        -2.235952596106863E-012
   11.6850000000000        -4.760890617293048E-012
   11.8750000000000        -6.639830592186410E-012
   12.0650000000000        -8.105988990043550E-012
   12.2550000000000        -9.140831797418603E-012
   12.4450000000000        -9.652537773842513E-012
   12.6350000000000        -8.645581808729668E-012
   12.8250000000000        -9.557293826320598E-012
   13.0150000000000        -8.519841426976950E-012
   13.2050000000000        -7.402429989646754E-012
   13.3950000000000        -7.703971906236281E-012
   13.5850000000000        -7.050626045494446E-012
   13.7750000000000        -5.819168628731276E-012
   13.9650000000000        -4.824128211580419E-012
   14.1550000000000        -3.339760667360528E-012
   14.3450000000000        -3.208372059952191E-012
   14.5350000000000        -3.499926691172785E-012
   14.7250000000000        -5.766943131857487E-012
   14.9150000000000        -6.927349138526394E-012
   15.1050000000000        -7.512865020316019E-012
   15.2950000000000        -1.032983265008120E-011
   15.4850000000000        -1.177655232242668E-011
   15.6750000000000        -1.216928007520583E-011
   15.8650000000000        -1.283240722622742E-011
   16.0550000000000        -1.437975355719379E-011
   16.2450000000000        -1.387808478160521E-011
   16.4350000000000        -1.380604439457076E-011
   16.6250000000000        -1.500571790799126E-011
   16.8150000000000        -1.560144623708196E-011
   17.0050000000000        -1.574745667436240E-011
   17.1950000000000        -1.572866351867904E-011
   17.3850000000000        -1.598520681095817E-011
   17.5750000000000        -1.540845422237740E-011
   17.7650000000000        -1.547410861208557E-011
   17.9550000000000        -1.521669399625503E-011
   18.1450000000000        -1.493858584208029E-011
   18.3350000000000        -1.481921366378552E-011
   18.5250000000000        -1.488330093482002E-011
   18.7150000000000        -1.591782545253193E-011
   18.9050000000000        -1.731118117802615E-011
   19.0950000000000        -1.856267618404372E-011
   19.2850000000000        -1.927248439936148E-011
   19.4750000000000        -1.945682526419864E-011
   19.6650000000000        -1.906148766110353E-011
   19.8550000000000        -1.860099103015146E-011
   20.0450000000000        -1.778406769016492E-011
   20.2350000000000        -1.673442004640767E-011
   20.4250000000000        -1.550709233863288E-011
   20.6150000000000        -1.381537451305585E-011
   20.8050000000000        -1.289600610883102E-011
   20.9950000000000        -1.218729332646024E-011
   21.1850000000000        -1.095210427808013E-011
   21.3750000000000        -1.199960474559419E-011
   21.5650000000000        -1.136235895410003E-011
   21.7550000000000        -1.264565834157890E-011
   21.9450000000000        -1.484981582376480E-011
   22.1350000000000        -1.491932915441252E-011
   22.3250000000000        -1.697636728511949E-011
   22.5150000000000        -1.995518089422297E-011
   22.7050000000000        -2.402919886404278E-011
   22.8950000000000        -2.649648157653062E-011
   23.0850000000000        -2.695686588949874E-011
   23.2750000000000        -3.015225504293897E-011
   23.4650000000000        -3.182102979957197E-011
   23.6550000000000        -3.299742026968001E-011
   23.8450000000000        -3.318105527310039E-011
   24.0350000000000        -3.294679774264942E-011
   24.2250000000000        -3.119217305904127E-011
   24.4150000000000        -2.907668555030969E-011
   24.6050000000000        -2.734026492739480E-011
   24.7950000000000        -2.543927093599662E-011
   24.9850000000000        -2.151626597753026E-011
   25.1750000000000        -2.136562846548576E-011
   25.3650000000000        -1.661121998833108E-011
   25.5550000000000        -1.473444486131169E-011
   25.7450000000000        -1.176091017587285E-011
   25.9350000000000        -1.131189126132387E-011
   26.1250000000000        -7.232348307384902E-012
   26.3150000000000        -6.479034344764754E-012
   26.5050000000000        -7.581423431796851E-012
   26.6950000000000        -8.930020526764437E-012
   26.8850000000000        -1.092902732493268E-011
   27.0750000000000        -1.244324212874008E-011
   27.2650000000000        -1.228971080718118E-011
   27.4550000000000        -1.393382295658544E-011
   27.6450000000000        -1.521448625922719E-011
   27.8350000000000        -1.592436001723428E-011
   28.0250000000000        -1.629460854326057E-011
   28.2150000000000        -1.512953194250528E-011
   28.4050000000000        -1.526981898788993E-011
   28.5950000000000        -1.279697632694040E-011
   28.7850000000000        -8.397478636467364E-012
   28.9750000000000        -6.411876897358093E-012
   29.1650000000000        -2.842030047104362E-012
   29.3550000000000         2.499942086017485E-012
   29.5450000000000         7.586171609323287E-012
   29.7350000000000         1.244367567045938E-011
   29.9250000000000         1.698835142453123E-011
   30.1150000000000         2.084006457618178E-011
   30.3050000000000         2.316555076469172E-011
   30.4950000000000         2.546582496203187E-011
   30.6850000000000         2.559111111301144E-011
   30.8750000000000         2.316421885654477E-011
   31.0650000000000         2.174126547523394E-011
   31.2550000000000         1.781875077900626E-011
   31.4450000000000         1.267971610868216E-011
   31.6350000000000         8.019568722663111E-012
   31.8250000000000         2.082568531103453E-012
   32.0150000000000        -2.948999323168691E-012
   32.2050000000000        -7.930571712575935E-012
   32.3950000000000        -1.188203240588905E-011
   32.5850000000000        -1.200982079843819E-011
   32.7750000000000        -1.492134446109580E-011
   32.9650000000000        -1.551732411379971E-011
   33.1550000000000        -1.691853856096412E-011
   33.3450000000000        -1.498729186322135E-011
   33.5350000000000        -1.125402330222115E-011
   33.7250000000000        -8.281349230158740E-012
   33.9150000000000        -8.086223281205320E-012
   34.1050000000000        -6.230095757305928E-012
   34.2950000000000        -4.263036517866014E-012
   34.4850000000000        -1.600941332882234E-012
   34.6750000000000        -3.189854136809660E-012
   34.8650000000000        -3.982665915121862E-012
   35.0550000000000        -4.957817005928788E-012
   35.2450000000000        -5.721706948958412E-012
   35.4350000000000        -1.126224156373283E-011
   35.6250000000000        -1.412500780805878E-011
   35.8150000000000        -1.677732844664256E-011
   36.0050000000000        -1.667229996601990E-011
   36.1950000000000        -1.820677854276762E-011
   36.3850000000000        -1.907835332562212E-011
   36.5750000000000        -1.975705033640254E-011
   36.7650000000000        -1.968109899396348E-011
   36.9550000000000        -1.738747207028059E-011
   37.1450000000000        -1.621086367091211E-011
   37.3350000000000        -1.499374704932511E-011
   37.5250000000000        -1.373441394866069E-011
   37.7150000000000        -1.292498267910960E-011
   37.9050000000000        -1.301155263528208E-011
   38.0950000000000        -1.435114791772517E-011
   38.2850000000000        -1.457044524247960E-011
   38.4750000000000        -1.714253921335648E-011
   38.6650000000000        -2.061131364033769E-011
   38.8550000000000        -2.435694454584963E-011
   39.0450000000000        -2.847629235332505E-011
   39.2350000000000        -3.289671617033098E-011
   39.4250000000000        -3.704148230656653E-011
   39.6150000000000        -4.106456274619294E-011
   39.8050000000000        -4.481994630128772E-011
   39.9950000000000        -4.765597963145492E-011
   40.1850000000000        -4.719521841258864E-011
   40.3750000000000        -4.822257218882136E-011
   40.5650000000000        -4.742529137902578E-011
   40.7550000000000        -4.405266403979546E-011
   40.9450000000000        -4.419784128589732E-011
   41.1350000000000        -3.809368429643468E-011
   41.3250000000000        -3.520593208727696E-011
   41.5150000000000        -3.115344450179420E-011
   41.7050000000000        -2.553567321402893E-011
   41.8950000000000        -2.367065800527644E-011
   42.0850000000000        -1.696861046842550E-011
   42.2750000000000        -1.073698630530685E-011
   42.4650000000000        -6.038971252934714E-012
   42.6550000000000        -4.897833054926378E-012
   42.8450000000000        -2.645863019438478E-012
   43.0350000000000         3.600559989317595E-012
   43.2250000000000         2.944502574958691E-012
   43.4150000000000         5.891529966041408E-012
   43.6050000000000         7.141965955900765E-012
   43.7950000000000         8.206246143262082E-012
   43.9850000000000         7.630102063953250E-012
   44.1750000000000         5.361115014696131E-012
   44.3650000000000         1.866561480077018E-012
   44.5550000000000         3.224809260409896E-013
   44.7450000000000        -4.397347731605036E-012
   44.9350000000000        -6.806103735783040E-012
   45.1250000000000        -1.134335980231242E-011
   45.3150000000000        -1.620354118254143E-011
   45.5050000000000        -2.057539512912151E-011
   45.6950000000000        -2.485195643986369E-011
   45.8850000000000        -2.855575788187519E-011
   46.0750000000000        -2.785845635638236E-011
   46.2650000000000        -2.836231738265583E-011
   46.4550000000000        -2.730673053992208E-011
   46.6450000000000        -2.602210013913902E-011
   46.8350000000000        -2.328128418253851E-011
   47.0250000000000        -1.642475706181453E-011
   47.2150000000000        -1.535186932881391E-011
   47.4050000000000        -1.147631389886730E-011
   47.5950000000000        -6.140949826597509E-012
   47.7850000000000        -3.010413465690906E-012
   47.9750000000000        -1.580059901987788E-012
   48.1650000000000         4.693393127117397E-012
   48.3550000000000         3.953132937924375E-012
   48.5450000000000         7.071933600046958E-012
   48.7350000000000         7.515909048137306E-012
   48.9250000000000         8.424349611065921E-012
   49.1150000000000         6.041882483130930E-012
   49.3050000000000         5.181517218312545E-012
   49.4950000000000         9.858622453725472E-013
   49.6850000000000        -5.784728664005230E-012
   49.8750000000000        -9.940242562507420E-012
   50.0650000000000        -1.972633063424982E-011
   50.2550000000000        -2.537599493997412E-011
   50.4450000000000        -2.577309137474900E-011
   50.6350000000000        -2.901952185808575E-011
   50.8250000000000        -3.393625675860491E-011
   51.0150000000000        -3.231371282462888E-011
   51.2050000000000        -3.123201682924971E-011
   51.3950000000000        -2.767764836282731E-011
   51.5850000000000        -2.255593884003694E-011
   51.7750000000000        -2.182830164858340E-011
   51.9650000000000        -1.539179070305629E-011
   52.1550000000000        -1.022936026889352E-011
   52.3450000000000        -7.154962109460013E-012
   52.5350000000000        -2.907309838099188E-012
   52.7250000000000        -4.094140573793765E-013
   52.9150000000000         2.588394946065601E-012
   53.1050000000000         2.444414992599424E-012
   53.2950000000000         1.173360132963013E-012
   53.4850000000000        -8.205698025610872E-013
   53.6750000000000        -2.984097818764949E-012
   53.8650000000000        -4.468717774073668E-012
   54.0550000000000        -8.418145568420497E-012
   54.2450000000000        -1.226208741095322E-011
   54.4350000000000        -1.631502801271284E-011
   54.6250000000000        -2.025908789693715E-011
   54.8150000000000        -2.528388921747209E-011
   55.0050000000000        -2.406963526942385E-011
   55.1950000000000        -2.754040907793102E-011
   55.3850000000000        -2.832988107827598E-011
   55.5750000000000        -2.883840366417903E-011
   55.7650000000000        -2.759824906465835E-011
   55.9550000000000        -2.650075138676781E-011
   56.1450000000000        -2.341183229480603E-011
   56.3350000000000        -2.065919968777950E-011
   56.5250000000000        -2.002852083709378E-011
   56.7150000000000        -1.664407830993116E-011
   56.9050000000000        -1.299744672469082E-011
   57.0950000000000        -1.289121120739124E-011
   57.2850000000000        -8.954367721127892E-012
   57.4750000000000        -8.242146739063464E-012
   57.6650000000000        -8.075954504524549E-012
   57.8550000000000        -6.909180371402872E-012
   58.0450000000000        -8.423934597136990E-012
   58.2350000000000        -1.015568189757495E-011
   58.4250000000000        -1.255831557622175E-011
   58.6150000000000        -1.372191647305003E-011
   58.8050000000000        -1.423782364368627E-011
   58.9950000000000        -1.512048840623694E-011
   59.1850000000000        -1.485394544676846E-011
   59.3750000000000        -1.498099516908407E-011
   59.5650000000000        -1.478715885132014E-011
   59.7550000000000        -1.428972699963148E-011
   59.9450000000000        -1.347948616028017E-011
   60.1350000000000        -1.182991148444190E-011
   60.3250000000000        -1.154342549007829E-011
   60.5150000000000        -1.150463847796812E-011
   60.7050000000000        -7.850672778775104E-012
   60.8950000000000        -8.949142383826431E-012
   61.0850000000000        -3.435189517993493E-012
   61.2750000000000        -2.156782411282884E-012
   61.4650000000000         1.409140487231614E-012
   61.6550000000000         4.255505064068743E-012
   61.8450000000000         6.307182096274217E-012
   62.0350000000000         6.946376132458722E-012
   62.2250000000000         8.911352785653559E-012
   62.4150000000000         9.223115143423092E-012
   62.6050000000000         1.085559091922009E-011
   62.7950000000000         9.561038750234710E-012
   62.9850000000000         8.823118791178990E-012
   63.1750000000000         7.300309522230273E-012
   63.3650000000000         5.264624326968669E-012
   63.5550000000000         4.568982752033476E-012
   63.7450000000000         4.089827267402975E-012
   63.9350000000000         2.344498008535937E-012
   64.1250000000000        -3.201965657851565E-014
   64.3150000000000        -2.705074404704336E-012
   64.5050000000000        -5.031803450506462E-012
   64.6950000000000        -6.307063600634262E-012
   64.8850000000000        -8.442131559008026E-012
   65.0750000000000        -1.132558812618506E-011
   65.2650000000000        -1.255860484208389E-011
   65.4550000000000        -1.253644162706883E-011
   65.6450000000000        -1.300437132869051E-011
   65.8350000000000        -1.343586564500173E-011
   66.0250000000000        -1.469959064854097E-011
   66.2150000000000        -1.552462647389899E-011
   66.4050000000000        -1.498072627379409E-011
   66.5950000000000        -1.533219144576116E-011
   66.7850000000000        -1.449851656500938E-011
   66.9750000000000        -1.546129073830248E-011
   67.1650000000000        -1.510783258096677E-011
   67.3550000000000        -1.441994540778790E-011
   67.5450000000000        -1.299727353773284E-011
   67.7350000000000        -1.120533972227020E-011
   67.9250000000000        -1.017672831045193E-011
   68.1150000000000        -9.564838071428036E-012
   68.3050000000000        -9.956330011406152E-012
   68.4950000000000        -1.090603420796632E-011
   68.6850000000000        -1.153974682882120E-011
   68.8750000000000        -1.241721717203864E-011
   69.0650000000000        -1.334683859256236E-011
   69.2550000000000        -1.457593713343858E-011
   69.4450000000000        -1.546670911312750E-011
   69.6350000000000        -1.552921828156554E-011
   69.8250000000000        -1.918015908334662E-011
   70.0150000000000        -2.043605114697130E-011
   70.2050000000000        -2.193232095381357E-011
   70.3950000000000        -2.283186966286944E-011
   70.5850000000000        -2.409628519979882E-011
   70.7750000000000        -2.510568966583663E-011
   70.9650000000000        -2.762507845897941E-011
   71.1550000000000        -3.153263975374096E-011
   71.3450000000000        -3.309188093794372E-011
   71.5350000000000        -3.734780094144530E-011
   71.7250000000000        -3.847535971194093E-011
   71.9150000000000        -3.820320781691690E-011
   72.1050000000000        -3.837766943846051E-011
   72.2950000000000        -3.790926832453751E-011
   72.4850000000000        -3.742067154505953E-011
   72.6750000000000        -3.683667221574159E-011
   72.8650000000000        -3.465034009791900E-011
   73.0550000000000        -3.320187133002955E-011
   73.2450000000000        -3.102969609523100E-011
   73.4350000000000        -2.970112448102740E-011
   73.6250000000000        -2.925028971430846E-011
   73.8150000000000        -2.384875812072233E-011
   74.0050000000000        -2.384751703001788E-011
   74.1950000000000        -1.806405820189132E-011
   74.3850000000000        -1.512498020716132E-011
   74.5750000000000        -1.094176087927759E-011
   74.7650000000000        -7.585739507706563E-012
   74.9550000000000        -2.784971673961576E-012
   75.1450000000000        -3.782664794031252E-012
   75.3350000000000        -2.092901756576862E-012
   75.5250000000000        -2.916619077096350E-012
   75.7150000000000        -2.850554852857091E-012
   75.9050000000000        -4.333454920237308E-012
   76.0950000000000        -6.644170775917753E-012
   76.2850000000000        -6.398069681283464E-012
   76.4750000000000        -6.327988154724560E-012
   76.6650000000000        -7.801781122948476E-012
   76.8550000000000        -7.156402060241078E-012
   77.0450000000000        -5.464554854419431E-012
   77.2350000000000        -5.736580979072137E-012
   77.4250000000000        -3.062543192777906E-012
   77.6150000000000        -3.245552873943336E-013
   77.8050000000000         3.054656784938987E-012
   77.9950000000000         6.201322231514833E-012
   78.1850000000000         9.865364757741260E-012
   78.3750000000000         1.464214851867582E-011
   78.5650000000000         1.803307736341184E-011
   78.7550000000000         1.952963672542700E-011
   78.9450000000000         2.065045162888368E-011
   79.1350000000000         2.060811822845376E-011
   79.3250000000000         1.938409980252162E-011
   79.5150000000000         1.524058620108767E-011
   79.7050000000000         1.219351219176540E-011
   79.8950000000000         8.512362470987416E-012
   80.0850000000000         5.919419712645745E-012
   80.2750000000000         8.286897939715238E-013
   80.4650000000000        -1.804908986895933E-012
   80.6550000000000        -8.881808888261695E-012
   80.8450000000000        -1.337589577061920E-011
   81.0350000000000        -1.803808599339823E-011
   81.2250000000000        -2.208520681587813E-011
   81.4150000000000        -2.608795797831432E-011
   81.6050000000000        -3.250842075305816E-011
   81.7950000000000        -3.458673727711330E-011
   81.9850000000000        -3.635224730166925E-011
   82.1750000000000        -3.573738948265926E-011
   82.3650000000000        -3.382510222088370E-011
   82.5550000000000        -2.850943960268212E-011
   82.7450000000000        -2.429013508325438E-011
   82.9350000000000        -2.215633215340088E-011
   83.1250000000000        -1.772330982863865E-011
   83.3150000000000        -1.263735097051687E-011
   83.5050000000000        -1.163697406005519E-011
   83.6950000000000        -9.489371808489851E-012
   83.8850000000000        -8.290154289153843E-012
   84.0750000000000        -6.743958744879932E-012
   84.2650000000000        -5.125372718039203E-012
   84.4550000000000        -5.602628832370957E-012
   84.6450000000000        -5.303472057058004E-012
   84.8350000000000        -5.259016214160224E-012
   85.0250000000000        -6.146201912373118E-012
   85.2150000000000        -7.268049545976650E-012
   85.4050000000000        -8.029787088617832E-012
   85.5950000000000        -1.254823469891001E-011
   85.7850000000000        -1.202944146525896E-011
   85.9750000000000        -1.666874870254894E-011
   86.1650000000000        -1.907346761960936E-011
   86.3550000000000        -1.888335831750151E-011
   86.5450000000000        -2.029125532359570E-011
   86.7350000000000        -2.142700086729382E-011
   86.9250000000000        -2.356445048051501E-011
   87.1150000000000        -2.587685408021010E-011
   87.3050000000000        -2.669928865699162E-011
   87.4950000000000        -2.763309925732808E-011
   87.6850000000000        -2.648516934324224E-011
   87.8750000000000        -2.923132795124711E-011
   88.0650000000000        -3.018877817683953E-011
   88.2550000000000        -2.867270383625547E-011
   88.4450000000000        -2.885644587067636E-011
   88.6350000000000        -2.861361155467682E-011
   88.8250000000000        -2.740053460876496E-011
   89.0150000000000        -2.542650496326340E-011
   89.2050000000000        -2.340660982982621E-011
   89.3950000000000        -1.966844256201849E-011
   89.5850000000000        -1.723552623021647E-011
   89.7750000000000        -1.673417691656865E-011
   89.9650000000000        -1.582211066420336E-011
   90.1550000000000        -1.402017859213615E-011
   90.3450000000000        -9.050841343041062E-012
   90.5350000000000        -7.013936123312414E-012
   90.7250000000000        -4.481362795297278E-012
   90.9150000000000        -2.448983611637589E-012
   91.1050000000000        -9.232799878785388E-013
   91.2950000000000        -1.139820836077357E-013
   91.4850000000000         2.705833832700628E-012
   91.6750000000000         5.378332436488679E-012
   91.8650000000000         6.491510433901881E-012
   92.0550000000000         6.145734833204487E-012
   92.2450000000000         9.604528717981850E-012
   92.4350000000000         1.062579288396982E-011
   92.6250000000000         1.101522328556511E-011
   92.8150000000000         1.069526064070756E-011
   93.0050000000000         9.900795495464032E-012
   93.1950000000000         9.559584567101041E-012
   93.3850000000000         6.917015389856113E-012
   93.5750000000000         4.654844569095138E-012
   93.7650000000000         2.067528210070244E-012
   93.9550000000000        -3.900874341189333E-013
   94.1450000000000        -3.240131303645090E-012
   94.3350000000000        -7.492699378992381E-012
   94.5250000000000        -1.236877758857385E-011
   94.7150000000000        -1.018493373352430E-011
   94.9050000000000        -1.339963753281102E-011
   95.0950000000000        -1.535890693454273E-011
   95.2850000000000        -1.729187355811047E-011
   95.4750000000000        -1.716259589798299E-011
   95.6650000000000        -1.894116738110111E-011
   95.8550000000000        -1.861231128857361E-011
   96.0450000000000        -1.843180057156248E-011
   96.2350000000000        -1.705699579383387E-011
   96.4250000000000        -1.553904712785926E-011
   96.6150000000000        -1.475679811683681E-011
   96.8050000000000        -1.472133657338908E-011
   96.9950000000000        -1.330433262242429E-011
   97.1850000000000        -1.206683274273750E-011
   97.3750000000000        -1.025336341568622E-011
   97.5650000000000        -1.080662877681333E-011
   97.7550000000000        -1.134762091906828E-011
   97.9450000000000        -1.163347276720763E-011
   98.1350000000000        -1.207847211733187E-011
   98.3250000000000        -1.378992693608973E-011
   98.5150000000000        -1.484328222871430E-011
   98.7050000000000        -1.514271413377465E-011
   98.8950000000000        -1.450463802021456E-011
   99.0850000000000        -1.271687836124594E-011
   99.2750000000000        -9.656117520542866E-012
   99.4650000000000        -7.732163689275037E-012
   99.6550000000000        -7.953999006633921E-013
   99.8450000000000         2.031706497356272E-012
   100.035000000000         6.853335066820112E-012
   100.225000000000         1.093126680492594E-011
   100.415000000000         1.630328203750802E-011
   100.605000000000         2.157179369320714E-011
   100.795000000000         2.465853005261912E-011
   100.985000000000         2.846648452235109E-011
   101.175000000000         3.393769890591244E-011
   101.365000000000         3.412661548251183E-011
   101.555000000000         3.374795967401463E-011
   101.745000000000         2.952758018084744E-011
   101.935000000000         2.702723705463700E-011
   102.125000000000         2.225680815721469E-011
   102.315000000000         1.672985785079897E-011
   102.505000000000         9.662527035910690E-012
   102.695000000000         1.710615320113584E-012
   102.885000000000        -5.908555371722800E-012
   103.075000000000        -1.225433797585132E-011
   103.265000000000        -1.918472511860356E-011
   103.455000000000        -2.521662473245582E-011
   103.645000000000        -2.891569517394822E-011
   103.835000000000        -3.105094373186186E-011
   104.025000000000        -2.949243392081295E-011
   104.215000000000        -2.885707310787399E-011
   104.405000000000        -2.780205568345920E-011
   104.595000000000        -2.575895374233295E-011
   104.785000000000        -2.334371174830884E-011
   104.975000000000        -2.317618210775631E-011
   105.165000000000        -2.276112313121119E-011
   105.355000000000        -2.156919474175531E-011
   105.545000000000        -2.029340067523375E-011
   105.735000000000        -1.877487647065794E-011
   105.925000000000        -1.611153752789027E-011
   106.115000000000        -1.270399903037037E-011
   106.305000000000        -1.123360084038855E-011
   106.495000000000        -1.045948846791848E-011
   106.685000000000        -8.290056140441663E-012
   106.875000000000        -8.512007458561270E-012
   107.065000000000        -6.981080685129702E-012
   107.255000000000        -6.822657308957601E-012
   107.445000000000        -6.621892952261037E-012
   107.635000000000        -6.410754035949292E-012
   107.825000000000        -6.209993134298735E-012
   108.015000000000        -5.933793585583694E-012
   108.205000000000        -5.477585009648245E-012
   108.395000000000        -4.477287632586365E-012
   108.585000000000        -2.991522053077345E-012
   108.775000000000        -2.195669517442327E-012
   108.965000000000        -1.206282653417731E-012
   109.155000000000        -2.298826910127409E-012
   109.345000000000        -1.832181964051951E-012
   109.535000000000        -1.737313900194185E-012
   109.725000000000        -1.643189237640822E-012
   109.915000000000        -1.787166234271778E-012
   110.105000000000        -2.908991119526332E-012