  -1.42500000000000         0.000000000000000E+000
  -1.23500000000000        -5.366365796468085E-021
  -1.04500000000000        -3.658338396633980E-020
 -0.855000000000000         1.212655659647242E-018
 -0.665000000000000         3.046190852900679E-017
 -0.475000000000000         1.737674281925233E-016
 -0.285000000000000         6.499889910615761E-016
 -9.499999999999975E-002    2.297729618500004E-015
  9.500000000000020E-002    7.756020570409857E-015
  0.285000000000000         2.047733393888556E-014
  0.475000000000000         4.901078408246859E-014
  0.665000000000000         1.195426285389259E-013
  0.855000000000000         2.362883577558016E-013
   1.04500000000000         4.525403919633306E-013
   1.23500000000000         7.963836157277076E-013
   1.42500000000000         1.325224807292926E-012
   1.61500000000000         2.106556749399479E-012
   1.80500000000000         3.210077375950581E-012
   1.99500000000000         4.719992250409887E-012
   2.18500000000000         6.731721325201535E-012
   2.37500000000000         9.321522451839566E-012
   2.56500000000000         1.257057217297710E-011
   2.75500000000000         1.656544925449487E-011
   2.94500000000000         2.135642891958772E-011
   3.13500000000000         2.701843556499933E-011
   3.32500000000000         3.359348530668234E-011
   3.51500000000000         4.110240624782294E-011
   3.70500000000000         4.955796513974360E-011
   3.89500000000000         5.894980652915496E-011
   4.08500000000000         6.927076920829859E-011
   4.27500000000000         8.053319865986564E-011
   4.46500000000000         9.271659717138926E-011
   4.65500000000000         1.057569575162437E-010
   4.84500000000000         1.196512855829898E-010
   5.03500000000000         1.343653546841677E-010
   5.22500000000000         1.498219964481644E-010
   5.41500000000000         1.660454500965293E-010
   5.60500000000000         1.829709685017600E-010
   5.79500000000000         2.005561708279278E-010
   5.98500000000000         2.187427742011272E-010
   6.17500000000000         2.375033654410787E-010
   6.36500000000000         2.567768892723204E-010
   6.55500000000000         2.764735671019152E-010
   6.74500000000000         2.965397647583015E-010
   6.93500000000000         3.169044561821996E-010
   7.12500000000000         3.375156871086119E-010
   7.31500000000000         3.583099877427180E-010
   7.50500000000000         3.792552787657775E-010
   7.69500000000000         4.003037529861740E-010
   7.88500000000000         4.214644009857234E-010
   8.07500000000000         4.427570245122066E-010
   8.26500000000000         4.641678945131304E-010
   8.45500000000000         4.857405293985290E-010
   8.64500000000000         5.075264207189443E-010
   8.83500000000000         5.295903626135534E-010
   9.02500000000000         5.519922933722908E-010
   9.21500000000000         5.748005939813775E-010
   9.40500000000000         5.980965565116133E-010
   9.59500000000000         6.218907400663258E-010
   9.78500000000000         6.462456584715727E-010
   9.97500000000000         6.712097286949742E-010
   10.1650000000000         6.968435375013719E-010
   10.3550000000000         7.231388731314850E-010
   10.5450000000000         7.500926957033961E-010
   10.7350000000000         7.776861450197292E-010
   10.9250000000000         8.059406001188633E-010
   11.1150000000000         8.348730692850795E-010
   11.3050000000000         8.645052542081864E-010
   11.4950000000000         8.948498857738335E-010
   11.6850000000000         9.259107400342620E-010
   11.8750000000000         9.576924402029545E-010
   12.0650000000000         9.901779685473557E-010
   12.2550000000000         1.023367846082673E-009
   12.4450000000000         1.057239833820818E-009
   12.6350000000000         1.091771306516731E-009
   12.8250000000000         1.126921319805968E-009
   13.0150000000000         1.162643557187368E-009
   13.2050000000000         1.198859386596082E-009
   13.3950000000000         1.235535086772048E-009
   13.5850000000000         1.272625488985344E-009
   13.7750000000000         1.310078452080648E-009
   13.9650000000000         1.347847102250260E-009
   14.1550000000000         1.385883951489287E-009
   14.3450000000000         1.424163115888173E-009
   14.5350000000000         1.462684400218287E-009
   14.7250000000000         1.501464563040901E-009
   14.9150000000000         1.540513602703880E-009
   15.1050000000000         1.579861527008452E-009
   15.2950000000000         1.619497008800981E-009
   15.4850000000000         1.659453848203325E-009
   15.6750000000000         1.699791077397043E-009
   15.8650000000000         1.740547215279152E-009
   16.0550000000000         1.781779980302523E-009
   16.2450000000000         1.823544787878758E-009
   16.4350000000000         1.865866585643756E-009
   16.6250000000000         1.908783943668465E-009
   16.8150000000000         1.952343014857697E-009
   17.0050000000000         1.996576431653063E-009
   17.1950000000000         2.041496399146939E-009
   17.3850000000000         2.087164248133393E-009
   17.5750000000000         2.133552354191249E-009
   17.7650000000000         2.180685862035901E-009
   17.9550000000000         2.228567928111847E-009
   18.1450000000000         2.277215658424177E-009
   18.3350000000000         2.326641249365469E-009
   18.5250000000000         2.376839307298835E-009
   18.7150000000000         2.427786244239275E-009
   18.9050000000000         2.479440787278869E-009
   19.0950000000000         2.531773491946515E-009
   19.2850000000000         2.584738002838299E-009
   19.4750000000000         2.638277149199678E-009
   19.6650000000000         2.692344563878141E-009
   19.8550000000000         2.746836576499174E-009
   20.0450000000000         2.801673252124137E-009
   20.2350000000000         2.856790042396249E-009
   20.4250000000000         2.912123720067620E-009
   20.6150000000000         2.967616410572686E-009
   20.8050000000000         3.023242142055055E-009
   20.9950000000000         3.078951495297906E-009
   21.1850000000000         3.134696450796082E-009
   21.3750000000000         3.190451741118199E-009
   21.5650000000000         3.246228134782194E-009
   21.7550000000000         3.302035559910030E-009
   21.9450000000000         3.357882284433551E-009
   22.1350000000000         3.413779300489940E-009
   22.3250000000000         3.469736162326609E-009
   22.5150000000000         3.525763516098248E-009
   22.7050000000000         3.581839678549194E-009
   22.8950000000000         3.638018557609946E-009
   23.0850000000000         3.694329251746370E-009
   23.2750000000000         3.750803976361057E-009
   23.4650000000000         3.807515929248138E-009
   23.6550000000000         3.864496078529851E-009
   23.8450000000000         3.921829402105592E-009
   24.0350000000000         3.979609405336547E-009
   24.2250000000000         4.037940816983980E-009
   24.4150000000000         4.096902144942860E-009
   24.6050000000000         4.156570046935315E-009
   24.7950000000000         4.217000422586952E-009
   24.9850000000000         4.278284320510483E-009
   25.1750000000000         4.340438288321962E-009
   25.3650000000000         4.403526402992611E-009
   25.5550000000000         4.467571528091815E-009
   25.7450000000000         4.532513653102251E-009
   25.9350000000000         4.598387136780410E-009
   26.1250000000000         4.665129306433360E-009
   26.3150000000000         4.732715458623697E-009
   26.5050000000000         4.801114781413848E-009
   26.6950000000000         4.870283060496085E-009
   26.8850000000000         4.940159037191678E-009
   27.0750000000000         5.010645791284381E-009
   27.2650000000000         5.081707284758719E-009
   27.4550000000000         5.153294466548104E-009
   27.6450000000000         5.225358484780862E-009
   27.8350000000000         5.297845440942360E-009
   28.0250000000000         5.370710428187656E-009
   28.2150000000000         5.443879947148385E-009
   28.4050000000000         5.517288066119938E-009
   28.5950000000000         5.590918412555661E-009
   28.7850000000000         5.664745205914937E-009
   28.9750000000000         5.738775413482695E-009
   29.1650000000000         5.812987990361711E-009
   29.3550000000000         5.887341774220713E-009
   29.5450000000000         5.961780631071253E-009
   29.7350000000000         6.036332528607653E-009
   29.9250000000000         6.111004611235362E-009
   30.1150000000000         6.185794846998439E-009
   30.3050000000000         6.260691698857989E-009
   30.4950000000000         6.335714188599969E-009
   30.6850000000000         6.410877250769113E-009
   30.8750000000000         6.486216755382737E-009
   31.0650000000000         6.561819582702166E-009
   31.2550000000000         6.637755652206241E-009
   31.4450000000000         6.714093338285674E-009
   31.6350000000000         6.790901874028392E-009
   31.8250000000000         6.868244406026591E-009
   32.0150000000000         6.946185111433830E-009
   32.2050000000000         7.024828485544006E-009
   32.3950000000000         7.104251609932061E-009
   32.5850000000000         7.184454757484226E-009
   32.7750000000000         7.265490899078682E-009
   32.9650000000000         7.347378002403174E-009
   33.1550000000000         7.430166816301949E-009
   33.3450000000000         7.513871786420542E-009
   33.5350000000000         7.598518553615683E-009
   33.7250000000000         7.684128282400494E-009
   33.9150000000000         7.770668933678752E-009
   34.1050000000000         7.858110464848588E-009
   34.2950000000000         7.946437321587034E-009
   34.4850000000000         8.035619052325256E-009
   34.6750000000000         8.125603803842671E-009
   34.8650000000000         8.216339731063510E-009
   35.0550000000000         8.307740232421512E-009
   35.2450000000000         8.399727011826487E-009
   35.4350000000000         8.492152854258123E-009
   35.6250000000000         8.584924877850665E-009
   35.8150000000000         8.678002550827579E-009
   36.0050000000000         8.771363515375598E-009
   36.1950000000000         8.864993131879623E-009
   36.3850000000000         8.958813822357773E-009
   36.5750000000000         9.052795695442554E-009
   36.7650000000000         9.146920080130578E-009
   36.9550000000000         9.241187887652803E-009
   37.1450000000000         9.335609587312875E-009
   37.3350000000000         9.430176976230309E-009
   37.5250000000000         9.524862032667582E-009
   37.7150000000000         9.619650784601148E-009
   37.9050000000000         9.714549799233326E-009
   38.0950000000000         9.809598697034370E-009
   38.2850000000000         9.904865975018401E-009
   38.4750000000000         1.000040223974657E-008
   38.6650000000000         1.009622970785488E-008
   38.8550000000000         1.019238988804066E-008
   39.0450000000000         1.028893418352519E-008
   39.2350000000000         1.038591992059964E-008
   39.4250000000000         1.048341948586451E-008
   39.6150000000000         1.058149275804411E-008
   39.8050000000000         1.068016669537889E-008
   39.9950000000000         1.077940451371569E-008
   40.1850000000000         1.087922167736731E-008
   40.3750000000000         1.097963663872812E-008
   40.5650000000000         1.108067842089251E-008
   40.7550000000000         1.118234137254103E-008
   40.9450000000000         1.128458695223633E-008
   41.1350000000000         1.138738664934244E-008
   41.3250000000000         1.149071204078077E-008
   41.5150000000000         1.159455292470165E-008
   41.7050000000000         1.169887927748301E-008
   41.8950000000000         1.180367340229109E-008
   42.0850000000000         1.190896268457982E-008
   42.2750000000000         1.201469612131275E-008
   42.4650000000000         1.212085422382208E-008
   42.6550000000000         1.222744826838024E-008
   42.8450000000000         1.233456567036281E-008
   43.0350000000000         1.244221334116501E-008
   43.2250000000000         1.255033763054712E-008
   43.4150000000000         1.265892843610115E-008
   43.6050000000000         1.276798435326913E-008
   43.7950000000000         1.287747743468140E-008
   43.9850000000000         1.298743571996614E-008
   44.1750000000000         1.309786904805533E-008
   44.3650000000000         1.320876545962396E-008
   44.5550000000000         1.332010374630454E-008
   44.7450000000000         1.343183909266525E-008
   44.9350000000000         1.354400178972982E-008
   45.1250000000000         1.365660401552586E-008
   45.3150000000000         1.376969757660928E-008
   45.5050000000000         1.388330048969671E-008
   45.6950000000000         1.399742939065134E-008
   45.8850000000000         1.411211313235931E-008
   46.0750000000000         1.422735152405643E-008
   46.2650000000000         1.434323031279931E-008
   46.4550000000000         1.445981018198778E-008
   46.6450000000000         1.457712250500987E-008
   46.8350000000000         1.469512592146685E-008
   47.0250000000000         1.481380553156184E-008
   47.2150000000000         1.493315899155539E-008
   47.4050000000000         1.505314664751032E-008
   47.5950000000000         1.517375152989429E-008
   47.7850000000000         1.529490038316952E-008
   47.9750000000000         1.541655904428318E-008
   48.1650000000000         1.553861819170767E-008
   48.3550000000000         1.566100224671385E-008
   48.5450000000000         1.578376509115491E-008
   48.7350000000000         1.590689293876493E-008
   48.9250000000000         1.603034423109794E-008
   49.1150000000000         1.615405470424682E-008
   49.3050000000000         1.627799420495633E-008
   49.4950000000000         1.640212430038276E-008
   49.6850000000000         1.652645652348842E-008
   49.8750000000000         1.665102580603290E-008
   50.0650000000000         1.677577779045447E-008
   50.2550000000000         1.690060167992534E-008
   50.4450000000000         1.702544322541462E-008
   50.6350000000000         1.715034419160962E-008
   50.8250000000000         1.727525285002061E-008
   51.0150000000000         1.740022762633854E-008
   51.2050000000000         1.752525376016189E-008
   51.3950000000000         1.765037093711985E-008
   51.5850000000000         1.777557817544324E-008
   51.7750000000000         1.790097456236321E-008
   51.9650000000000         1.802666834847044E-008
   52.1550000000000         1.815279799773572E-008
   52.3450000000000         1.827947792468442E-008
   52.5350000000000         1.840677947558463E-008
   52.7250000000000         1.853477363262808E-008
   52.9150000000000         1.866350474447299E-008
   53.1050000000000         1.879306324928262E-008
   53.2950000000000         1.892354591475603E-008
   53.4850000000000         1.905499469875655E-008
   53.6750000000000         1.918741253341864E-008
   53.8650000000000         1.932082116727534E-008
   54.0550000000000         1.945518435251496E-008
   54.2450000000000         1.959048540411860E-008
   54.4350000000000         1.972674422181318E-008
   54.6250000000000         1.986396547197004E-008
   54.8150000000000         2.000216945477980E-008
   55.0050000000000         2.014127021682755E-008
   55.1950000000000         2.028121862659637E-008
   55.3850000000000         2.042200175325161E-008
   55.5750000000000         2.056362384081683E-008
   55.7650000000000         2.070608205998338E-008
   55.9550000000000         2.084932028420211E-008
   56.1450000000000         2.099325655855342E-008
   56.3350000000000         2.113780035559147E-008
   56.5250000000000         2.128287939259383E-008
   56.7150000000000         2.142837283338834E-008
   56.9050000000000         2.157422404509692E-008
   57.0950000000000         2.172035947078540E-008
   57.2850000000000         2.186668542910215E-008
   57.4750000000000         2.201311787580582E-008
   57.6650000000000         2.215955072428594E-008
   57.8550000000000         2.230595739604315E-008
   58.0450000000000         2.245231448343943E-008
   58.2350000000000         2.259856229727498E-008
   58.4250000000000         2.274464850720422E-008
   58.6150000000000         2.289054628404247E-008
   58.8050000000000         2.303624422717509E-008
   58.9950000000000         2.318179247005953E-008
   59.1850000000000         2.332725178896339E-008
   59.3750000000000         2.347265401549383E-008
   59.5650000000000         2.361798367574931E-008
   59.7550000000000         2.376320706348919E-008
   59.9450000000000         2.390834216770628E-008
   60.1350000000000         2.405341594475661E-008
   60.3250000000000         2.419849945076580E-008
   60.5150000000000         2.434360521026357E-008
   60.7050000000000         2.448880682228600E-008
   60.8950000000000         2.463411859830531E-008
   61.0850000000000         2.477959184761612E-008
   61.2750000000000         2.492532108852676E-008
   61.4650000000000         2.507146054427749E-008
   61.6550000000000         2.521810697952624E-008
   61.8450000000000         2.536537982689572E-008
   62.0350000000000         2.551334748644373E-008
   62.2250000000000         2.566203671633179E-008
   62.4150000000000         2.581154418861097E-008
   62.6050000000000         2.596193667079607E-008
   62.7950000000000         2.611327922788939E-008
   62.9850000000000         2.626555514375963E-008
   63.1750000000000         2.641872148337895E-008
   63.3650000000000         2.657272469426198E-008
   63.5550000000000         2.672752590951163E-008
   63.7450000000000         2.688312875265566E-008
   63.9350000000000         2.703950731919253E-008
   64.1250000000000         2.719662344176591E-008
   64.3150000000000         2.735438632203925E-008
   64.5050000000000         2.751270904959993E-008
   64.6950000000000         2.767153865554125E-008
   64.8850000000000         2.783086155712674E-008
   65.0750000000000         2.799065701110660E-008
   65.2650000000000         2.815085042418790E-008
   65.4550000000000         2.831134936675977E-008
   65.6450000000000         2.847205018028877E-008
   65.8350000000000         2.863289892249745E-008
   66.0250000000000         2.879386689976166E-008
   66.2150000000000         2.895493703717355E-008
   66.4050000000000         2.911607660514431E-008
   66.5950000000000         2.927724237762239E-008
   66.7850000000000         2.943837652489299E-008
   66.9750000000000         2.959947208106129E-008
   67.1650000000000         2.976054697561567E-008
   67.3550000000000         2.992165715069792E-008
   67.5450000000000         3.008282542297133E-008
   67.7350000000000         3.024407310974198E-008
   67.9250000000000         3.040540803762126E-008
   68.1150000000000         3.056687728715761E-008
   68.3050000000000         3.072855895317675E-008
   68.4950000000000         3.089055967820751E-008
   68.6850000000000         3.105296602469329E-008
   68.8750000000000         3.121583179207658E-008
   69.0650000000000         3.137918078579923E-008
   69.2550000000000         3.154305631453588E-008
   69.4450000000000         3.170751591980731E-008
   69.6350000000000         3.187261065114528E-008
   69.8250000000000         3.203838691254133E-008
   70.0150000000000         3.220483701610026E-008
   70.2050000000000         3.237192713222326E-008
   70.3950000000000         3.253963886380278E-008
   70.5850000000000         3.270797138808610E-008
   70.7750000000000         3.287694481564647E-008
   70.9650000000000         3.304653843015170E-008
   71.1550000000000         3.321673365292660E-008
   71.3450000000000         3.338751549937241E-008
   71.5350000000000         3.355881762104689E-008
   71.7250000000000         3.373065164828245E-008
   71.9150000000000         3.390302904905597E-008
   72.1050000000000         3.407595885704353E-008
   72.2950000000000         3.424942898818410E-008
   72.4850000000000         3.442337930907479E-008
   72.6750000000000         3.459774679863269E-008
   72.8650000000000         3.477250623363527E-008
   73.0550000000000         3.494765737685200E-008
   73.2450000000000         3.512320756257426E-008
   73.4350000000000         3.529912105816934E-008
   73.6250000000000         3.547535366965140E-008
   73.8150000000000         3.565187783622095E-008
   74.0050000000000         3.582872415273566E-008
   74.1950000000000         3.600594643707836E-008
   74.3850000000000         3.618354203787395E-008
   74.5750000000000         3.636159976194450E-008
   74.7650000000000         3.654012664232626E-008
   74.9550000000000         3.671911594085572E-008
   75.1450000000000         3.689852070159141E-008
   75.3350000000000         3.707838131836426E-008
   75.5250000000000         3.725874616008959E-008
   75.7150000000000         3.743966090228096E-008
   75.9050000000000         3.762109359320909E-008
   76.0950000000000         3.780299430624189E-008
   76.2850000000000         3.798534764905174E-008
   76.4750000000000         3.816815467067384E-008
   76.6650000000000         3.835143243849409E-008
   76.8550000000000         3.853519420716039E-008
   77.0450000000000         3.871937124419697E-008
   77.2350000000000         3.890389205830978E-008
   77.4250000000000         3.908871898511825E-008
   77.6150000000000         3.927381541237609E-008
   77.8050000000000         3.945916677505548E-008
   77.9950000000000         3.964475970718023E-008
   78.1850000000000         3.983051290594391E-008
   78.3750000000000         4.001635658037842E-008
   78.5650000000000         4.020226247160219E-008
   78.7550000000000         4.038817660928884E-008
   78.9450000000000         4.057414445124084E-008
   79.1350000000000         4.076014125557381E-008
   79.3250000000000         4.094614605608538E-008
   79.5150000000000         4.113213365396050E-008
   79.7050000000000         4.131809880776229E-008
   79.8950000000000         4.150406626924982E-008
   80.0850000000000         4.169001803850434E-008
   80.2750000000000         4.187599824778479E-008
   80.4650000000000         4.206204645742479E-008
   80.6550000000000         4.224818032664821E-008
   80.8450000000000         4.243436274089935E-008
   81.0350000000000         4.262065803497236E-008
   81.2250000000000         4.280716463921124E-008
   81.4150000000000         4.299398627595332E-008
   81.6050000000000         4.318115846792714E-008
   81.7950000000000         4.336873113019238E-008
   81.9850000000000         4.355673205326623E-008
   82.1750000000000         4.374522415476860E-008
   82.3650000000000         4.393431131891352E-008
   82.5550000000000         4.412405268992369E-008
   82.7450000000000         4.431450115968503E-008
   82.9350000000000         4.450568135464788E-008
   83.1250000000000         4.469759790347080E-008
   83.3150000000000         4.489028192148400E-008
   83.5050000000000         4.508377793450423E-008
   83.6950000000000         4.527817458515830E-008
   83.8850000000000         4.547345229712723E-008
   84.0750000000000         4.566957931676639E-008
   84.2650000000000         4.586655236264972E-008
   84.4550000000000         4.606437443971202E-008
   84.6450000000000         4.626305979364043E-008
   84.8350000000000         4.646263718081501E-008
   85.0250000000000         4.666310710721853E-008
   85.2150000000000         4.686442849794291E-008
   85.4050000000000         4.706653926660655E-008
   85.5950000000000         4.726936934119881E-008
   85.7850000000000         4.747290710070394E-008
   85.9750000000000         4.767709496408168E-008
   86.1650000000000         4.788186432656652E-008
   86.3550000000000         4.808712784754547E-008
   86.5450000000000         4.829277936786401E-008
   86.7350000000000         4.849873164069086E-008
   86.9250000000000         4.870493173084155E-008
   87.1150000000000         4.891135720974519E-008
   87.3050000000000         4.911793093296514E-008
   87.4950000000000         4.932455401322200E-008
   87.6850000000000         4.953111782912663E-008
   87.8750000000000         4.973754064077637E-008
   88.0650000000000         4.994381625694277E-008
   88.2550000000000         5.014990163009141E-008
   88.4450000000000         5.035581362032479E-008
   88.6350000000000         5.056154037735984E-008
   88.8250000000000         5.076707863681523E-008
   89.0150000000000         5.097245753423256E-008
   89.2050000000000         5.117771964417360E-008
   89.3950000000000         5.138296278351752E-008
   89.5850000000000         5.158825727087323E-008
   89.7750000000000         5.179369878392499E-008
   89.9650000000000         5.199934588086577E-008
   90.1550000000000         5.220524893160333E-008
   90.3450000000000         5.241149273133365E-008
   90.5350000000000         5.261815832473244E-008
   90.7250000000000         5.282536126645987E-008
   90.9150000000000         5.303319447453629E-008
   91.1050000000000         5.324171768451478E-008
   91.2950000000000         5.345097981346179E-008
   91.4850000000000         5.366105238067269E-008
   91.6750000000000         5.387203361538000E-008
   91.8650000000000         5.408399076111739E-008
   92.0550000000000         5.429697702872910E-008
   92.2450000000000         5.451098926784171E-008
   92.4350000000000         5.472599669503882E-008
   92.6250000000000         5.494197709415042E-008
   92.8150000000000         5.515892532953380E-008
   93.0050000000000         5.537681113912518E-008
   93.1950000000000         5.559560732644338E-008
   93.3850000000000         5.581522995023639E-008
   93.5750000000000         5.603553939749548E-008
   93.7650000000000         5.625640577803044E-008
   93.9550000000000         5.647781609804723E-008
   94.1450000000000         5.669962245513032E-008
   94.3350000000000         5.692176260176337E-008
   94.5250000000000         5.714418605452260E-008
   94.7150000000000         5.736673865667589E-008
   94.9050000000000         5.758932686227855E-008
   95.0950000000000         5.781189562582981E-008
   95.2850000000000         5.803435437224747E-008
   95.4750000000000         5.825663897236969E-008
   95.6650000000000         5.847868593681534E-008
   95.8550000000000         5.870041639754783E-008
   96.0450000000000         5.892180171188629E-008
   96.2350000000000         5.914283935083862E-008
   96.4250000000000         5.936355303697828E-008
   96.6150000000000         5.958398469868174E-008
   96.8050000000000         5.980416137133286E-008
   96.9950000000000         6.002410682539831E-008
   97.1850000000000         6.024384631271554E-008
   97.3750000000000         6.046341057389228E-008
   97.5650000000000         6.068285395564124E-008
   97.7550000000000         6.090221807672417E-008
   97.9450000000000         6.112155564186600E-008
   98.1350000000000         6.134090169181326E-008
   98.3250000000000         6.156027828853878E-008
   98.5150000000000         6.177974992787542E-008
   98.7050000000000         6.199940068420363E-008
   98.8950000000000         6.221931108784980E-008
   99.0850000000000         6.243954536657791E-008
   99.2750000000000         6.266014955268089E-008
   99.4650000000000         6.288116484302086E-008
   99.6550000000000         6.310267067925875E-008
   99.8450000000000         6.332466555120073E-008
   100.035000000000         6.354724759610112E-008
   100.225000000000         6.377040507672620E-008
   100.415000000000         6.399415697395555E-008
   100.605000000000         6.421851588604441E-008
   100.795000000000         6.444349021089387E-008
   100.985000000000         6.466909467689690E-008
   101.175000000000         6.489536245862685E-008
   101.365000000000         6.512225552528309E-008
   101.555000000000         6.534976320614368E-008
   101.745000000000         6.557788167815988E-008
   101.935000000000         6.580658259216977E-008
   102.125000000000         6.603582457809639E-008
   102.315000000000         6.626562651299920E-008
   102.505000000000         6.649595661752097E-008
   102.695000000000         6.672673371525385E-008
   102.885000000000         6.695795018173042E-008
   103.075000000000         6.718955530623600E-008
   103.265000000000         6.742147399441816E-008
   103.455000000000         6.765371315583267E-008
   103.645000000000         6.788625295383452E-008
   103.835000000000         6.811902605282832E-008
   104.025000000000         6.835199269130078E-008
   104.215000000000         6.858510541634973E-008
   104.405000000000         6.881833532030277E-008
   104.595000000000         6.905166295376906E-008
   104.785000000000         6.928506375813504E-008
   104.975000000000         6.951852089292152E-008
   105.165000000000         6.975202954325603E-008
   105.355000000000         6.998560151657029E-008
   105.545000000000         7.021925981332001E-008
   105.735000000000         7.045303509489117E-008
   105.925000000000         7.068696019656727E-008
   106.115000000000         7.092105870950860E-008
   106.305000000000         7.115535692051792E-008
   106.495000000000         7.138986530712437E-008
   106.685000000000         7.162459600123950E-008
   106.875000000000         7.185954225749823E-008
   107.065000000000         7.209468614166133E-008
   107.255000000000         7.233000015224548E-008
   107.445000000000         7.256545935661466E-008
   107.635000000000         7.280104429951585E-008
   107.825000000000         7.303674511656344E-008
   108.015000000000         7.327256017417323E-008
   108.205000000000         7.350849297957310E-008
   108.395000000000         7.374455189338749E-008
   108.585000000000         7.398075104645386E-008
   108.775000000000         7.421711157573974E-008
   108.965000000000         7.445365040489950E-008
   109.155000000000         7.469038347021286E-008
   109.345000000000         7.492733793653443E-008
   109.535000000000         7.516455949791940E-008
   109.725000000000         7.540203843729948E-008
   109.915000000000         7.563977186622212E-008
   110.105000000000         7.587774972085859E-008