  -1.42500000000000         0.000000000000000E+000
  -1.23500000000000        -2.489227489357369E-020
  -1.04500000000000        -5.726239893346732E-017
 -0.855000000000000        -5.000367744084088E-016
 -0.665000000000000        -2.733611968982141E-015
 -0.475000000000000        -1.165415358269728E-014
 -0.285000000000000        -4.181781679213374E-014
 -9.499999999999975E-002   -1.292030093585675E-013
  9.500000000000020E-002   -3.470855154569474E-013
  0.285000000000000        -8.278983398307528E-013
  0.475000000000000        -1.767815294662941E-012
  0.665000000000000        -3.436535456417560E-012
  0.855000000000000        -6.148668110747374E-012
   1.04500000000000        -1.023862792935594E-011
   1.23500000000000        -1.601943729300201E-011
   1.42500000000000        -2.377375157879645E-011
   1.61500000000000        -3.364114777615205E-011
   1.80500000000000        -4.575146679457738E-011
   1.99500000000000        -6.026938899306880E-011
   2.18500000000000        -7.708526072244316E-011
   2.37500000000000        -9.618258920697501E-011
   2.56500000000000        -1.174417959698059E-010
   2.75500000000000        -1.405552377996129E-010
   2.94500000000000        -1.655463463579259E-010
   3.13500000000000        -1.922581201063987E-010
   3.32500000000000        -2.205015080376440E-010
   3.51500000000000        -2.500834944373623E-010
   3.70500000000000        -2.810595152762938E-010
   3.89500000000000        -3.131634787765126E-010
   4.08500000000000        -3.463199655955237E-010
   4.27500000000000        -3.805555484615406E-010
   4.46500000000000        -4.159322089099165E-010
   4.65500000000000        -4.526560927089431E-010
   4.84500000000000        -4.908106503189005E-010
   5.03500000000000        -5.303723139891567E-010
   5.22500000000000        -5.714481388522566E-010
   5.41500000000000        -6.140497249086494E-010
   5.60500000000000        -6.580516418391194E-010
   5.79500000000000        -7.033445942163708E-010
   5.98500000000000        -7.497837696851477E-010
   6.17500000000000        -7.972209982196104E-010
   6.36500000000000        -8.456494693993961E-010
   6.55500000000000        -8.949422945662655E-010
   6.74500000000000        -9.450925077298470E-010
   6.93500000000000        -9.961752849401640E-010
   7.12500000000000        -1.048356184376180E-009
   7.31500000000000        -1.101856594252839E-009
   7.50500000000000        -1.156970448251811E-009
   7.69500000000000        -1.214011887443491E-009
   7.88500000000000        -1.273316473255076E-009
   8.07500000000000        -1.335165063040844E-009
   8.26500000000000        -1.399822302991467E-009
   8.45500000000000        -1.467455449514533E-009
   8.64500000000000        -1.538177961966443E-009
   8.83500000000000        -1.612079743951472E-009
   9.02500000000000        -1.689063662071226E-009
   9.21500000000000        -1.768876469107257E-009
   9.40500000000000        -1.851199376693346E-009
   9.59500000000000        -1.935622268267369E-009
   9.78500000000000        -2.021713116246272E-009
   9.97500000000000        -2.109032048927972E-009
   10.1650000000000        -2.197167619000458E-009
   10.3550000000000        -2.285751367289491E-009
   10.5450000000000        -2.374584591171289E-009
   10.7350000000000        -2.463544781762716E-009
   10.9250000000000        -2.552426578702746E-009
   11.1150000000000        -2.641265787395608E-009
   11.3050000000000        -2.730209981884808E-009
   11.4950000000000        -2.819492993291518E-009
   11.6850000000000        -2.909167790670196E-009
   11.8750000000000        -2.999399157744906E-009
   12.0650000000000        -3.090424760240782E-009
   12.2550000000000        -3.182454024866687E-009
   12.4450000000000        -3.275624539621796E-009
   12.6350000000000        -3.370190493223027E-009
   12.8250000000000        -3.466094579912024E-009
   13.0150000000000        -3.563379576265669E-009
   13.2050000000000        -3.661962028843919E-009
   13.3950000000000        -3.761737936651279E-009
   13.5850000000000        -3.862604697080723E-009
   13.7750000000000        -3.964342662596971E-009
   13.9650000000000        -4.066827616649510E-009
   14.1550000000000        -4.169933585476194E-009
   14.3450000000000        -4.273578090996049E-009
   14.5350000000000        -4.377763957873607E-009
   14.7250000000000        -4.482642021445364E-009
   14.9150000000000        -4.588253748643043E-009
   15.1050000000000        -4.694729305798895E-009
   15.2950000000000        -4.802355125473094E-009
   15.4850000000000        -4.911253587439960E-009
   15.6750000000000        -5.021606379137535E-009
   15.8650000000000        -5.133544226003841E-009
   16.0550000000000        -5.247192437521406E-009
   16.2450000000000        -5.362649979074419E-009
   16.4350000000000        -5.480014304060240E-009
   16.6250000000000        -5.599381513831707E-009
   16.8150000000000        -5.720826921488456E-009
   17.0050000000000        -5.844377019449458E-009
   17.1950000000000        -5.970064254247271E-009
   17.3850000000000        -6.097892207459072E-009
   17.5750000000000        -6.227853202922293E-009
   17.7650000000000        -6.359901743102418E-009
   17.9550000000000        -6.494062160734754E-009
   18.1450000000000        -6.630325582998535E-009
   18.3350000000000        -6.768702834674953E-009
   18.5250000000000        -6.909213408866021E-009
   18.7150000000000        -7.051911355781169E-009
   18.9050000000000        -7.196943891021784E-009
   19.0950000000000        -7.344277176126825E-009
   19.2850000000000        -7.493929969194067E-009
   19.4750000000000        -7.646085649909534E-009
   19.6650000000000        -7.800779779580144E-009
   19.8550000000000        -7.957815270745403E-009
   20.0450000000000        -8.117130649825586E-009
   20.2350000000000        -8.278660505956675E-009
   20.4250000000000        -8.442255888130702E-009
   20.6150000000000        -8.607753342056575E-009
   20.8050000000000        -8.774897297202251E-009
   20.9950000000000        -8.943603997112408E-009
   21.1850000000000        -9.113752382497133E-009
   21.3750000000000        -9.285200533468864E-009
   21.5650000000000        -9.457967362277972E-009
   21.7550000000000        -9.632115403639732E-009
   21.9450000000000        -9.807780396805025E-009
   22.1350000000000        -9.985170130824400E-009
   22.3250000000000        -1.016448720695482E-008
   22.5150000000000        -1.034594370299451E-008
   22.7050000000000        -1.052984707768349E-008
   22.8950000000000        -1.071651972086239E-008
   23.0850000000000        -1.090627030221346E-008
   23.2750000000000        -1.109940529360271E-008
   23.4650000000000        -1.129614647514954E-008
   23.6550000000000        -1.149663130934453E-008
   23.8450000000000        -1.170097747536748E-008
   24.0350000000000        -1.190927139100942E-008
   24.2250000000000        -1.212145823373757E-008
   24.4150000000000        -1.233753737501203E-008
   24.6050000000000        -1.255744088234609E-008
   24.7950000000000        -1.278092190406586E-008
   24.9850000000000        -1.300772376839766E-008
   25.1750000000000        -1.323758932207372E-008
   25.3650000000000        -1.347025244324971E-008
   25.5550000000000        -1.370532727572868E-008
   25.7450000000000        -1.394268727753336E-008
   25.9350000000000        -1.418181460835990E-008
   26.1250000000000        -1.442239373909522E-008
   26.3150000000000        -1.466423766387175E-008
   26.5050000000000        -1.490745385273211E-008
   26.6950000000000        -1.515203939578384E-008
   26.8850000000000        -1.539802126135412E-008
   27.0750000000000        -1.564557157479590E-008
   27.2650000000000        -1.589490289632581E-008
   27.4550000000000        -1.614610818146210E-008
   27.6450000000000        -1.639934990959726E-008
   27.8350000000000        -1.665473422963635E-008
   28.0250000000000        -1.691234833679928E-008
   28.2150000000000        -1.717214369455802E-008
   28.4050000000000        -1.743401929147523E-008
   28.5950000000000        -1.769774372823493E-008
   28.7850000000000        -1.796310204226264E-008
   28.9750000000000        -1.822975936982524E-008
   29.1650000000000        -1.849731766181666E-008
   29.3550000000000        -1.876532959884636E-008
   29.5450000000000        -1.903329448040023E-008
   29.7350000000000        -1.930067208842251E-008
   29.9250000000000        -1.956692495488206E-008
   30.1150000000000        -1.983154547254427E-008
   30.3050000000000        -2.009410553312902E-008
   30.4950000000000        -2.035428607073596E-008
   30.6850000000000        -2.061191171061677E-008
   30.8750000000000        -2.086700342685630E-008
   31.0650000000000        -2.111967986831368E-008
   31.2550000000000        -2.137023673939136E-008
   31.4450000000000        -2.161912344619423E-008
   31.6350000000000        -2.186685954471038E-008
   31.8250000000000        -2.211405134835480E-008
   32.0150000000000        -2.236131865933108E-008
   32.2050000000000        -2.260926884829990E-008
   32.3950000000000        -2.285842423902725E-008
   32.5850000000000        -2.310921842857444E-008
   32.7750000000000        -2.336198175254614E-008
   32.9650000000000        -2.361679115930474E-008
   33.1550000000000        -2.387382907694106E-008
   33.3450000000000        -2.413307791336268E-008
   33.5350000000000        -2.439444283490419E-008
   33.7250000000000        -2.465779953971155E-008
   33.9150000000000        -2.492259271744083E-008
   34.1050000000000        -2.518877573995731E-008
   34.2950000000000        -2.545592745940791E-008
   34.4850000000000        -2.572376388985920E-008
   34.6750000000000        -2.599233403374483E-008
   34.8650000000000        -2.626155933642035E-008
   35.0550000000000        -2.653139003167227E-008
   35.2450000000000        -2.680208756858116E-008
   35.4350000000000        -2.707391593277437E-008
   35.6250000000000        -2.734707969133266E-008
   35.8150000000000        -2.762186709462952E-008
   36.0050000000000        -2.789853995420828E-008
   36.1950000000000        -2.817733999531666E-008
   36.3850000000000        -2.845856924958108E-008
   36.5750000000000        -2.874224937466234E-008
   36.7650000000000        -2.902836271064291E-008
   36.9550000000000        -2.931684882962510E-008
   37.1450000000000        -2.960768245265556E-008
   37.3350000000000        -2.990068035257248E-008
   37.5250000000000        -3.019575676340801E-008
   37.7150000000000        -3.049287749894329E-008
   37.9050000000000        -3.079194928431079E-008
   38.0950000000000        -3.109291352542557E-008
   38.2850000000000        -3.139574464287357E-008
   38.4750000000000        -3.170054070646136E-008
   38.6650000000000        -3.200761318606849E-008
   38.8550000000000        -3.231732319001637E-008
   39.0450000000000        -3.263008643599311E-008
   39.2350000000000        -3.294639127680440E-008
   39.4250000000000        -3.326676695457776E-008
   39.6150000000000        -3.359171589320917E-008
   39.8050000000000        -3.392171256626175E-008
   39.9950000000000        -3.425716538320444E-008
   40.1850000000000        -3.459840829977555E-008
   40.3750000000000        -3.494566858940731E-008
   40.5650000000000        -3.529886618924848E-008
   40.7550000000000        -3.565783521358931E-008
   40.9450000000000        -3.602244623630196E-008
   41.1350000000000        -3.639226808829988E-008
   41.3250000000000        -3.676692971029874E-008
   41.5150000000000        -3.714604222843153E-008
   41.7050000000000        -3.752908249021535E-008
   41.8950000000000        -3.791551107340271E-008
   42.0850000000000        -3.830473514574011E-008
   42.2750000000000        -3.869624311239391E-008
   42.4650000000000        -3.908953071035522E-008
   42.6550000000000        -3.948410498973879E-008
   42.8450000000000        -3.987949537788536E-008
   43.0350000000000        -4.027525856480116E-008
   43.2250000000000        -4.067105493610915E-008
   43.4150000000000        -4.106660424971192E-008
   43.6050000000000        -4.146169455819752E-008
   43.7950000000000        -4.185606822896541E-008
   43.9850000000000        -4.224982689771736E-008
   44.1750000000000        -4.264309343757756E-008
   44.3650000000000        -4.303588455783233E-008
   44.5550000000000        -4.342858898983450E-008
   44.7450000000000        -4.382153708860944E-008
   44.9350000000000        -4.421522170376682E-008
   45.1250000000000        -4.461013216294284E-008
   45.3150000000000        -4.500673964102428E-008
   45.5050000000000        -4.540556553286076E-008
   45.6950000000000        -4.580704624298106E-008
   45.8850000000000        -4.621153442211435E-008
   46.0750000000000        -4.661930803014926E-008
   46.2650000000000        -4.703046229051402E-008
   46.4550000000000        -4.744513831871465E-008
   46.6450000000000        -4.786331060956924E-008
   46.8350000000000        -4.828470213101441E-008
   47.0250000000000        -4.870905739181176E-008
   47.2150000000000        -4.913599644148316E-008
   47.4050000000000        -4.956504988350548E-008
   47.5950000000000        -4.999572956012344E-008
   47.7850000000000        -5.042752293497692E-008
   47.9750000000000        -5.085994535249723E-008
   48.1650000000000        -5.129257417201511E-008
   48.3550000000000        -5.172500667326118E-008
   48.5450000000000        -5.215692539526713E-008
   48.7350000000000        -5.258806704391150E-008
   48.9250000000000        -5.301834715669362E-008
   49.1150000000000        -5.344796976537874E-008
   49.3050000000000        -5.387704954936181E-008
   49.4950000000000        -5.430593559615053E-008
   49.6850000000000        -5.473501427423209E-008
   49.8750000000000        -5.516479300728660E-008
   50.0650000000000        -5.559585344031203E-008
   50.2550000000000        -5.602882867173998E-008
   50.4450000000000        -5.646430275963341E-008
   50.6350000000000        -5.690279722836619E-008
   50.8250000000000        -5.734458582358232E-008
   51.0150000000000        -5.779004210452604E-008
   51.2050000000000        -5.823931306767804E-008
   51.3950000000000        -5.869228185202760E-008
   51.5850000000000        -5.914864199738339E-008
   51.7750000000000        -5.960795832175979E-008
   51.9650000000000        -6.006976455046299E-008
   52.1550000000000        -6.053352848511741E-008
   52.3450000000000        -6.099872204178687E-008
   52.5350000000000        -6.146484290534795E-008
   52.7250000000000        -6.193150280231611E-008
   52.9150000000000        -6.239841713277458E-008
   53.1050000000000        -6.286544230121405E-008
   53.2950000000000        -6.333256897826912E-008
   53.4850000000000        -6.379983784771558E-008
   53.6750000000000        -6.426753279368530E-008
   53.8650000000000        -6.473592014701136E-008
   54.0550000000000        -6.520532191890076E-008
   54.2450000000000        -6.567608662669906E-008
   54.4350000000000        -6.614861733365581E-008
   54.6250000000000        -6.662333202518528E-008
   54.8150000000000        -6.710063334652301E-008
   55.0050000000000        -6.758087564916123E-008
   55.1950000000000        -6.806439783895500E-008
   55.3850000000000        -6.855140550935363E-008
   55.5750000000000        -6.904202825008796E-008
   55.7650000000000        -6.953630123367245E-008
   55.9550000000000        -7.003412781318370E-008
   56.1450000000000        -7.053530967256765E-008
   56.3350000000000        -7.103952208762576E-008
   56.5250000000000        -7.154644043140605E-008
   56.7150000000000        -7.205573930273810E-008
   56.9050000000000        -7.256709506086466E-008
   57.0950000000000        -7.308024969283524E-008
   57.2850000000000        -7.359495131481538E-008
   57.4750000000000        -7.411104138730538E-008
   57.6650000000000        -7.462838143060589E-008
   57.8550000000000        -7.514689383457686E-008
   58.0450000000000        -7.566661700452507E-008
   58.2350000000000        -7.618747577290518E-008
   58.4250000000000        -7.670950987256739E-008
   58.6150000000000        -7.723297467175895E-008
   58.8050000000000        -7.775778138405993E-008
   58.9950000000000        -7.828408485853441E-008
   59.1850000000000        -7.881203086962234E-008
   59.3750000000000        -7.934188161628995E-008
   59.5650000000000        -7.987361920391873E-008
   59.7550000000000        -8.040720553557003E-008
   59.9450000000000        -8.094260204749856E-008
   60.1350000000000        -8.147975687300589E-008
   60.3250000000000        -8.201861300974096E-008
   60.5150000000000        -8.255897693877230E-008
   60.7050000000000        -8.310051904446417E-008
   60.8950000000000        -8.364311845216050E-008
   61.0850000000000        -8.418655970563632E-008
   61.2750000000000        -8.473065018049914E-008
   61.4650000000000        -8.527515984303226E-008
   61.6550000000000        -8.581987114063790E-008
   61.8450000000000        -8.636458704891793E-008
   62.0350000000000        -8.690905690450991E-008
   62.2250000000000        -8.745306742190061E-008
   62.4150000000000        -8.799645644844558E-008
   62.6050000000000        -8.853902979766066E-008
   62.7950000000000        -8.908064139997179E-008
   62.9850000000000        -8.962136169189716E-008
   63.1750000000000        -9.016126134506133E-008
   63.3650000000000        -9.070034276111688E-008
   63.5550000000000        -9.123881056236574E-008
   63.7450000000000        -9.177699138520369E-008
   63.9350000000000        -9.231510461262977E-008
   64.1250000000000        -9.285331497472054E-008
   64.3150000000000        -9.339186094130949E-008
   64.5050000000000        -9.393095855215692E-008
   64.6950000000000        -9.447084661303493E-008
   64.8850000000000        -9.501174163121961E-008
   65.0750000000000        -9.555383221239859E-008
   65.2650000000000        -9.609732078463817E-008
   65.4550000000000        -9.664235810833855E-008
   65.6450000000000        -9.718898592239562E-008
   65.8350000000000        -9.773735712641638E-008
   66.0250000000000        -9.828761333493984E-008
   66.2150000000000        -9.883987712212494E-008
   66.4050000000000        -9.939397161136969E-008
   66.5950000000000        -9.994983634973038E-008
   66.7850000000000        -1.005074811714050E-007
   66.9750000000000        -1.010669392032771E-007
   67.1650000000000        -1.016280715087054E-007
   67.3550000000000        -1.021907675832884E-007
   67.5450000000000        -1.027548900849395E-007
   67.7350000000000        -1.033204432258932E-007
   67.9250000000000        -1.038872893448010E-007
   68.1150000000000        -1.044552283959667E-007
   68.3050000000000        -1.050243080399280E-007
   68.4950000000000        -1.055944612036749E-007
   68.6850000000000        -1.061656936822475E-007
   68.8750000000000        -1.067380802032967E-007
   69.0650000000000        -1.073117148438874E-007
   69.2550000000000        -1.078867235985230E-007
   69.4450000000000        -1.084632565548797E-007
   69.6350000000000        -1.090415305375677E-007
   69.8250000000000        -1.096216573032493E-007
   70.0150000000000        -1.102038980742370E-007
   70.2050000000000        -1.107882782810712E-007
   70.3950000000000        -1.113749781027413E-007
   70.5850000000000        -1.119644455742642E-007
   70.7750000000000        -1.125568290024783E-007
   70.9650000000000        -1.131521033996222E-007
   71.1550000000000        -1.137503954540990E-007
   71.3450000000000        -1.143519267259813E-007
   71.5350000000000        -1.149568111385373E-007
   71.7250000000000        -1.155652156389365E-007
   71.9150000000000        -1.161772684380774E-007
   72.1050000000000        -1.167931882293567E-007
   72.2950000000000        -1.174131256978563E-007
   72.4850000000000        -1.180372809682483E-007
   72.6750000000000        -1.186657848771624E-007
   72.8650000000000        -1.192987827415192E-007
   73.0550000000000        -1.199363746195031E-007
   73.2450000000000        -1.205784283031623E-007
   73.4350000000000        -1.212246110510452E-007
   73.6250000000000        -1.218743341035218E-007
   73.8150000000000        -1.225268973467033E-007
   74.0050000000000        -1.231816501463237E-007
   74.1950000000000        -1.238378271985010E-007
   74.3850000000000        -1.244948193698748E-007
   74.5750000000000        -1.251522499171255E-007
   74.7650000000000        -1.258100151193414E-007
   74.9550000000000        -1.264682836794605E-007
   75.1450000000000        -1.271274215009705E-007
   75.3350000000000        -1.277878979645817E-007
   75.5250000000000        -1.284501536077808E-007
   75.7150000000000        -1.291144165217616E-007
   75.9050000000000        -1.297806775967892E-007
   76.0950000000000        -1.304486081244420E-007
   76.2850000000000        -1.311177612939602E-007
   76.4750000000000        -1.317874871498087E-007
   76.6650000000000        -1.324570640964772E-007
   76.8550000000000        -1.331261232613220E-007
   77.0450000000000        -1.337942594438441E-007
   77.2350000000000        -1.344614341869532E-007
   77.4250000000000        -1.351279585154621E-007
   77.6150000000000        -1.357940953455260E-007
   77.8050000000000        -1.364603156200139E-007
   77.9950000000000        -1.371269635277259E-007
   78.1850000000000        -1.377941900977532E-007
   78.3750000000000        -1.384619055724621E-007
   78.5650000000000        -1.391297101082255E-007
   78.7550000000000        -1.397969111721111E-007
   78.9450000000000        -1.404627229870945E-007
   79.1350000000000        -1.411260872738155E-007
   79.3250000000000        -1.417862484183242E-007
   79.5150000000000        -1.424424094179896E-007
   79.7050000000000        -1.430939068711204E-007
   79.8950000000000        -1.437405722448253E-007
   80.0850000000000        -1.443826730292265E-007
   80.2750000000000        -1.450210833815232E-007
   80.4650000000000        -1.456571254120742E-007
   80.6550000000000        -1.462926848879140E-007
   80.8450000000000        -1.469300731616073E-007
   81.0350000000000        -1.475717708821016E-007
   81.2250000000000        -1.482201225172023E-007
   81.4150000000000        -1.488769230901806E-007
   81.6050000000000        -1.495431537618989E-007
   81.7950000000000        -1.502186735358598E-007
   81.9850000000000        -1.509018891892994E-007
   82.1750000000000        -1.515900921716788E-007
   82.3650000000000        -1.522795388415426E-007
   82.5550000000000        -1.529661733494354E-007
   82.7450000000000        -1.536462881432506E-007
   82.9350000000000        -1.543174744210849E-007
   83.1250000000000        -1.549791234554918E-007
   83.3150000000000        -1.556330493023523E-007
   83.5050000000000        -1.562834160423053E-007
   83.6950000000000        -1.569361896974435E-007
   83.8850000000000        -1.575982868611423E-007
   84.0750000000000        -1.582761928627223E-007
   84.2650000000000        -1.589745202410181E-007
   84.4550000000000        -1.596950608630508E-007
   84.6450000000000        -1.604356254398041E-007
   84.8350000000000        -1.611902489382542E-007
   85.0250000000000        -1.619496902747880E-007
   85.2150000000000        -1.627027442745466E-007
   85.4050000000000        -1.634383264163613E-007
   85.5950000000000        -1.641474107173172E-007
   85.7850000000000        -1.648250144804297E-007
   85.9750000000000        -1.654714900726514E-007
   86.1650000000000        -1.660930391799644E-007
   86.3550000000000        -1.667009628465347E-007
   86.5450000000000        -1.673100965575046E-007
   86.7350000000000        -1.679365765558778E-007
   86.9250000000000        -1.685951194454177E-007
   87.1150000000000        -1.692964889704512E-007
   87.3050000000000        -1.700454155398475E-007
   87.4950000000000        -1.708395963142333E-007
   87.6850000000000        -1.716697939126231E-007
   87.8750000000000        -1.725208570125259E-007
   88.0650000000000        -1.733740168611183E-007
   88.2550000000000        -1.742095047617059E-007
   88.4450000000000        -1.750095796278606E-007
   88.6350000000000        -1.757611529162618E-007
   88.8250000000000        -1.764579469136130E-007
   89.0150000000000        -1.771016215097645E-007
   89.2050000000000        -1.777022489730797E-007
   89.3950000000000        -1.782770121595754E-007
   89.5850000000000        -1.788484923570254E-007
   89.7750000000000        -1.794416556532397E-007
   89.9650000000000        -1.800805310792009E-007
   90.1550000000000        -1.807846896933206E-007
   90.3450000000000        -1.815660540527516E-007
   90.5350000000000        -1.824263595186450E-007
   90.7250000000000        -1.833558652225715E-007
   90.9150000000000        -1.843336120673422E-007
   91.1050000000000        -1.853291865388602E-007
   91.2950000000000        -1.863063289574956E-007
   91.4850000000000        -1.872279349070855E-007
   91.6750000000000        -1.880617830503927E-007
   91.8650000000000        -1.887861142262483E-007
   92.0550000000000        -1.893944406538657E-007
   92.2450000000000        -1.898981039939601E-007
   92.4350000000000        -1.903263730253357E-007
   92.6250000000000        -1.907232899360148E-007
   92.8150000000000        -1.911418353780556E-007
   93.0050000000000        -1.916356405351046E-007
   93.1950000000000        -1.922500673516582E-007
   93.3850000000000        -1.930135261943465E-007
   93.5750000000000        -1.939319357418706E-007
   93.7650000000000        -1.949857006272449E-007
   93.9550000000000        -1.961317118914999E-007
   94.1450000000000        -1.973093125234785E-007
   94.3350000000000        -1.984498107308866E-007
   94.5250000000000        -1.994877943435943E-007
   94.7150000000000        -2.003723867317178E-007
   94.9050000000000        -2.010762597862658E-007
   95.0950000000000        -2.016007552412397E-007
   95.2850000000000        -2.019762097257847E-007
   95.4750000000000        -2.022572443212651E-007
   95.6650000000000        -2.025140186693191E-007
   95.8550000000000        -2.028209208264576E-007
   96.0450000000000        -2.032447690267690E-007
   96.2350000000000        -2.038344599503564E-007
   96.4250000000000        -2.046142540844484E-007
   96.6150000000000        -2.055802510551384E-007
   96.8050000000000        -2.067021718416789E-007
   96.9950000000000        -2.079283739535296E-007
   97.1850000000000        -2.091938981050488E-007
   97.3750000000000        -2.104291794097750E-007
   97.5650000000000        -2.115692964329726E-007
   97.7550000000000        -2.125614598282369E-007
   97.9450000000000        -2.133709152124678E-007
   98.1350000000000        -2.139846117410200E-007
   98.3250000000000        -2.144124901740996E-007
   98.5150000000000        -2.146872332282288E-007
   98.7050000000000        -2.148613700405522E-007
   98.8950000000000        -2.150029661616281E-007
   99.0850000000000        -2.151890986666978E-007
   99.2750000000000        -2.154973180236826E-007
   99.4650000000000        -2.159960710776828E-007
   99.6550000000000        -2.167343368134125E-007
   99.8450000000000        -2.177322553005429E-007
   100.035000000000        -2.189744823697972E-007
   100.225000000000        -2.204079870440370E-007
   100.415000000000        -2.219456290479278E-007
   100.605000000000        -2.234760514855603E-007
   100.795000000000        -2.248792382823600E-007
   100.985000000000        -2.260456598280831E-007
   101.175000000000        -2.268957847448137E-007
   101.365000000000        -2.273964989801595E-007
   101.555000000000        -2.275707562665528E-007
   101.745000000000        -2.274976465735855E-007
   101.935000000000        -2.273021725667825E-007
   102.125000000000        -2.271365610001506E-007
   102.315000000000        -2.271545379840140E-007
   102.505000000000        -2.274848401937902E-007
   102.695000000000        -2.282081795163621E-007
   102.885000000000        -2.293423165170300E-007
   103.075000000000        -2.308384366850910E-007
   103.265000000000        -2.325894194123888E-007
   103.455000000000        -2.344483759994602E-007
   103.645000000000        -2.362537526576951E-007
   103.835000000000        -2.378557451900807E-007
   104.025000000000        -2.391390013697732E-007
   104.215000000000        -2.400376510171206E-007
   104.405000000000        -2.405402950730590E-007
   104.595000000000        -2.406857577599507E-007
   104.785000000000        -2.405516514522059E-007
   104.975000000000        -2.402389552017967E-007
   105.165000000000        -2.398574186189104E-007
   105.355000000000        -2.395136090054091E-007
   105.545000000000        -2.393037492046915E-007
   105.735000000000        -2.393103757282658E-007
   105.925000000000        -2.396008781199877E-007
   106.115000000000        -2.402254556631779E-007
   106.305000000000        -2.412119751311999E-007
   106.495000000000        -2.425583955608572E-007
   106.685000000000        -2.442233644732058E-007
   106.875000000000        -2.461186234280624E-007
   107.065000000000        -2.481075276940215E-007
   107.255000000000        -2.500141107383394E-007
   107.445000000000        -2.516432702124262E-007
   107.635000000000        -2.528119196438223E-007
   107.825000000000        -2.533857883053525E-007
   108.015000000000        -2.533145386680710E-007
   108.205000000000        -2.526564791562568E-007
   108.395000000000        -2.515851072656702E-007
   108.585000000000        -2.503730747933035E-007
   108.775000000000        -2.493535137072012E-007
   108.965000000000        -2.488645255510705E-007
   109.155000000000        -2.491868680080295E-007
   109.345000000000        -2.504873662426188E-007
   109.535000000000        -2.527807171817967E-007
   109.725000000000        -2.559189102579531E-007
   109.915000000000        -2.596115085337947E-007
   110.105000000000        -2.634738509447038E-007