  -1.42500000000000         0.000000000000000E+000
  -1.23500000000000         2.039144339708052E-009
  -1.04500000000000         1.373189461620534E-008
 -0.855000000000000         6.374659349478494E-008
 -0.665000000000000         2.393316544303112E-007
 -0.475000000000000         7.526177417936559E-007
 -0.285000000000000         2.010946552119413E-006
 -9.499999999999975E-002    4.621711186642031E-006
  9.500000000000020E-002    9.239767596190029E-006
  0.285000000000000         1.629617852519661E-005
  0.475000000000000         2.570438036208567E-005
  0.665000000000000         3.683320872225970E-005
  0.855000000000000         4.859923996040372E-005
   1.04500000000000         5.988958194203440E-005
   1.23500000000000         6.964374309756801E-005
   1.42500000000000         7.714572391456857E-005
   1.61500000000000         8.199259483584427E-005
   1.80500000000000         8.382754593523118E-005
   1.99500000000000         8.295608045873757E-005
   2.18500000000000         8.001713031232262E-005
   2.37500000000000         7.568962898778601E-005
   2.56500000000000         7.081181803360243E-005
   2.75500000000000         6.582131066797821E-005
   2.94500000000000         6.045060678661906E-005
   3.13500000000000         5.686863882060421E-005
   3.32500000000000         5.453022748697099E-005
   3.51500000000000         4.720994875547770E-005
   3.70500000000000         4.609127380067467E-005
   3.89500000000000         4.302374146764231E-005
   4.08500000000000         4.166957954864251E-005
   4.27500000000000         4.127858490736170E-005
   4.46500000000000         4.389662847304473E-005
   4.65500000000000         4.778652967779065E-005
   4.84500000000000         5.049054919231665E-005
   5.03500000000000         5.180130282348463E-005
   5.22500000000000         5.166751421265740E-005
   5.41500000000000         4.992153180391432E-005
   5.60500000000000         4.589271274615091E-005
   5.79500000000000         4.125157848172958E-005
   5.98500000000000         3.626367807516747E-005
   6.17500000000000         3.190692451721346E-005
   6.36500000000000         2.893733938283274E-005
   6.55500000000000         2.837678142831402E-005
   6.74500000000000         3.041725960099157E-005
   6.93500000000000         3.539545041157744E-005
   7.12500000000000         4.290381352797711E-005
   7.31500000000000         5.222810292195176E-005
   7.50500000000000         6.294049497638257E-005
   7.69500000000000         7.411056491525267E-005
   7.88500000000000         8.509792265165210E-005
   8.07500000000000         9.494572984501572E-005
   8.26500000000000         1.025457241737424E-004
   8.45500000000000         1.071029066023327E-004
   8.64500000000000         1.075716566940374E-004
   8.83500000000000         1.037660802168458E-004
   9.02500000000000         9.525558148225420E-005
   9.21500000000000         8.328321555332475E-005
   9.40500000000000         6.896681584215652E-005
   9.59500000000000         5.347787991404756E-005
   9.78500000000000         3.799542498043377E-005
   9.97500000000000         2.347788033377419E-005
   10.1650000000000         1.109183411265497E-005
   10.3550000000000         1.723372008327101E-006
   10.5450000000000        -4.712912875536930E-006
   10.7350000000000        -5.454314657759341E-006
   10.9250000000000        -6.159619049048835E-006
   11.1150000000000        -4.817911533374453E-006
   11.3050000000000         1.021254765175123E-006
   11.4950000000000         7.336557859269934E-006
   11.6850000000000         1.348682542393815E-005
   11.8750000000000         1.990404084226453E-005
   12.0650000000000         2.600731973809333E-005
   12.2550000000000         3.119594139133684E-005
   12.4450000000000         3.560932469902993E-005
   12.6350000000000         3.550976365684847E-005
   12.8250000000000         3.690624148987649E-005
   13.0150000000000         3.505153590620269E-005
   13.2050000000000         3.192078521493258E-005
   13.3950000000000         2.696753285051494E-005
   13.5850000000000         2.191046526507281E-005
   13.7750000000000         1.701263731383669E-005
   13.9650000000000         1.328815363057030E-005
   14.1550000000000         1.160099925523734E-005
   14.3450000000000         1.148443105474777E-005
   14.5350000000000         1.242687730614192E-005
   14.7250000000000         1.779486003901343E-005
   14.9150000000000         2.338997595694791E-005
   15.1050000000000         2.955738078603660E-005
   15.2950000000000         3.574338301030509E-005
   15.4850000000000         4.145470456779099E-005
   15.6750000000000         4.637574176357036E-005
   15.8650000000000         5.073670816099758E-005
   16.0550000000000         5.459809885784911E-005
   16.2450000000000         5.796314996862893E-005
   16.4350000000000         6.076064407728765E-005
   16.6250000000000         6.300852020854127E-005
   16.8150000000000         6.426226744314184E-005
   17.0050000000000         6.482024413160089E-005
   17.1950000000000         6.494242376130654E-005
   17.3850000000000         6.519979370224428E-005
   17.5750000000000         6.339664310425595E-005
   17.7650000000000         6.378300537268660E-005
   17.9550000000000         6.315822622085445E-005
   18.1450000000000         6.260640829026952E-005
   18.3350000000000         6.235086657416605E-005
   18.5250000000000         6.264176074174993E-005
   18.7150000000000         6.555716378161549E-005
   18.9050000000000         6.790803901854508E-005
   19.0950000000000         6.923225936522823E-005
   19.2850000000000         7.011731602323611E-005
   19.4750000000000         7.035274423716329E-005
   19.6650000000000         6.869239407188068E-005
   19.8550000000000         6.557724002230372E-005
   20.0450000000000         6.162804894332247E-005
   20.2350000000000         5.657719933753322E-005
   20.4250000000000         5.102034296861275E-005
   20.6150000000000         4.557119724028078E-005
   20.8050000000000         4.060827225638666E-005
   20.9950000000000         3.665175348198163E-005
   21.1850000000000         3.481206558025001E-005
   21.3750000000000         3.411490558777056E-005
   21.5650000000000         3.393460972019114E-005
   21.7550000000000         3.768759121463574E-005
   21.9450000000000         4.264104192990824E-005
   22.1350000000000         4.967194445285233E-005
   22.3250000000000         5.850899191085967E-005
   22.5150000000000         6.880844921316030E-005
   22.7050000000000         7.987533881825771E-005
   22.8950000000000         9.098646442374286E-005
   23.0850000000000         1.012535689374465E-004
   23.2750000000000         1.099821111442386E-004
   23.4650000000000         1.168010439536484E-004
   23.6550000000000         1.211633575482570E-004
   23.8450000000000         1.233773767269557E-004
   24.0350000000000         1.233714947965068E-004
   24.2250000000000         1.211519670159498E-004
   24.4150000000000         1.169269245054524E-004
   24.6050000000000         1.104990819129588E-004
   24.7950000000000         1.029754425758461E-004
   24.9850000000000         9.351786904911997E-005
   25.1750000000000         8.342600483434969E-005
   25.3650000000000         7.225985795410781E-005
   25.5550000000000         6.128212576336618E-005
   25.7450000000000         5.036092466126911E-005
   25.9350000000000         4.130193158856588E-005
   26.1250000000000         3.492568195889982E-005
   26.3150000000000         3.199405572060404E-005
   26.5050000000000         3.188471377924300E-005
   26.6950000000000         3.400861348173936E-005
   26.8850000000000         3.840337953281657E-005
   27.0750000000000         4.489567808568737E-005
   27.2650000000000         5.101737254409278E-005
   27.4550000000000         5.595785614234648E-005
   27.6450000000000         5.957482016183422E-005
   27.8350000000000         5.946922164413857E-005
   28.0250000000000         6.046832811462009E-005
   28.2150000000000         5.683813041336783E-005
   28.4050000000000         4.998060674719816E-005
   28.5950000000000         4.040601502941920E-005
   28.7850000000000         2.788964330104509E-005
   28.9750000000000         1.283249337318340E-005
   29.1650000000000        -4.319295485918852E-006
   29.3550000000000        -2.308966006342980E-005
   29.5450000000000        -4.266090451178850E-005
   29.7350000000000        -6.206095286527388E-005
   29.9250000000000        -7.995674536957284E-005
   30.1150000000000        -9.487547813255287E-005
   30.3050000000000        -1.054094740764017E-004
   30.4950000000000        -1.106577875735968E-004
   30.6850000000000        -1.101122082600239E-004
   30.8750000000000        -1.042639502125646E-004
   31.0650000000000        -9.326018157422523E-005
   31.2550000000000        -7.773108892432701E-005
   31.4450000000000        -5.871406078485881E-005
   31.6350000000000        -3.749048743101249E-005
   31.8250000000000        -1.535183471833974E-005
   32.0150000000000         5.942075500071312E-006
   32.2050000000000         2.517433859993725E-005
   32.3950000000000         4.108099465033237E-005
   32.5850000000000         5.308460153382931E-005
   32.7750000000000         6.110297146927122E-005
   32.9650000000000         6.480287365880607E-005
   33.1550000000000         6.584519051226704E-005
   33.3450000000000         6.072773272957491E-005
   33.5350000000000         5.374437123453663E-005
   33.7250000000000         4.315914312725050E-005
   33.9150000000000         3.179700711047056E-005
   34.1050000000000         2.080989527543937E-005
   34.2950000000000         1.284222753204330E-005
   34.4850000000000         7.697165509823350E-006
   34.6750000000000         6.471216785777174E-006
   34.8650000000000         8.523116537298327E-006
   35.0550000000000         1.360483015404029E-005
   35.2450000000000         2.177583475425292E-005
   35.4350000000000         3.066236543069579E-005
   35.6250000000000         4.000534855997494E-005
   35.8150000000000         4.888665201073589E-005
   36.0050000000000         5.623548422962497E-005
   36.1950000000000         6.167433720881209E-005
   36.3850000000000         6.202009548453233E-005
   36.5750000000000         6.457749801770637E-005
   36.7650000000000         6.261467455056560E-005
   36.9550000000000         5.971568448496601E-005
   37.1450000000000         5.590943491475993E-005
   37.3350000000000         5.182255331917446E-005
   37.5250000000000         4.772925823687584E-005
   37.7150000000000         4.429241237503486E-005
   37.9050000000000         4.277042119103889E-005
   38.0950000000000         4.413103466287972E-005
   38.2850000000000         4.853578809523910E-005
   38.4750000000000         5.741002501764224E-005
   38.6650000000000         7.022699497881795E-005
   38.8550000000000         8.587115667266149E-005
   39.0450000000000         1.032584902780080E-004
   39.2350000000000         1.212418350369548E-004
   39.4250000000000         1.386658858171928E-004
   39.6150000000000         1.544665397938406E-004
   39.8050000000000         1.676179500640917E-004
   39.9950000000000         1.769899466030065E-004
   40.1850000000000         1.824547864542441E-004
   40.3750000000000         1.820277879845900E-004
   40.5650000000000         1.788676010637410E-004
   40.7550000000000         1.722526110663381E-004
   40.9450000000000         1.614853167926590E-004
   41.1350000000000         1.482142739792892E-004
   41.3250000000000         1.326317158133675E-004
   41.5150000000000         1.153214479808313E-004
   41.7050000000000         9.637630644917185E-005
   41.8950000000000         7.662511523891705E-005
   42.0850000000000         5.687609492345934E-005
   42.2750000000000         3.789485560309362E-005
   42.4650000000000         2.027650300022808E-005
   42.6550000000000         4.337551042216629E-006
   42.8450000000000        -9.747407050233424E-006
   43.0350000000000        -2.177257669419015E-005
   43.2250000000000        -3.140783363617783E-005
   43.4150000000000        -3.914297495072229E-005
   43.6050000000000        -4.358086843698691E-005
   43.7950000000000        -4.522344806052602E-005
   43.9850000000000        -4.416409022338635E-005
   44.1750000000000        -3.922658774501660E-005
   44.3650000000000        -3.058960559278672E-005
   44.5550000000000        -1.853304750643520E-005
   44.7450000000000        -3.374808282262397E-006
   44.9350000000000         1.405998786031897E-005
   45.1250000000000         3.292208098498750E-005
   45.3150000000000         5.163184695009929E-005
   45.5050000000000         6.873123965873162E-005
   45.6950000000000         8.278119669302060E-005
   45.8850000000000         9.277592932067104E-005
   46.0750000000000         9.829462560594933E-005
   46.2650000000000         9.941059830586309E-005
   46.4550000000000         9.649420723853800E-005
   46.6450000000000         8.876128350861247E-005
   46.8350000000000         7.749400075283420E-005
   47.0250000000000         6.362101650932821E-005
   47.2150000000000         4.810431084766929E-005
   47.4050000000000         3.176507872195391E-005
   47.5950000000000         1.541734557735453E-005
   47.7850000000000        -2.129916667543483E-007
   47.9750000000000        -1.474909996627175E-005
   48.1650000000000        -2.767516808594475E-005
   48.3550000000000        -3.848438575862526E-005
   48.5450000000000        -4.627902526537964E-005
   48.7350000000000        -5.011244274491384E-005
   48.9250000000000        -4.955371481221409E-005
   49.1150000000000        -4.500215066682430E-005
   49.3050000000000        -3.368656700526758E-005
   49.4950000000000        -1.876195848088963E-005
   49.6850000000000        -4.016755475252172E-007
   49.8750000000000         2.021859390821529E-005
   50.0650000000000         4.144650177439648E-005
   50.2550000000000         6.184733587230609E-005
   50.4450000000000         7.953716874062802E-005
   50.6350000000000         9.274804300999419E-005
   50.8250000000000         1.017866238657081E-004
   51.0150000000000         1.028553142955136E-004
   51.2050000000000         1.010842338580813E-004
   51.3950000000000         9.163231578046319E-005
   51.5850000000000         7.792637236009702E-005
   51.7750000000000         6.127789649142526E-005
   51.9650000000000         4.326969211353117E-005
   52.1550000000000         2.544401676233331E-005
   52.3450000000000         9.345835720855713E-006
   52.5350000000000        -3.914052197423348E-006
   52.7250000000000        -1.305604855127275E-005
   52.9150000000000        -1.758482029386055E-005
   53.1050000000000        -1.785984175649241E-005
   53.2950000000000        -1.383721485799204E-005
   53.4850000000000        -6.889048964091939E-006
   53.6750000000000         2.882751053126395E-006
   53.8650000000000         1.463874896804536E-005
   54.0550000000000         2.771242415494873E-005
   54.2450000000000         4.155017344912127E-005
   54.4350000000000         5.551964817577067E-005
   54.6250000000000         6.883849395376654E-005
   54.8150000000000         8.094833396464148E-005
   55.0050000000000         9.096113750224604E-005
   55.1950000000000         9.827737185570231E-005
   55.3850000000000         1.028451875175015E-004
   55.5750000000000         1.032073266214513E-004
   55.7650000000000         1.005981682743304E-004
   55.9550000000000         9.450882223225683E-005
   56.1450000000000         8.554697864575758E-005
   56.3350000000000         7.435789274339723E-005
   56.5250000000000         6.183622304337158E-005
   56.7150000000000         4.901493648834054E-005
   56.9050000000000         3.689718198951507E-005
   57.0950000000000         2.633093166119437E-005
   57.2850000000000         1.784814651929699E-005
   57.4750000000000         1.179852347581850E-005
   57.6650000000000         8.482765612574457E-006
   57.8550000000000         7.500059443505291E-006
   58.0450000000000         7.804884937938495E-006
   58.2350000000000         1.035724001746385E-005
   58.4250000000000         1.455864409137306E-005
   58.6150000000000         1.803819897529175E-005
   58.8050000000000         2.244887440740606E-005
   58.9950000000000         2.599064871398479E-005
   59.1850000000000         2.722605424225665E-005
   59.3750000000000         2.766836224052850E-005
   59.5650000000000         2.817342830661525E-005
   59.7550000000000         2.742931071660036E-005
   59.9450000000000         2.554512454434054E-005
   60.1350000000000         2.311525825080342E-005
   60.3250000000000         1.807076325079549E-005
   60.5150000000000         1.227206046167960E-005
   60.7050000000000         5.745792616540603E-006
   60.8950000000000        -1.545276083925600E-006
   61.0850000000000        -9.382341458329684E-006
   61.2750000000000        -1.752634957647701E-005
   61.4650000000000        -2.571073269753851E-005
   61.6550000000000        -3.370609812113134E-005
   61.8450000000000        -4.105740772727337E-005
   62.0350000000000        -4.728571515790796E-005
   62.2250000000000        -5.217490447678140E-005
   62.4150000000000        -5.569950048820565E-005
   62.6050000000000        -5.707306350030212E-005
   62.7950000000000        -5.613413392790626E-005
   62.9850000000000        -5.399559220227986E-005
   63.1750000000000        -5.057540104611842E-005
   63.3650000000000        -4.613572614740708E-005
   63.5550000000000        -3.885870175523999E-005
   63.7450000000000        -3.213188760764503E-005
   63.9350000000000        -2.524010725758818E-005
   64.1250000000000        -1.812203991877188E-005
   64.3150000000000        -1.117754074357503E-005
   64.5050000000000        -4.172950147313585E-006
   64.6950000000000         2.925048847251014E-006
   64.8850000000000         9.085087408580811E-006
   65.0750000000000         1.527374603961834E-005
   65.2650000000000         2.055416237642911E-005
   65.4550000000000         2.487877468874158E-005
   65.6450000000000         2.871897991936430E-005
   65.8350000000000         3.146547395639900E-005
   66.0250000000000         3.317607503266860E-005
   66.2150000000000         3.348775705390798E-005
   66.4050000000000         3.351713038164736E-005
   66.5950000000000         3.219620069584560E-005
   66.7850000000000         2.929528837685011E-005
   66.9750000000000         2.905073021354419E-005
   67.1650000000000         2.674546405848394E-005
   67.3550000000000         2.376528126195416E-005
   67.5450000000000         2.020154992650895E-005
   67.7350000000000         1.759019621239345E-005
   67.9250000000000         1.476300261728271E-005
   68.1150000000000         1.254849304356754E-005
   68.3050000000000         1.229483685972088E-005
   68.4950000000000         1.336272761246294E-005
   68.6850000000000         1.593537324161467E-005
   68.8750000000000         1.962123705845271E-005
   69.0650000000000         2.410153412597984E-005
   69.2550000000000         2.905166729785083E-005
   69.4450000000000         3.441327513969118E-005
   69.6350000000000         3.982764944314284E-005
   69.8250000000000         4.487314555800212E-005
   70.0150000000000         5.046105121961550E-005
   70.2050000000000         5.570120621545660E-005
   70.3950000000000         6.176368645337073E-005
   70.5850000000000         6.807635137554238E-005
   70.7750000000000         7.526696431554158E-005
   70.9650000000000         8.350178687272167E-005
   71.1550000000000         9.307500089925254E-005
   71.3450000000000         1.017546463958010E-004
   71.5350000000000         1.104659143957070E-004
   71.7250000000000         1.154065329002075E-004
   71.9150000000000         1.207707392087358E-004
   72.1050000000000         1.200458525143340E-004
   72.2950000000000         1.198892867254256E-004
   72.4850000000000         1.185582014332606E-004
   72.6750000000000         1.173420911325174E-004
   72.8650000000000         1.121984743553759E-004
   73.0550000000000         1.069895106545946E-004
   73.2450000000000         1.002230895374638E-004
   73.4350000000000         9.208135888591211E-005
   73.6250000000000         8.187474344331556E-005
   73.8150000000000         7.092208784908411E-005
   74.0050000000000         5.839895567594853E-005
   74.1950000000000         4.449164007100940E-005
   74.3850000000000         2.954994728844599E-005
   74.5750000000000         1.473547348859052E-005
   74.7650000000000         1.236584642486669E-006
   74.9550000000000        -9.648502795034614E-006
   75.1450000000000        -1.726388471033203E-005
   75.3350000000000        -2.065288957903832E-005
   75.5250000000000        -2.230703336812720E-005
   75.7150000000000        -2.059927014658517E-005
   75.9050000000000        -1.620407563858367E-005
   76.0950000000000        -1.122869117994603E-005
   76.2850000000000        -4.818243066995943E-006
   76.4750000000000         5.013948058079505E-007
   76.6650000000000         3.349338525999496E-006
   76.8550000000000         2.340711004241986E-006
   77.0450000000000        -1.730314841383301E-006
   77.2350000000000        -9.408784010763566E-006
   77.4250000000000        -2.016224198255884E-005
   77.6150000000000        -3.296987838533717E-005
   77.8050000000000        -4.671194031003826E-005
   77.9950000000000        -6.063530788122226E-005
   78.1850000000000        -7.407170035981745E-005
   78.3750000000000        -8.637351186525260E-005
   78.5650000000000        -9.658697991632198E-005
   78.7550000000000        -1.039191766081249E-004
   78.9450000000000        -1.078683471338363E-004
   79.1350000000000        -1.084542721093652E-004
   79.3250000000000        -1.053122336765129E-004
   79.5150000000000        -9.911775772303757E-005
   79.7050000000000        -8.893601701473685E-005
   79.8950000000000        -7.636906998455778E-005
   80.0850000000000        -6.103779035035453E-005
   80.2750000000000        -4.313673467103031E-005
   80.4650000000000        -2.320129394299453E-005
   80.6550000000000        -1.854814242497670E-006
   80.8450000000000         1.992089101747129E-005
   81.0350000000000         4.118899420869770E-005
   81.2250000000000         6.106928465935045E-005
   81.4150000000000         7.863609651497182E-005
   81.6050000000000         9.284085233987103E-005
   81.7950000000000         1.026337804835169E-004
   81.9850000000000         1.069315707385836E-004
   82.1750000000000         1.065455024940073E-004
   82.3650000000000         9.929862447703109E-005
   82.5550000000000         8.740769191224973E-005
   82.7450000000000         7.320230046462541E-005
   82.9350000000000         5.804631335121834E-005
   83.1250000000000         4.344565587108513E-005
   83.3150000000000         3.029940720482807E-005
   83.5050000000000         1.887613270647037E-005
   83.6950000000000         1.009441826244849E-005
   83.8850000000000         2.165741787049520E-006
   84.0750000000000        -2.246729390397065E-006
   84.2650000000000        -5.988482155848166E-006
   84.4550000000000        -6.578813870433853E-006
   84.6450000000000        -6.967950985292699E-006
   84.8350000000000        -6.493641301428880E-006
   85.0250000000000        -4.974144341829030E-006
   85.2150000000000        -1.074964175514803E-006
   85.4050000000000         4.120994439643188E-006
   85.5950000000000         1.117077774748818E-005
   85.7850000000000         1.913500549069739E-005
   85.9750000000000         2.765046690619671E-005
   86.1650000000000         3.563181237860257E-005
   86.3550000000000         4.248292667130416E-005
   86.5450000000000         4.815867546996868E-005
   86.7350000000000         5.261989014616732E-005
   86.9250000000000         5.611279748415840E-005
   87.1150000000000         5.880730769864605E-005
   87.3050000000000         6.108551424652944E-005
   87.4950000000000         6.294542889570205E-005
   87.6850000000000         6.418317410224979E-005
   87.8750000000000         6.491241000423218E-005
   88.0650000000000         6.610565405974687E-005
   88.2550000000000         6.579950582258206E-005
   88.4450000000000         6.605966229264478E-005
   88.6350000000000         6.519612200286002E-005
   88.8250000000000         6.314806611468913E-005
   89.0150000000000         5.672067897512401E-005
   89.2050000000000         4.833146382729949E-005
   89.3950000000000         3.872001779023576E-005
   89.5850000000000         2.871838801697135E-005
   89.7750000000000         1.930136037630120E-005
   89.9650000000000         1.053885082252847E-005
   90.1550000000000         2.628837115884836E-006
   90.3450000000000        -4.184933429259497E-006
   90.5350000000000        -1.017275989239238E-005
   90.7250000000000        -1.529044039719212E-005
   90.9150000000000        -1.987546296285378E-005
   91.1050000000000        -2.438397041339578E-005
   91.2950000000000        -2.931163195639123E-005
   91.4850000000000        -3.526801946637669E-005
   91.6750000000000        -4.206864298618840E-005
   91.8650000000000        -4.919663653767937E-005
   92.0550000000000        -5.609951972614243E-005
   92.2450000000000        -6.171175907625913E-005
   92.4350000000000        -6.584840741841835E-005
   92.6250000000000        -6.898780756892641E-005
   92.8150000000000        -7.060326908397762E-005
   93.0050000000000        -6.859158767595419E-005
   93.1950000000000        -6.428008923867660E-005
   93.3850000000000        -5.732804130442274E-005
   93.5750000000000        -4.820136205605191E-005
   93.7650000000000        -3.818782298895879E-005
   93.9550000000000        -2.755514697183725E-005
   94.1450000000000        -1.725286545501350E-005
   94.3350000000000        -7.640584157253910E-006
   94.5250000000000         1.231729974256928E-006
   94.7150000000000         9.075243577165594E-006
   94.9050000000000         1.616630727454695E-005
   95.0950000000000         2.179315182415377E-005
   95.2850000000000         2.665097867663800E-005
   95.4750000000000         2.791884365560932E-005
   95.6650000000000         3.065310195619701E-005
   95.8550000000000         3.006836590461992E-005
   96.0450000000000         2.757914047641261E-005
   96.2350000000000         2.364402441074883E-005
   96.4250000000000         1.901017383206834E-005
   96.6150000000000         1.269775390329357E-005
   96.8050000000000         6.604974469147390E-006
   96.9950000000000         5.303583253796310E-007
   97.1850000000000        -3.984497331814287E-006
   97.3750000000000        -6.207666003087783E-006
   97.5650000000000        -7.243741097057177E-006
   97.7550000000000        -5.906732014200893E-006
   97.9450000000000        -3.248382753532059E-006
   98.1350000000000         2.999962617826942E-008
   98.3250000000000         3.525446723962091E-006
   98.5150000000000         6.200683610708078E-006
   98.7050000000000         7.482847864785123E-006
   98.8950000000000         6.555513427225742E-006
   99.0850000000000         2.787396501311393E-006
   99.2750000000000        -3.948532224311541E-006
   99.4650000000000        -1.433739672004637E-005
   99.6550000000000        -2.757202010698337E-005
   99.8450000000000        -4.350241652585616E-005
   100.035000000000        -6.150551355136127E-005
   100.225000000000        -8.079691995847202E-005
   100.415000000000        -1.007255360187461E-004
   100.605000000000        -1.201351134481302E-004
   100.795000000000        -1.375307455634648E-004
   100.985000000000        -1.516210731003638E-004
   101.175000000000        -1.597267901766484E-004
   101.365000000000        -1.642303364527701E-004
   101.555000000000        -1.629306632266212E-004
   101.745000000000        -1.543407701378310E-004
   101.935000000000        -1.388767564474128E-004
   102.125000000000        -1.192860301149872E-004
   102.315000000000        -9.586474512903565E-005
   102.505000000000        -6.997060087916437E-005
   102.695000000000        -4.293834334731416E-005
   102.885000000000        -1.635632670040086E-005
   103.075000000000         8.196064679481976E-006
   103.265000000000         2.959498952003383E-005
   103.455000000000         4.690952962673522E-005
   103.645000000000         5.984174262289381E-005
   103.835000000000         6.829496485644224E-005
   104.025000000000         7.251737121336694E-005
   104.215000000000         7.167621781755275E-005
   104.405000000000         6.931590910633686E-005
   104.595000000000         6.479191339085692E-005
   104.785000000000         5.877627787022600E-005
   104.975000000000         5.096233020585787E-005
   105.165000000000         4.403720664563868E-005
   105.355000000000         3.714962809310023E-005
   105.545000000000         3.055438300530655E-005
   105.735000000000         2.413561757744183E-005
   105.925000000000         1.781337008241127E-005
   106.115000000000         1.253964672965349E-005
   106.305000000000         6.692159092683886E-006
   106.495000000000         2.482582196904646E-006
   106.685000000000        -1.248687185843872E-006
   106.875000000000        -4.470446187453056E-006
   107.065000000000        -8.666722315741012E-006
   107.255000000000        -1.212994511618121E-005
   107.445000000000        -1.528113292409137E-005
   107.635000000000        -1.799327962671814E-005
   107.825000000000        -2.010960967300026E-005
   108.015000000000        -2.182954099825972E-005
   108.205000000000        -2.372073028623394E-005
   108.395000000000        -2.745696399423477E-005
   108.585000000000        -3.059229088016707E-005
   108.775000000000        -3.367162812019383E-005
   108.965000000000        -3.664364643343129E-005
   109.155000000000        -3.686187157465821E-005
   109.345000000000        -3.904871412349551E-005
   109.535000000000        -3.929824719617431E-005
   109.725000000000        -3.865140397454046E-005
   109.915000000000        -3.737613895123523E-005
   110.105000000000        -3.409643630396576E-005