  -1.42500000000000         5.106655275632591E-019
  -1.23500000000000         4.758304831429250E-017
  -1.04500000000000         3.216634672551746E-016
 -0.855000000000000         1.565493211381619E-015
 -0.665000000000000         6.046237013142576E-015
 -0.475000000000000         1.963080271477577E-014
 -0.285000000000000         5.364614861803646E-014
 -9.499999999999975E-002    1.279332010129055E-013
  9.500000000000020E-002    2.709639491271414E-013
  0.285000000000000         4.941811459676699E-013
  0.475000000000000         8.264835044907435E-013
  0.665000000000000         1.265689192413345E-012
  0.855000000000000         1.768991786417865E-012
   1.04500000000000         2.344700900385160E-012
   1.23500000000000         2.957146627422455E-012
   1.42500000000000         3.425974936905392E-012
   1.61500000000000         4.023974190193462E-012
   1.80500000000000         4.645106055273222E-012
   1.99500000000000         5.024763163730865E-012
   2.18500000000000         5.449475618689382E-012
   2.37500000000000         5.793214671417450E-012
   2.56500000000000         6.065187030461608E-012
   2.75500000000000         6.195039866961528E-012
   2.94500000000000         6.223816906320259E-012
   3.13500000000000         6.163118607109164E-012
   3.32500000000000         6.096274371828942E-012
   3.51500000000000         5.804034098716048E-012
   3.70500000000000         5.787318970121404E-012
   3.89500000000000         5.606599966546881E-012
   4.08500000000000         5.465232192501746E-012
   4.27500000000000         5.284724440579181E-012
   4.46500000000000         5.046224591352960E-012
   4.65500000000000         4.893040476529147E-012
   4.84500000000000         4.827246629322898E-012
   5.03500000000000         4.814205430034860E-012
   5.22500000000000         4.824297825542806E-012
   5.41500000000000         4.893125925024300E-012
   5.60500000000000         5.013481749411704E-012
   5.79500000000000         5.188945756622550E-012
   5.98500000000000         5.451629997777549E-012
   6.17500000000000         5.685021767749989E-012
   6.36500000000000         6.167308447065640E-012
   6.55500000000000         6.422872192426187E-012
   6.74500000000000         6.855552549572871E-012
   6.93500000000000         7.273109952670331E-012
   7.12500000000000         7.488773166926381E-012
   7.31500000000000         7.648417027673061E-012
   7.50500000000000         7.695558340081822E-012
   7.69500000000000         7.589271364658436E-012
   7.88500000000000         7.382609945805066E-012
   8.07500000000000         7.061514339089848E-012
   8.26500000000000         6.638206486562024E-012
   8.45500000000000         6.068349400224319E-012
   8.64500000000000         5.391659324729705E-012
   8.83500000000000         4.738741644315697E-012
   9.02500000000000         4.088564337138598E-012
   9.21500000000000         3.300982451484764E-012
   9.40500000000000         2.559969134343300E-012
   9.59500000000000         1.933706550397815E-012
   9.78500000000000         1.328941007827525E-012
   9.97500000000000         8.762287528749051E-013
   10.1650000000000         6.238109363426482E-013
   10.3550000000000         5.489832731940711E-013
   10.5450000000000         6.337222037549647E-013
   10.7350000000000         6.931462256598031E-013
   10.9250000000000         7.918175810507916E-013
   11.1150000000000         1.175275916617032E-012
   11.3050000000000         1.854831919369385E-012
   11.4950000000000         2.422617859449816E-012
   11.6850000000000         2.876458077489180E-012
   11.8750000000000         3.279428576538976E-012
   12.0650000000000         3.615211895452552E-012
   12.2550000000000         3.870033468276421E-012
   12.4450000000000         4.040363560320234E-012
   12.6350000000000         4.045025541087169E-012
   12.8250000000000         4.117745704453371E-012
   13.0150000000000         4.079249955581108E-012
   13.2050000000000         3.976385966286639E-012
   13.3950000000000         3.837108933601297E-012
   13.5850000000000         3.708585560684858E-012
   13.7750000000000         3.640655597836921E-012
   13.9650000000000         3.625368862832071E-012
   14.1550000000000         3.646909764943236E-012
   14.3450000000000         4.076484172159533E-012
   14.5350000000000         4.128819821922450E-012
   14.7250000000000         4.681531028507024E-012
   14.9150000000000         5.218232025634350E-012
   15.1050000000000         5.794476320292714E-012
   15.2950000000000         6.275720426088946E-012
   15.4850000000000         6.902403579936680E-012
   15.6750000000000         7.262515648580606E-012
   15.8650000000000         7.582106160076332E-012
   16.0550000000000         7.770859891310860E-012
   16.2450000000000         7.756243367401439E-012
   16.4350000000000         7.641092224623132E-012
   16.6250000000000         7.371580162499297E-012
   16.8150000000000         6.951338937631365E-012
   17.0050000000000         6.885046179748550E-012
   17.1950000000000         6.062842938821675E-012
   17.3850000000000         5.925861633600701E-012
   17.5750000000000         4.763415172351510E-012
   17.7650000000000         4.857689567454252E-012
   17.9550000000000         4.419020380942309E-012
   18.1450000000000         4.130113396458217E-012
   18.3350000000000         3.845816841298107E-012
   18.5250000000000         3.565549410328306E-012
   18.7150000000000         3.259185910235018E-012
   18.9050000000000         3.159074379785804E-012
   19.0950000000000         3.112623228586597E-012
   19.2850000000000         3.100656083175377E-012
   19.4750000000000         3.034120555024281E-012
   19.6650000000000         2.869741693376874E-012
   19.8550000000000         2.674780061280236E-012
   20.0450000000000         2.420477319000811E-012
   20.2350000000000         2.077952586989651E-012
   20.4250000000000         1.667355582341756E-012
   20.6150000000000         1.229033195087485E-012
   20.8050000000000         7.575684709844795E-013
   20.9950000000000         2.081353626056105E-013
   21.1850000000000        -1.920868721374975E-014
   21.3750000000000        -6.690877748898635E-013
   21.5650000000000        -7.700909820756238E-013
   21.7550000000000        -1.063563424909805E-012
   21.9450000000000        -1.078339152665294E-012
   22.1350000000000        -9.132599537632211E-013
   22.3250000000000        -5.327711056804539E-013
   22.5150000000000         7.353778768611264E-014
   22.7050000000000         8.129418719879420E-013
   22.8950000000000         1.657375151945533E-012
   23.0850000000000         2.921306198227316E-012
   23.2750000000000         3.652227877461710E-012
   23.4650000000000         4.811206191341977E-012
   23.6550000000000         5.432346814643991E-012
   23.8450000000000         6.136228657421265E-012
   24.0350000000000         6.840669494527140E-012
   24.2250000000000         7.170140755385715E-012
   24.4150000000000         7.461312763335615E-012
   24.6050000000000         7.587768950077575E-012
   24.7950000000000         7.551387645623643E-012
   24.9850000000000         7.328178379863347E-012
   25.1750000000000         6.984671175575041E-012
   25.3650000000000         6.559302971315890E-012
   25.5550000000000         6.066115101526058E-012
   25.7450000000000         5.450149829731805E-012
   25.9350000000000         5.006560822516940E-012
   26.1250000000000         4.633750997465058E-012
   26.3150000000000         4.397712620568185E-012
   26.5050000000000         4.230613282831465E-012
   26.6950000000000         4.158372728185519E-012
   26.8850000000000         4.207219193614120E-012
   27.0750000000000         4.363202808967308E-012
   27.2650000000000         4.648783094313322E-012
   27.4550000000000         4.910372754487919E-012
   27.6450000000000         5.155666655024308E-012
   27.8350000000000         5.159622192124105E-012
   28.0250000000000         5.426624621640259E-012
   28.2150000000000         5.406390655988559E-012
   28.4050000000000         5.323054812421749E-012
   28.5950000000000         5.103513528507651E-012
   28.7850000000000         4.764115153591985E-012
   28.9750000000000         4.192716112514641E-012
   29.1650000000000         3.561275180788824E-012
   29.3550000000000         2.722611062896705E-012
   29.5450000000000         1.782300038133785E-012
   29.7350000000000         8.311261985652146E-013
   29.9250000000000        -1.212653389903322E-013
   30.1150000000000        -9.733307028714804E-013
   30.3050000000000        -1.727260936342866E-012
   30.4950000000000        -2.406472008589307E-012
   30.6850000000000        -2.776537979051910E-012
   30.8750000000000        -3.001777066472939E-012
   31.0650000000000        -3.065669007319699E-012
   31.2550000000000        -2.992624715287930E-012
   31.4450000000000        -2.734963918137876E-012
   31.6350000000000        -2.408088447481582E-012
   31.8250000000000        -1.987348566227688E-012
   32.0150000000000        -1.523565532940884E-012
   32.2050000000000        -9.656495836279072E-013
   32.3950000000000        -3.682281573876053E-013
   32.5850000000000         1.904512437551671E-013
   32.7750000000000         7.874041901025562E-013
   32.9650000000000         1.435351225765624E-012
   33.1550000000000         1.813440349035989E-012
   33.3450000000000         2.363588264602382E-012
   33.5350000000000         2.760646253232395E-012
   33.7250000000000         3.227135329489943E-012
   33.9150000000000         3.554235400713545E-012
   34.1050000000000         3.912454855393973E-012
   34.2950000000000         4.093761940844755E-012
   34.4850000000000         4.229808813143226E-012
   34.6750000000000         4.364057040222531E-012
   34.8650000000000         4.466082730258414E-012
   35.0550000000000         4.503652662491482E-012
   35.2450000000000         4.560773686023967E-012
   35.4350000000000         4.508702259661128E-012
   35.6250000000000         4.402340622216358E-012
   35.8150000000000         4.228039358475414E-012
   36.0050000000000         3.987156487670862E-012
   36.1950000000000         3.699486593626010E-012
   36.3850000000000         3.561191988422449E-012
   36.5750000000000         3.199918203521028E-012
   36.7650000000000         3.035368329112223E-012
   36.9550000000000         2.752000743670131E-012
   37.1450000000000         2.577163291249019E-012
   37.3350000000000         2.456223791145858E-012
   37.5250000000000         2.391053109224010E-012
   37.7150000000000         2.365048827867083E-012
   37.9050000000000         2.369565195292963E-012
   38.0950000000000         2.370735574098877E-012
   38.2850000000000         2.365459134195068E-012
   38.4750000000000         2.378535693417853E-012
   38.6650000000000         2.307842208285434E-012
   38.8550000000000         2.238073292465073E-012
   39.0450000000000         2.133262607425473E-012
   39.2350000000000         1.989801660537156E-012
   39.4250000000000         1.753896496783221E-012
   39.6150000000000         1.433295293555188E-012
   39.8050000000000         9.434793343074174E-013
   39.9950000000000         4.635689328780741E-013
   40.1850000000000        -7.773144032367429E-014
   40.3750000000000        -1.631694243804878E-013
   40.5650000000000        -8.892376603715112E-013
   40.7550000000000        -1.522438096377369E-012
   40.9450000000000        -2.080860596878065E-012
   41.1350000000000        -2.507011870644971E-012
   41.3250000000000        -2.644911919201451E-012
   41.5150000000000        -2.945568810973610E-012
   41.7050000000000        -2.908644546906314E-012
   41.8950000000000        -2.593535587184836E-012
   42.0850000000000        -2.276096222775697E-012
   42.2750000000000        -1.911250127445330E-012
   42.4650000000000        -1.396118623989227E-012
   42.6550000000000        -7.664592900872396E-013
   42.8450000000000        -1.050822029045358E-013
   43.0350000000000         5.616962364366898E-013
   43.2250000000000         1.276729037192748E-012
   43.4150000000000         1.932528622802352E-012
   43.6050000000000         2.382344390195389E-012
   43.7950000000000         2.895938596331390E-012
   43.9850000000000         3.189669264062413E-012
   44.1750000000000         3.402084224793212E-012
   44.3650000000000         3.522363114028460E-012
   44.5550000000000         3.529735471193082E-012
   44.7450000000000         3.297930454764663E-012
   44.9350000000000         3.067502899471345E-012
   45.1250000000000         2.787738278868077E-012
   45.3150000000000         2.464742791032423E-012
   45.5050000000000         2.204854443410212E-012
   45.6950000000000         2.017930163678437E-012
   45.8850000000000         1.881929113314791E-012
   46.0750000000000         1.779089511394610E-012
   46.2650000000000         1.761136470281311E-012
   46.4550000000000         1.778750153619390E-012
   46.6450000000000         1.858512774038273E-012
   46.8350000000000         1.882281446423539E-012
   47.0250000000000         2.012110377897988E-012
   47.2150000000000         2.087097402385031E-012
   47.4050000000000         2.109173567687821E-012
   47.5950000000000         2.020364707236969E-012
   47.7850000000000         1.836569935100956E-012
   47.9750000000000         1.560007193771985E-012
   48.1650000000000         1.209592996266637E-012
   48.3550000000000         6.830366857856195E-013
   48.5450000000000         1.988596528237630E-013
   48.7350000000000        -2.311790199304532E-013
   48.9250000000000        -5.381311244605341E-013
   49.1150000000000        -8.213441138619171E-013
   49.3050000000000        -9.964336050834032E-013
   49.4950000000000        -1.018889784867257E-012
   49.6850000000000        -8.828774699142246E-013
   49.8750000000000        -5.744561746346186E-013
   50.0650000000000        -1.944037110084702E-013
   50.2550000000000         1.961140195278986E-013
   50.4450000000000         5.366162741175145E-013
   50.6350000000000         8.648336585214645E-013
   50.8250000000000         1.165162905860487E-012
   51.0150000000000         1.099602671677891E-012
   51.2050000000000         1.147414032066345E-012
   51.3950000000000         8.964887942343952E-013
   51.5850000000000         4.394014636720471E-013
   51.7750000000000        -2.012746486090219E-013
   51.9650000000000        -1.070530045337940E-012
   52.1550000000000        -2.096003181227448E-012
   52.3450000000000        -3.148561318203534E-012
   52.5350000000000        -4.215511979961938E-012
   52.7250000000000        -5.208137414778833E-012
   52.9150000000000        -6.053249551309149E-012
   53.1050000000000        -6.637221667630590E-012
   53.2950000000000        -6.958365117534296E-012
   53.4850000000000        -6.945732396251384E-012
   53.6750000000000        -6.650343455175781E-012
   53.8650000000000        -6.008929846799875E-012
   54.0550000000000        -5.172047895042260E-012
   54.2450000000000        -4.171099855231422E-012
   54.4350000000000        -3.075867083260776E-012
   54.6250000000000        -2.037708830611434E-012
   54.8150000000000        -9.097868283408430E-013
   55.0050000000000         9.813534229379797E-014
   55.1950000000000         9.816925728788964E-013
   55.3850000000000         1.722573290873636E-012
   55.5750000000000         2.088919048987759E-012
   55.7650000000000         2.266926467228297E-012
   55.9550000000000         2.252829720110678E-012
   56.1450000000000         2.032360309866262E-012
   56.3350000000000         1.534455388536935E-012
   56.5250000000000         9.648122409286264E-013
   56.7150000000000         2.856107317492501E-013
   56.9050000000000        -3.947374675265864E-013
   57.0950000000000        -1.030613454550992E-012
   57.2850000000000        -1.598175915136964E-012
   57.4750000000000        -1.987394659989551E-012
   57.6650000000000        -2.342723895343434E-012
   57.8550000000000        -2.556370493698335E-012
   58.0450000000000        -2.665685580455318E-012
   58.2350000000000        -2.770950675467353E-012
   58.4250000000000        -2.836962335371209E-012
   58.6150000000000        -2.862131632727321E-012
   58.8050000000000        -2.866712225793200E-012
   58.9950000000000        -2.844075971412805E-012
   59.1850000000000        -2.822206584670975E-012
   59.3750000000000        -2.797647803291088E-012
   59.5650000000000        -2.784557906183933E-012
   59.7550000000000        -2.804036583224673E-012
   59.9450000000000        -2.897619400046736E-012
   60.1350000000000        -3.086400708648391E-012
   60.3250000000000        -3.344911527474303E-012
   60.5150000000000        -3.599097379891073E-012
   60.7050000000000        -3.896553938837859E-012
   60.8950000000000        -4.173972612157481E-012
   61.0850000000000        -4.471395245533569E-012
   61.2750000000000        -4.747697366231427E-012
   61.4650000000000        -5.009933779144744E-012
   61.6550000000000        -5.308323545333892E-012
   61.8450000000000        -5.665930815309673E-012
   62.0350000000000        -6.088180653978157E-012
   62.2250000000000        -6.430067993751584E-012
   62.4150000000000        -6.959745191544214E-012
   62.6050000000000        -7.284618739707411E-012
   62.7950000000000        -7.537171393249501E-012
   62.9850000000000        -7.917059395569411E-012
   63.1750000000000        -8.202682866840291E-012
   63.3650000000000        -8.336538072886616E-012
   63.5550000000000        -8.521421075361037E-012
   63.7450000000000        -8.543824964607318E-012
   63.9350000000000        -8.498936298960721E-012
   64.1250000000000        -8.470036594582163E-012
   64.3150000000000        -8.314497651995460E-012
   64.5050000000000        -8.070905760818859E-012
   64.6950000000000        -7.740055626916100E-012
   64.8850000000000        -7.141361764899533E-012
   65.0750000000000        -6.538037608647807E-012
   65.2650000000000        -5.760404283291205E-012
   65.4550000000000        -4.825801835897257E-012
   65.6450000000000        -4.012820717201036E-012
   65.8350000000000        -3.215776115658079E-012
   66.0250000000000        -2.507301632276466E-012
   66.2150000000000        -2.009904720046853E-012
   66.4050000000000        -1.604971142597296E-012
   66.5950000000000        -1.558920817152456E-012
   66.7850000000000        -1.045934243820759E-012
   66.9750000000000        -1.149026916484955E-012
   67.1650000000000        -1.128455390348520E-012
   67.3550000000000        -1.213878306656437E-012
   67.5450000000000        -1.378151837040131E-012
   67.7350000000000        -1.768414737752077E-012
   67.9250000000000        -2.316354605576881E-012
   68.1150000000000        -2.899138031439223E-012
   68.3050000000000        -3.625057802867844E-012
   68.4950000000000        -4.281183785936444E-012
   68.6850000000000        -4.916303499064456E-012
   68.8750000000000        -5.435833116074656E-012
   69.0650000000000        -5.779293960506719E-012
   69.2550000000000        -5.962510803086323E-012
   69.4450000000000        -6.008514820087533E-012
   69.6350000000000        -5.991430507936122E-012
   69.8250000000000        -5.886052798072996E-012
   70.0150000000000        -5.851636333983156E-012
   70.2050000000000        -5.823071565487714E-012
   70.3950000000000        -5.844292690049259E-012
   70.5850000000000        -5.977344318249349E-012
   70.7750000000000        -6.190746874568368E-012
   70.9650000000000        -6.496669354667115E-012
   71.1550000000000        -6.822110463014802E-012
   71.3450000000000        -7.232104953411543E-012
   71.5350000000000        -7.685964177855409E-012
   71.7250000000000        -8.007304890751841E-012
   71.9150000000000        -8.507568859961688E-012
   72.1050000000000        -8.763818708311147E-012
   72.2950000000000        -9.207239164402611E-012
   72.4850000000000        -9.559679571390011E-012
   72.6750000000000        -9.854140059696674E-012
   72.8650000000000        -1.089575531161972E-011
   73.0550000000000        -1.146424057168360E-011
   73.2450000000000        -1.190571429508761E-011
   73.4350000000000        -1.225076059690180E-011
   73.6250000000000        -1.248635377070569E-011
   73.8150000000000        -1.261028133097866E-011
   74.0050000000000        -1.244460420508747E-011
   74.1950000000000        -1.226958582897486E-011
   74.3850000000000        -1.190494675295562E-011
   74.5750000000000        -1.157090366136467E-011
   74.7650000000000        -1.126243391275933E-011
   74.9550000000000        -1.108499585688525E-011
   75.1450000000000        -1.087496195616767E-011
   75.3350000000000        -1.079183650528979E-011
   75.5250000000000        -1.039950374289297E-011
   75.7150000000000        -1.041310872215551E-011
   75.9050000000000        -9.426046269264919E-012
   76.0950000000000        -8.446821605473286E-012
   76.2850000000000        -7.231161971108116E-012
   76.4750000000000        -5.962269211603035E-012
   76.6650000000000        -4.840325499482212E-012
   76.8550000000000        -4.076377819099027E-012
   77.0450000000000        -3.752966929579336E-012
   77.2350000000000        -3.934739035523250E-012
   77.4250000000000        -4.666689940251888E-012
   77.6150000000000        -5.913242479133993E-012
   77.8050000000000        -7.261268095016075E-012
   77.9950000000000        -8.517712538871293E-012
   78.1850000000000        -9.359734573338976E-012
   78.3750000000000        -9.583421203910150E-012
   78.5650000000000        -9.053824065743554E-012
   78.7550000000000        -8.128545845917005E-012
   78.9450000000000        -6.715289464268707E-012
   79.1350000000000        -5.704973216177411E-012
   79.3250000000000        -4.677866460197667E-012
   79.5150000000000        -4.812785345125846E-012
   79.7050000000000        -5.675486823970247E-012
   79.8950000000000        -7.371184596232362E-012
   80.0850000000000        -9.529434559685682E-012
   80.2750000000000        -1.189562453986683E-011
   80.4650000000000        -1.395880716186231E-011
   80.6550000000000        -1.534189343899513E-011
   80.8450000000000        -1.583831509812736E-011
   81.0350000000000        -1.529610297264628E-011
   81.2250000000000        -1.388010383929111E-011
   81.4150000000000        -1.177146156269603E-011
   81.6050000000000        -9.312014333013771E-012
   81.7950000000000        -7.260664390060264E-012
   81.9850000000000        -5.948176369222438E-012
   82.1750000000000        -5.497071143414643E-012
   82.3650000000000        -6.187534176327744E-012
   82.5550000000000        -7.865309616993016E-012
   82.7450000000000        -1.018236235669751E-011
   82.9350000000000        -1.274872344880077E-011
   83.1250000000000        -1.509943594918243E-011
   83.3150000000000        -1.680536843774815E-011
   83.5050000000000        -1.757855856722546E-011
   83.6950000000000        -1.730385280811898E-011
   83.8850000000000        -1.621484787576770E-011
   84.0750000000000        -1.472750960190533E-011
   84.2650000000000        -1.314912737214472E-011
   84.4550000000000        -1.210411636234261E-011
   84.6450000000000        -1.144804870671951E-011
   84.8350000000000        -1.117712337007129E-011
   85.0250000000000        -1.084989451846625E-011
   85.2150000000000        -1.026284517141208E-011
   85.4050000000000        -8.892948505497934E-012
   85.5950000000000        -6.623300834181262E-012
   85.7850000000000        -3.744189368172268E-012
   85.9750000000000        -8.110815463520148E-013
   86.1650000000000         1.114108502700459E-012
   86.3550000000000         9.542719733657979E-013
   86.5450000000000        -2.342315063518824E-012
   86.7350000000000        -9.021400679665929E-012
   86.9250000000000        -1.845780153572123E-011
   87.1150000000000        -2.901862289721804E-011
   87.3050000000000        -3.823044070244277E-011
   87.4950000000000        -4.333647361242082E-011
   87.6850000000000        -4.162388706722764E-011
   87.8750000000000        -3.213250102157754E-011
   88.0650000000000        -1.506369021536267E-011
   88.2550000000000         7.013209333844803E-012
   88.4450000000000         2.997307027906019E-011
   88.6350000000000         4.845935095359042E-011
   88.8250000000000         5.721054611525856E-011
   89.0150000000000         5.254779725191706E-011
   89.2050000000000         3.338272469958927E-011
   89.3950000000000         2.036654264976980E-012
   89.5850000000000        -3.598761714344837E-011
   89.7750000000000        -7.281053244908296E-011
   89.9650000000000        -1.003537406390011E-010
   90.1550000000000        -1.113540459714618E-010
   90.3450000000000        -1.021020272847815E-010
   90.5350000000000        -7.313402797867842E-011
   90.7250000000000        -2.975887902691177E-011
   90.9150000000000         1.896003205900262E-011
   91.1050000000000         6.237004617130956E-011
   91.2950000000000         9.050445228983241E-011
   91.4850000000000         9.670933936125922E-011
   91.6750000000000         7.943847161635518E-011
   91.8650000000000         4.246711693701787E-011
   92.0550000000000        -5.349362993184968E-012
   92.2450000000000        -5.307894579040638E-011
   92.4350000000000        -8.967342032534371E-011
   92.6250000000000        -1.073366269191208E-010
   92.8150000000000        -1.034603047476057E-010
   93.0050000000000        -8.120379815360423E-011
   93.1950000000000        -4.860632095185018E-011
   93.3850000000000        -1.589357254681084E-011
   93.5750000000000         7.251357924696309E-012
   93.7650000000000         1.490170502807805E-011
   93.9550000000000         6.751818557371406E-012
   94.1450000000000        -1.174792790366459E-011
   94.3350000000000        -3.105778176837118E-011
   94.5250000000000        -4.085095624841674E-011
   94.7150000000000        -3.323048148391019E-011
   94.9050000000000        -6.492767788803659E-012
   95.0950000000000         3.410047666751113E-011
   95.2850000000000         7.664108899440073E-011
   95.4750000000000         1.050795488406824E-010
   95.6650000000000         1.053987822563745E-010
   95.8550000000000         6.785399077682940E-011
   96.0450000000000        -5.542252365623572E-012
   96.2350000000000        -1.037174830973270E-010
   96.4250000000000        -2.050964887685305E-010
   96.6150000000000        -2.830470143290229E-010
   96.8050000000000        -3.127002303132544E-010
   96.9950000000000        -2.775323126427312E-010
   97.1850000000000        -1.753009416219477E-010
   97.3750000000000        -2.047103231649876E-011
   97.5650000000000         1.577502481502815E-010
   97.7550000000000         3.199409099280809E-010
   97.9450000000000         4.261921430655356E-010
   98.1350000000000         4.456114460570482E-010
   98.3250000000000         3.646459667908027E-010
   98.5150000000000         1.921925711872328E-010
   98.7050000000000        -4.033248606471459E-011
   98.8950000000000        -2.848997865836065E-010
   99.0850000000000        -4.869946788942325E-010
   99.2750000000000        -5.982420364371130E-010
   99.4650000000000        -5.888707330487756E-010
   99.6550000000000        -4.551107144096820E-010
   99.8450000000000        -2.226877432370960E-010
   100.035000000000         5.927480571723239E-011
   100.225000000000         3.278197649838333E-010
   100.415000000000         5.219418918906492E-010
   100.605000000000         5.968510665159060E-010
   100.795000000000         5.355539494376117E-010
   100.985000000000         3.534519652673174E-010
   101.175000000000         9.516767143886671E-011
   101.365000000000        -1.768340503965243E-010
   101.555000000000        -3.976526690125678E-010
   101.745000000000        -5.166940877528492E-010
   101.935000000000        -5.106562877071856E-010
   102.125000000000        -3.894693487951196E-010
   102.315000000000        -1.933560735472036E-010
   102.505000000000         1.905252783146587E-011
   102.695000000000         1.866750677775021E-010
   102.885000000000         2.642095822369728E-010
   103.075000000000         2.349922876957567E-010
   103.265000000000         1.161749364365971E-010
   103.455000000000        -4.587762605398724E-011
   103.645000000000        -1.895625165348543E-010
   103.835000000000        -2.572239206951142E-010
   104.025000000000        -2.139753492410136E-010
   104.215000000000        -6.053347930868387E-011
   104.405000000000         1.629552523097580E-010
   104.595000000000         3.867344740229240E-010
   104.785000000000         5.301882204906655E-010
   104.975000000000         5.259267067007939E-010
   105.165000000000         3.430518920270575E-010
   105.355000000000         1.330052092708454E-012
   105.545000000000        -4.278659137660655E-010
   105.735000000000        -8.357493035540200E-010
   105.925000000000        -1.102917373080535E-009
   106.115000000000        -1.132005870973325E-009
   106.305000000000        -8.780437133635036E-010
   106.495000000000        -3.676039710369160E-010
   106.685000000000         3.011747564094829E-010
   106.875000000000         9.753032607411298E-010
   107.065000000000         1.484722509210301E-009
   107.255000000000         1.682317083044027E-009
   107.445000000000         1.487522477015646E-009
   107.635000000000         9.120296432110839E-010
   107.825000000000         6.493009564512303E-011
   108.015000000000        -8.674320911568259E-010
   108.205000000000        -1.663268206917843E-009
   108.395000000000        -2.119806471680131E-009
   108.585000000000        -2.106018004504703E-009
   108.775000000000        -1.600304785457599E-009
   108.965000000000        -7.025054195873950E-010
   109.155000000000         3.851071204200072E-010
   109.345000000000         1.404224378512052E-009
   109.535000000000         2.104388105183451E-009
   109.725000000000         2.306208136139755E-009
   109.915000000000         1.951125260956833E-009
   110.105000000000         1.119864113506596E-009