  -1.42500000000000         4.851322511850961E-020
  -1.23500000000000         4.617416040094807E-018
  -1.04500000000000         3.969583501919418E-017
 -0.855000000000000         2.189757194896896E-016
 -0.665000000000000         9.420900908194881E-016
 -0.475000000000000         3.381408864971730E-015
 -0.285000000000000         1.034271924158889E-014
 -9.499999999999975E-002    2.759275745652838E-014
  9.500000000000020E-002    6.548798671983283E-014
  0.285000000000000         1.381767707538399E-013
  0.475000000000000         2.636399125473891E-013
  0.665000000000000         4.623963187532775E-013
  0.855000000000000         7.506910117422426E-013
   1.04500000000000         1.141491816988530E-012
   1.23500000000000         1.645167332130253E-012
   1.42500000000000         2.251563880741399E-012
   1.61500000000000         2.959309047815790E-012
   1.80500000000000         3.782871671135124E-012
   1.99500000000000         4.701509246940513E-012
   2.18500000000000         5.696561931270436E-012
   2.37500000000000         6.764617508830584E-012
   2.56500000000000         7.891165670509097E-012
   2.75500000000000         9.055887225764293E-012
   2.94500000000000         1.023567861922607E-011
   3.13500000000000         1.141243749300186E-011
   3.32500000000000         1.257707982600098E-011
   3.51500000000000         1.370760913070276E-011
   3.70500000000000         1.480878767224232E-011
   3.89500000000000         1.589120997122580E-011
   4.08500000000000         1.694303402633542E-011
   4.27500000000000         1.796427990647811E-011
   4.46500000000000         1.894572006451167E-011
   4.65500000000000         1.988995024596046E-011
   4.84500000000000         2.081337752101641E-011
   5.03500000000000         2.172931546665539E-011
   5.22500000000000         2.264497327593527E-011
   5.41500000000000         2.356812853223915E-011
   5.60500000000000         2.450925626131057E-011
   5.79500000000000         2.547848687438383E-011
   5.98500000000000         2.648934157105183E-011
   6.17500000000000         2.754732348877695E-011
   6.36500000000000         2.867329485918443E-011
   6.55500000000000         2.986936201993615E-011
   6.74500000000000         3.113081237042607E-011
   6.93500000000000         3.247303530813916E-011
   7.12500000000000         3.387541420450086E-011
   7.31500000000000         3.531344727298781E-011
   7.50500000000000         3.677112493292452E-011
   7.69500000000000         3.822318375487484E-011
   7.88500000000000         3.964551247936887E-011
   8.07500000000000         4.101770428643389E-011
   8.26500000000000         4.231917776487082E-011
   8.45500000000000         4.352630057411553E-011
   8.64500000000000         4.461500140298615E-011
   8.83500000000000         4.557738949504546E-011
   9.02500000000000         4.641598356328362E-011
   9.21500000000000         4.711799050820285E-011
   9.40500000000000         4.767478090885652E-011
   9.59500000000000         4.810168009890692E-011
   9.78500000000000         4.841163161693832E-011
   9.97500000000000         4.862112274420506E-011
   10.1650000000000         4.876362651468072E-011
   10.3550000000000         4.887504196458672E-011
   10.5450000000000         4.898739898489686E-011
   10.7350000000000         4.911345148569127E-011
   10.9250000000000         4.925452304732877E-011
   11.1150000000000         4.944139692960722E-011
   11.3050000000000         4.972925717402592E-011
   11.4950000000000         5.013561490301377E-011
   11.6850000000000         5.063902711702297E-011
   11.8750000000000         5.122383634915565E-011
   12.0650000000000         5.187882719399485E-011
   12.2550000000000         5.258992550354910E-011
   12.4450000000000         5.334141322126579E-011
   12.6350000000000         5.410952518589949E-011
   12.8250000000000         5.488498845422586E-011
   13.0150000000000         5.566370304192912E-011
   13.2050000000000         5.642898845450655E-011
   13.3950000000000         5.717127046999589E-011
   13.5850000000000         5.788811144695305E-011
   13.7750000000000         5.858628935701261E-011
   13.9650000000000         5.927656168077617E-011
   14.1550000000000         5.996742815041482E-011
   14.3450000000000         6.070115057443960E-011
   14.5350000000000         6.148065445387738E-011
   14.7250000000000         6.231763778466817E-011
   14.9150000000000         6.325811527481162E-011
   15.1050000000000         6.430432256767468E-011
   15.2950000000000         6.545099125858093E-011
   15.4850000000000         6.670291303915336E-011
   15.6750000000000         6.804858036586250E-011
   15.8650000000000         6.945881943768491E-011
   16.0550000000000         7.091735121256668E-011
   16.2450000000000         7.239242602214436E-011
   16.4350000000000         7.385517290338670E-011
   16.6250000000000         7.528137678016332E-011
   16.8150000000000         7.664205409467575E-011
   17.0050000000000         7.795651068082683E-011
   17.1950000000000         7.918656014709099E-011
   17.3850000000000         8.032548708147113E-011
   17.5750000000000         8.134096837803660E-011
   17.7650000000000         8.225497332831814E-011
   17.9550000000000         8.313626077341583E-011
   18.1450000000000         8.394842848226888E-011
   18.3350000000000         8.470614185485575E-011
   18.5250000000000         8.541022164876026E-011
   18.7150000000000         8.605857150421379E-011
   18.9050000000000         8.666830623176576E-011
   19.0950000000000         8.726411750456113E-011
   19.2850000000000         8.785437903917851E-011
   19.4750000000000         8.843718281980750E-011
   19.6650000000000         8.899804973340560E-011
   19.8550000000000         8.952477930009802E-011
   20.0450000000000         9.000882875122472E-011
   20.2350000000000         9.043617959229382E-011
   20.4250000000000         9.079198386838030E-011
   20.6150000000000         9.106714080223608E-011
   20.8050000000000         9.125586796051293E-011
   20.9950000000000         9.134760982470398E-011
   21.1850000000000         9.136555785886620E-011
   21.3750000000000         9.130016969496635E-011
   21.5650000000000         9.116344771305466E-011
   21.7550000000000         9.098925054439104E-011
   21.9450000000000         9.078576979952141E-011
   22.1350000000000         9.059656788441071E-011
   22.3250000000000         9.045919493376354E-011
   22.5150000000000         9.041556776855410E-011
   22.7050000000000         9.049978333622313E-011
   22.8950000000000         9.073446345349679E-011
   23.0850000000000         9.116943818176323E-011
   23.2750000000000         9.179392391895367E-011
   23.4650000000000         9.259795015549001E-011
   23.6550000000000         9.357108769105868E-011
   23.8450000000000         9.467010236090489E-011
   24.0350000000000         9.590290768533999E-011
   24.2250000000000         9.723393465908171E-011
   24.4150000000000         9.862392274336024E-011
   24.6050000000000         1.000535855061345E-010
   24.7950000000000         1.014918053827261E-010
   24.9850000000000         1.029053641551473E-010
   25.1750000000000         1.042650848629140E-010
   25.3650000000000         1.055517624068686E-010
   25.5550000000000         1.067511771237886E-010
   25.7450000000000         1.078452222922581E-010
   25.9350000000000         1.088386098042218E-010
   26.1250000000000         1.097544394271200E-010
   26.3150000000000         1.106124284708332E-010
   26.5050000000000         1.114321194316562E-010
   26.6950000000000         1.122290731027028E-010
   26.8850000000000         1.130238043352737E-010
   27.0750000000000         1.138379944255190E-010
   27.2650000000000         1.146941330863306E-010
   27.4550000000000         1.156022528919667E-010
   27.6450000000000         1.165585266358704E-010
   27.8350000000000         1.175384790763495E-010
   28.0250000000000         1.185441725236571E-010
   28.2150000000000         1.195733089750318E-010
   28.4050000000000         1.205926062945308E-010
   28.5950000000000         1.215831302869191E-010
   28.7850000000000         1.225205550117185E-010
   28.9750000000000         1.233714539819987E-010
   29.1650000000000         1.241080831548626E-010
   29.3550000000000         1.247050523480127E-010
   29.5450000000000         1.251330189026106E-010
   29.7350000000000         1.253812943950970E-010
   29.9250000000000         1.254487311767566E-010
   30.1150000000000         1.253447445527797E-010
   30.3050000000000         1.250881883470544E-010
   30.4950000000000         1.246954837172858E-010
   30.6850000000000         1.242030977684599E-010
   30.8750000000000         1.236541578391350E-010
   31.0650000000000         1.230777504621247E-010
   31.2550000000000         1.225022125584770E-010
   31.4450000000000         1.219580916383015E-010
   31.6350000000000         1.214695016635677E-010
   31.8250000000000         1.210519351472653E-010
   32.0150000000000         1.207183983078443E-010
   32.2050000000000         1.204819228717703E-010
   32.3950000000000         1.203552044863738E-010
   32.5850000000000         1.203383156795787E-010
   32.7750000000000         1.204312119457952E-010
   32.9650000000000         1.206423737103027E-010
   33.1550000000000         1.209510089099088E-010
   33.3450000000000         1.213478266282045E-010
   33.5350000000000         1.218346289073988E-010
   33.7250000000000         1.224034681577574E-010
   33.9150000000000         1.230476983771268E-010
   34.1050000000000         1.237570339514570E-010
   34.2950000000000         1.245176245470997E-010
   34.4850000000000         1.253083637687285E-010
   34.6750000000000         1.261247810247983E-010
   34.8650000000000         1.269636443029940E-010
   35.0550000000000         1.278157691653052E-010
   35.2450000000000         1.286768896684142E-010
   35.4350000000000         1.295384898832543E-010
   35.6250000000000         1.303850389570326E-010
   35.8150000000000         1.312049250551983E-010
   36.0050000000000         1.319853686605823E-010
   36.1950000000000         1.327155997533055E-010
   36.3850000000000         1.334053642186000E-010
   36.5750000000000         1.340476696868347E-010
   36.7650000000000         1.346400219074349E-010
   36.9550000000000         1.351898219693492E-010
   37.1450000000000         1.356960925526665E-010
   37.3350000000000         1.361742643254940E-010
   37.5250000000000         1.366347556310292E-010
   37.7150000000000         1.370865853150528E-010
   37.9050000000000         1.375363736472530E-010
   38.0950000000000         1.379867022203453E-010
   38.2850000000000         1.384366407176331E-010
   38.4750000000000         1.388873202262564E-010
   38.6650000000000         1.393325261269182E-010
   38.8550000000000         1.397643880994895E-010
   39.0450000000000         1.401796650099791E-010
   39.2350000000000         1.405713561154356E-010
   39.4250000000000         1.409270074403810E-010
   39.6150000000000         1.412297906604631E-010
   39.8050000000000         1.414555842501101E-010
   39.9950000000000         1.415892538354927E-010
   40.1850000000000         1.416259083972854E-010
   40.3750000000000         1.416030228151385E-010
   40.5650000000000         1.415030441420871E-010
   40.7550000000000         1.412739349451959E-010
   40.9450000000000         1.409316215693367E-010
   41.1350000000000         1.404957736849220E-010
   41.3250000000000         1.400063409248866E-010
   41.5150000000000         1.394752452555199E-010
   41.7050000000000         1.389190949865214E-010
   41.8950000000000         1.383963878737827E-010
   42.0850000000000         1.379337728518365E-010
   42.2750000000000         1.375359749485655E-010
   42.4650000000000         1.372217749171792E-010
   42.6550000000000         1.370163300153419E-010
   42.8450000000000         1.369335335735077E-010
   43.0350000000000         1.369769119066932E-010
   43.2250000000000         1.371515623076880E-010
   43.4150000000000         1.374564417853875E-010
   43.6050000000000         1.378663547216223E-010
   43.7950000000000         1.383677916053423E-010
   43.9850000000000         1.389459243520797E-010
   44.1750000000000         1.395721409335210E-010
   44.3650000000000         1.402299634307091E-010
   44.5550000000000         1.408999127963051E-010
   44.7450000000000         1.415485410592711E-010
   44.9350000000000         1.421532572279235E-010
   45.1250000000000         1.427095051398658E-010
   45.3150000000000         1.432084908415063E-010
   45.5050000000000         1.436521025787784E-010
   45.6950000000000         1.440532671164518E-010
   45.8850000000000         1.444237537477661E-010
   46.0750000000000         1.447715505171135E-010
   46.2650000000000         1.451078719853728E-010
   46.4550000000000         1.454441612146433E-010
   46.6450000000000         1.457897011927708E-010
   46.8350000000000         1.461450766437146E-010
   47.0250000000000         1.465150438670252E-010
   47.2150000000000         1.469044686061521E-010
   47.4050000000000         1.473031143483090E-010
   47.5950000000000         1.476954204844269E-010
   47.7850000000000         1.480618292754490E-010
   47.9750000000000         1.483845041026919E-010
   48.1650000000000         1.486476161207456E-010
   48.3550000000000         1.488274159405405E-010
   48.5450000000000         1.489111960927084E-010
   48.7350000000000         1.489081257528333E-010
   48.9250000000000         1.488350412891162E-010
   49.1150000000000         1.487058911414755E-010
   49.3050000000000         1.485332022581757E-010
   49.4950000000000         1.483417465361304E-010
   49.6850000000000         1.481610786469262E-010
   49.8750000000000         1.480226319506941E-010
   50.0650000000000         1.479495902615580E-010
   50.2550000000000         1.479497527408673E-010
   50.4450000000000         1.480193621187636E-010
   50.6350000000000         1.481524998623643E-010
   50.8250000000000         1.483453495359806E-010
   51.0150000000000         1.485605022658467E-010
   51.2050000000000         1.487739688527024E-010
   51.3950000000000         1.489681396212010E-010
   51.5850000000000         1.490950491957021E-010
   51.7750000000000         1.491176712431331E-010
   51.9650000000000         1.489968497972081E-010
   52.1550000000000         1.486960291406844E-010
   52.3450000000000         1.481977955132385E-010
   52.5350000000000         1.474982085499128E-010
   52.7250000000000         1.466029618574124E-010
   52.9150000000000         1.455331300956340E-010
   53.1050000000000         1.443275353298348E-010
   53.2950000000000         1.430359545852441E-010
   53.4850000000000         1.417150653214345E-010
   53.6750000000000         1.404234381155489E-010
   53.8650000000000         1.392208071518612E-010
   54.0550000000000         1.381586142663862E-010
   54.2450000000000         1.372710152301102E-010
   54.4350000000000         1.365825533709534E-010
   54.6250000000000         1.360967636591356E-010
   54.8150000000000         1.358167515715351E-010
   55.0050000000000         1.357396446803606E-010
   55.1950000000000         1.358422283323021E-010
   55.3850000000000         1.360991335893585E-010
   55.5750000000000         1.364612253616453E-010
   55.7650000000000         1.368750306856858E-010
   55.9550000000000         1.373044075234831E-010
   56.1450000000000         1.377115005763308E-010
   56.3350000000000         1.380503480676792E-010
   56.5250000000000         1.382877784924784E-010
   56.7150000000000         1.384065686748828E-010
   56.9050000000000         1.383962016349839E-010
   57.0950000000000         1.382607932973866E-010
   57.2850000000000         1.380110583072662E-010
   57.4750000000000         1.376704291026292E-010
   57.6650000000000         1.372590678398726E-010
   57.8550000000000         1.367936538729136E-010
   58.0450000000000         1.362975585458690E-010
   58.2350000000000         1.357810781015563E-010
   58.4250000000000         1.352483263655267E-010
   58.6150000000000         1.347069124385573E-010
   58.8050000000000         1.341626722719978E-010
   58.9950000000000         1.336201473932633E-010
   59.1850000000000         1.330818505504353E-010
   59.3750000000000         1.325479643835789E-010
   59.5650000000000         1.320176548411788E-010
   59.7550000000000         1.314867383646849E-010
   59.9450000000000         1.309450810462742E-010
   60.1350000000000         1.303765991359481E-010
   60.3250000000000         1.297656244735165E-010
   60.5150000000000         1.291059436273167E-010
   60.7050000000000         1.283938567520375E-010
   60.8950000000000         1.276271567296929E-010
   61.0850000000000         1.268058467832123E-010
   61.2750000000000         1.259300329850946E-010
   61.4650000000000         1.250030580262838E-010
   61.6550000000000         1.240228235804584E-010
   61.8450000000000         1.229802694161972E-010
   62.0350000000000         1.218636288266149E-010
   62.2250000000000         1.206743952050806E-010
   62.4150000000000         1.194023629524775E-010
   62.6050000000000         1.180491483790086E-010
   62.7950000000000         1.166410783163777E-010
   62.9850000000000         1.151729263914399E-010
   63.1750000000000         1.136415508765110E-010
   63.3650000000000         1.120703248872370E-010
   63.5550000000000         1.104688187681534E-010
   63.7450000000000         1.088476203943565E-010
   63.9350000000000         1.072285580743175E-010
   64.1250000000000         1.056165056494309E-010
   64.3150000000000         1.040219748960061E-010
   64.5050000000000         1.024653615717887E-010
   64.6950000000000         1.009633202399539E-010
   64.8850000000000         9.954958558773143E-011
   65.0750000000000         9.825004264724438E-011
   65.2650000000000         9.708169066751015E-011
   65.4550000000000         9.607600108618729E-011
   65.6450000000000         9.523633194364293E-011
   65.8350000000000         9.454961524452133E-011
   66.0250000000000         9.400592285846754E-011
   66.2150000000000         9.357678825499682E-011
   66.4050000000000         9.323337504804561E-011
   66.5950000000000         9.293280531186941E-011
   66.7850000000000         9.268534408107694E-011
   66.9750000000000         9.247682277084791E-011
   67.1650000000000         9.226046195169873E-011
   67.3550000000000         9.203794025048327E-011
   67.5450000000000         9.179169738683210E-011
   67.7350000000000         9.149277356222682E-011
   67.9250000000000         9.110472047461058E-011
   68.1150000000000         9.060924867409404E-011
   68.3050000000000         8.998945006983488E-011
   68.4950000000000         8.923835711889847E-011
   68.6850000000000         8.836459582682339E-011
   68.8750000000000         8.738114284838515E-011
   69.0650000000000         8.631570577610997E-011
   69.2550000000000         8.520023432356862E-011
   69.4450000000000         8.406298688936708E-011
   69.6350000000000         8.292299208320485E-011
   69.8250000000000         8.179463116913398E-011
   70.0150000000000         8.067955070158865E-011
   70.2050000000000         7.957045345113892E-011
   70.3950000000000         7.846205384686291E-011
   70.5850000000000         7.733899833107455E-011
   70.7750000000000         7.618302966775685E-011
   70.9650000000000         7.497772512597947E-011
   71.1550000000000         7.371244104329969E-011
   71.3450000000000         7.237729057873919E-011
   71.5350000000000         7.096007401126882E-011
   71.7250000000000         6.946921344975113E-011
   71.9150000000000         6.790030044343335E-011
   72.1050000000000         6.625951862444743E-011
   72.2950000000000         6.455226812653962E-011
   72.4850000000000         6.276941084663933E-011
   72.6750000000000         6.092509798168607E-011
   72.8650000000000         5.895385792141102E-011
   73.0550000000000         5.682965831249723E-011
   73.2450000000000         5.460951260015396E-011
   73.4350000000000         5.231464748541497E-011
   73.6250000000000         4.996462162049224E-011
   73.8150000000000         4.758044128583222E-011
   74.0050000000000         4.520022715990595E-011
   74.1950000000000         4.285237910667002E-011
   74.3850000000000         4.055579851138663E-011
   74.5750000000000         3.832559272202621E-011
   74.7650000000000         3.615642565248442E-011
   74.9550000000000         3.403341982436819E-011
   75.1450000000000         3.194722383212816E-011
   75.3350000000000         2.988887797828971E-011
   75.5250000000000         2.787570065471234E-011
   75.7150000000000         2.589850247053273E-011
   75.9050000000000         2.401378274634779E-011
   76.0950000000000         2.231586029824766E-011
   76.2850000000000         2.082645185847243E-011
   76.4750000000000         1.957307589611487E-011
   76.6650000000000         1.854682939856177E-011
   76.8550000000000         1.769974258329656E-011
   77.0450000000000         1.695595483217211E-011
   77.2350000000000         1.622562276548736E-011
   77.4250000000000         1.540848701278872E-011
   77.6150000000000         1.440339343294706E-011
   77.8050000000000         1.315181492840280E-011
   77.9950000000000         1.165281176818350E-011
   78.1850000000000         9.954454292523524E-012
   78.3750000000000         8.154854493684856E-012
   78.5650000000000         6.384316193067756E-012
   78.7550000000000         4.751991051460000E-012
   78.9450000000000         3.341826696992357E-012
   79.1350000000000         2.161901742349977E-012
   79.3250000000000         1.175531973094345E-012
   79.5150000000000         2.739200515886109E-013
   79.7050000000000        -7.224658044755175E-013
   79.8950000000000        -1.961899589394766E-012
   80.0850000000000        -3.567458409206979E-012
   80.2750000000000        -5.602839023664467E-012
   80.4650000000000        -8.059010035328735E-012
   80.6550000000000        -1.084257659241019E-011
   80.8450000000000        -1.380469640343683E-011
   81.0350000000000        -1.676246612016032E-011
   81.2250000000000        -1.953420576729437E-011
   81.4150000000000        -2.197110448048315E-011
   81.6050000000000        -2.397403469057558E-011
   81.7950000000000        -2.554843916926762E-011
   81.9850000000000        -2.680327904139948E-011
   82.1750000000000        -2.789057755510000E-011
   82.3650000000000        -2.900061506047553E-011
   82.5550000000000        -3.033563522084101E-011
   82.7450000000000        -3.205016405834161E-011
   82.9350000000000        -3.422861720986395E-011
   83.1250000000000        -3.687419235267235E-011
   83.3150000000000        -3.990514876943076E-011
   83.5050000000000        -4.317162183490325E-011
   83.6950000000000        -4.648545091556097E-011
   83.8850000000000        -4.966972748053021E-011
   84.0750000000000        -5.260925144090915E-011
   84.2650000000000        -5.525753195344392E-011
   84.4550000000000        -5.765659010822020E-011
   84.6450000000000        -5.989404578978110E-011
   84.8350000000000        -6.204343713707622E-011
   85.0250000000000        -6.413600383648728E-011
   85.2150000000000        -6.614171410702573E-011
   85.4050000000000        -6.796151450633221E-011
   85.5950000000000        -6.943555819360170E-011
   85.7850000000000        -7.042046976282531E-011
   85.9750000000000        -7.085322049970512E-011
   86.1650000000000        -7.082443293885202E-011
   86.3550000000000        -7.062793679362570E-011
   86.5450000000000        -7.075980088719026E-011
   86.7350000000000        -7.183935388279281E-011
   86.9250000000000        -7.444987809325456E-011
   87.1150000000000        -7.896013841438382E-011
   87.3050000000000        -8.534879945635157E-011
   87.4950000000000        -9.309765631626364E-011
   87.6850000000000        -1.011688905808302E-010
   87.8750000000000        -1.081757474492667E-010
   88.0650000000000        -1.126593856167760E-010
   88.2550000000000        -1.134241813005202E-010
   88.4450000000000        -1.099104847372943E-010
   88.6350000000000        -1.024594047201924E-010
   88.8250000000000        -9.242076449865181E-011
   89.0150000000000        -8.199372187877011E-011
   89.2050000000000        -7.383032229337700E-011
   89.3950000000000        -7.046548129174321E-011
   89.5850000000000        -7.369082276519797E-011
   89.7750000000000        -8.402664697648845E-011
   89.9650000000000        -1.004772529198564E-010
   90.1550000000000        -1.205894926478504E-010
   90.3450000000000        -1.408678196071936E-010
   90.5350000000000        -1.575152448572223E-010
   90.7250000000000        -1.672900710227533E-010
   90.9150000000000        -1.683159614847047E-010
   91.1050000000000        -1.605896040528250E-010
   91.2950000000000        -1.460665266990165E-010
   91.4850000000000        -1.282812164921628E-010
   91.6750000000000        -1.115471744492895E-010
   91.8650000000000        -9.996614353671907E-011
   92.0550000000000        -9.643995691205491E-011
   92.2450000000000        -1.019906462464961E-010
   92.4350000000000        -1.155521210274923E-010
   92.6250000000000        -1.342680755157165E-010
   92.8150000000000        -1.542937840240555E-010
   93.0050000000000        -1.718368737996704E-010
   93.1950000000000        -1.841688351146886E-010
   93.3850000000000        -1.902963249970614E-010
   93.5750000000000        -1.911173353861622E-010
   93.7650000000000        -1.890127944056486E-010
   93.9550000000000        -1.869557096650309E-010
   94.1450000000000        -1.874303400529288E-010
   94.3350000000000        -1.914968824717722E-010
   94.5250000000000        -1.983282125833671E-010
   94.7150000000000        -2.053659491679381E-010
   94.9050000000000        -2.091396578488459E-010
   95.0950000000000        -2.065169255053687E-010
   95.2850000000000        -1.959964767674870E-010
   95.4750000000000        -1.787330161731542E-010
   95.6650000000000        -1.587375747189338E-010
   95.8550000000000        -1.422785612807794E-010
   96.0450000000000        -1.363589461317149E-010
   96.2350000000000        -1.467386210006951E-010
   96.4250000000000        -1.760759483279516E-010
   96.6150000000000        -2.224495811222193E-010
   96.8050000000000        -2.790455693632356E-010
   96.9950000000000        -3.351176609440542E-010
   97.1850000000000        -3.781368200991987E-010
   97.3750000000000        -3.967351576233510E-010
   97.5650000000000        -3.836936321191417E-010
   97.7550000000000        -3.383129721016973E-010
   97.9450000000000        -2.674303320673037E-010
   98.1350000000000        -1.846089911006583E-010
   98.3250000000000        -1.076345368801124E-010
   98.5150000000000        -5.473487577219907E-011
   98.7050000000000        -4.030816768555986E-011
   98.8950000000000        -7.120523358715036E-011
   99.0850000000000        -1.445352078075451E-010
   99.2750000000000        -2.476326957640229E-010
   99.4650000000000        -3.604084088651823E-010
   99.6550000000000        -4.595866463737358E-010
   99.8450000000000        -5.239774998501796E-010
   100.035000000000        -5.395017289145668E-010
   100.225000000000        -5.027277446979654E-010
   100.415000000000        -4.220003872948894E-010
   100.605000000000        -3.157150562462666E-010
   100.795000000000        -2.081365797306825E-010
   100.985000000000        -1.236810178337142E-010
   101.175000000000        -8.106215234662677E-011
   101.365000000000        -8.882045834760424E-011
   101.555000000000        -1.433966966914680E-010
   101.745000000000        -2.302596385841826E-010
   101.935000000000        -3.278579242528859E-010
   102.125000000000        -4.133698597206049E-010
   102.315000000000        -4.687382748431256E-010
   102.505000000000        -4.852971116861206E-010
   102.695000000000        -4.657529901032686E-010
   102.885000000000        -4.229189483518935E-010
   103.075000000000        -3.754947707082841E-010
   103.265000000000        -3.421338844157106E-010
   103.455000000000        -3.354556399293626E-010
   103.645000000000        -3.578224534753025E-010
   103.835000000000        -4.002671650121495E-010
   104.025000000000        -4.450310956560815E-010
   104.215000000000        -4.711094343683030E-010
   104.405000000000        -4.613793659332008E-010
   104.595000000000        -4.091588419315960E-010
   104.785000000000        -3.220511859528051E-010
   104.975000000000        -2.217202678696165E-010
   105.165000000000        -1.391673009904706E-010
   105.355000000000        -1.064510162990929E-010
   105.545000000000        -1.469719231580618E-010
   105.735000000000        -2.670153688034699E-010
   105.925000000000        -4.511887030837528E-010
   106.115000000000        -6.635064112688694E-010
   106.305000000000        -8.544611217808680E-010
   106.495000000000        -9.727976517989078E-010
   106.685000000000        -9.791084271885142E-010
   106.875000000000        -8.578430155592058E-010
   107.065000000000        -6.241405674138200E-010
   107.255000000000        -3.232718061496588E-010
   107.445000000000        -2.213704794398986E-011
   107.635000000000         2.058204034775494E-010
   107.825000000000         2.986315786688891E-010
   108.015000000000         2.223938890952773E-010
   108.205000000000        -1.802263922181640E-011
   108.395000000000        -3.774147336886239E-010
   108.585000000000        -7.788680589261834E-010
   108.775000000000        -1.130968723972602E-009
   108.965000000000        -1.349735693451876E-009
   109.155000000000        -1.379888531872778E-009
   109.345000000000        -1.209902039474232E-009
   109.535000000000        -8.765838535231595E-010
   109.725000000000        -4.575772105974550E-010
   109.915000000000        -5.313053787327920E-011
   110.105000000000         2.386134527007465E-010