  -1.42500000000000        -6.550598656203603E-020
  -1.23500000000000        -1.506905235091246E-016
  -1.04500000000000        -1.315820742456619E-015
 -0.855000000000000        -7.043025184338615E-015
 -0.665000000000000        -2.935293896918124E-014
 -0.475000000000000        -1.028531705872411E-013
 -0.285000000000000        -3.093390941470269E-013
 -9.499999999999975E-002   -8.033360491179308E-013
  9.500000000000020E-002   -1.838671922295225E-012
  0.285000000000000        -3.738762576857878E-012
  0.475000000000000        -6.864834517333706E-012
  0.665000000000000        -1.152856004232746E-011
  0.855000000000000        -1.790024334983784E-011
   1.04500000000000        -2.597570837435430E-011
   1.23500000000000        -3.561874644589607E-011
   1.42500000000000        -4.637292232407903E-011
   1.61500000000000        -5.783609267310771E-011
   1.80500000000000        -7.007431899188621E-011
   1.99500000000000        -8.245735244175207E-011
   2.18500000000000        -9.450842161554261E-011
   2.37500000000000        -1.062014085456914E-010
   2.56500000000000        -1.167701278753631E-010
   2.75500000000000        -1.265909220740001E-010
   2.94500000000000        -1.360602165968046E-010
   3.13500000000000        -1.446188465255737E-010
   3.32500000000000        -1.521720377130621E-010
   3.51500000000000        -1.593631769438150E-010
   3.70500000000000        -1.659999587872376E-010
   3.89500000000000        -1.717380271558684E-010
   4.08500000000000        -1.773475518027051E-010
   4.27500000000000        -1.831901139852441E-010
   4.46500000000000        -1.897382743352700E-010
   4.65500000000000        -1.970485300236423E-010
   4.84500000000000        -2.045163717900356E-010
   5.03500000000000        -2.122039171930426E-010
   5.22500000000000        -2.202037129460341E-010
   5.41500000000000        -2.279039552285862E-010
   5.60500000000000        -2.349864981782135E-010
   5.79500000000000        -2.414003364369165E-010
   5.98500000000000        -2.470431684295783E-010
   6.17500000000000        -2.522781571427593E-010
   6.36500000000000        -2.571613061754078E-010
   6.55500000000000        -2.616922061327657E-010
   6.74500000000000        -2.664026062471010E-010
   6.93500000000000        -2.717465174903496E-010
   7.12500000000000        -2.781087087175653E-010
   7.31500000000000        -2.858270101990296E-010
   7.50500000000000        -2.951455083964531E-010
   7.69500000000000        -3.061737500085912E-010
   7.88500000000000        -3.188241463088220E-010
   8.07500000000000        -3.329100782536597E-010
   8.26500000000000        -3.481325959833941E-010
   8.45500000000000        -3.640938394078331E-010
   8.64500000000000        -3.805902485182608E-010
   8.83500000000000        -3.970676318546910E-010
   9.02500000000000        -4.126229609362748E-010
   9.21500000000000        -4.266729332161060E-010
   9.40500000000000        -4.388047346318762E-010
   9.59500000000000        -4.487203672445431E-010
   9.78500000000000        -4.563415280542188E-010
   9.97500000000000        -4.617223756689098E-010
   10.1650000000000        -4.650508377934733E-010
   10.3550000000000        -4.668867688706089E-010
   10.5450000000000        -4.678774065084861E-010
   10.7350000000000        -4.680052303459421E-010
   10.9250000000000        -4.676868569286586E-010
   11.1150000000000        -4.678510610054226E-010
   11.3050000000000        -4.690189628839742E-010
   11.4950000000000        -4.709416020668068E-010
   11.6850000000000        -4.734372748773373E-010
   11.8750000000000        -4.769920251857555E-010
   12.0650000000000        -4.817233345310026E-010
   12.2550000000000        -4.873678404763537E-010
   12.4450000000000        -4.940433377798402E-010
   12.6350000000000        -5.012369481321763E-010
   12.8250000000000        -5.083923237964298E-010
   13.0150000000000        -5.154406550839344E-010
   13.2050000000000        -5.219956852252881E-010
   13.3950000000000        -5.280070216758011E-010
   13.5850000000000        -5.331703314360302E-010
   13.7750000000000        -5.374287357073381E-010
   13.9650000000000        -5.410287444190113E-010
   14.1550000000000        -5.440801956487844E-010
   14.3450000000000        -5.469220326247684E-010
   14.5350000000000        -5.501682380245124E-010
   14.7250000000000        -5.539205020248287E-010
   14.9150000000000        -5.581244325092954E-010
   15.1050000000000        -5.634246758685572E-010
   15.2950000000000        -5.698007411606958E-010
   15.4850000000000        -5.769769833274744E-010
   15.6750000000000        -5.849753646417908E-010
   15.8650000000000        -5.936475220628280E-010
   16.0550000000000        -6.029098765015184E-010
   16.2450000000000        -6.126891224706098E-010
   16.4350000000000        -6.229777230455063E-010
   16.6250000000000        -6.337174142847813E-010
   16.8150000000000        -6.447250147835510E-010
   17.0050000000000        -6.558877177863501E-010
   17.1950000000000        -6.671452316042388E-010
   17.3850000000000        -6.783919701974248E-010
   17.5750000000000        -6.894987780088107E-010
   17.7650000000000        -7.005498889801640E-010
   17.9550000000000        -7.116416839371435E-010
   18.1450000000000        -7.227386156321021E-010
   18.3350000000000        -7.339153312302325E-010
   18.5250000000000        -7.452855818584659E-010
   18.7150000000000        -7.571854793572684E-010
   18.9050000000000        -7.693837377517213E-010
   19.0950000000000        -7.815423109796959E-010
   19.2850000000000        -7.942328257439796E-010
   19.4750000000000        -8.074995010159941E-010
   19.6650000000000        -8.203411074628032E-010
   19.8550000000000        -8.325022901195787E-010
   20.0450000000000        -8.443295663454565E-010
   20.2350000000000        -8.555927323818863E-010
   20.4250000000000        -8.660337792102591E-010
   20.6150000000000        -8.753721291356445E-010
   20.8050000000000        -8.838175133048315E-010
   20.9950000000000        -8.917239086707437E-010
   21.1850000000000        -8.989382535695988E-010
   21.3750000000000        -9.058288941600963E-010
   21.5650000000000        -9.129338688707115E-010
   21.7550000000000        -9.205606171764576E-010
   21.9450000000000        -9.290913873280672E-010
   22.1350000000000        -9.387021319731523E-010
   22.3250000000000        -9.494041372897666E-010
   22.5150000000000        -9.614733440228140E-010
   22.7050000000000        -9.752000470207414E-010
   22.8950000000000        -9.905874329736025E-010
   23.0850000000000        -1.007593612474523E-009
   23.2750000000000        -1.025989928779160E-009
   23.4650000000000        -1.045331620373236E-009
   23.6550000000000        -1.065344737415625E-009
   23.8450000000000        -1.085894951749701E-009
   24.0350000000000        -1.106528311500246E-009
   24.2250000000000        -1.127015747375277E-009
   24.4150000000000        -1.147322759496114E-009
   24.6050000000000        -1.166801392246931E-009
   24.7950000000000        -1.184954963293600E-009
   24.9850000000000        -1.201756363178580E-009
   25.1750000000000        -1.217180723294872E-009
   25.3650000000000        -1.230889351723578E-009
   25.5550000000000        -1.243249563904339E-009
   25.7450000000000        -1.253914033240064E-009
   25.9350000000000        -1.262385425162781E-009
   26.1250000000000        -1.269534356610118E-009
   26.3150000000000        -1.276473983254992E-009
   26.5050000000000        -1.283688768189717E-009
   26.6950000000000        -1.290966864794741E-009
   26.8850000000000        -1.298768892136996E-009
   27.0750000000000        -1.307583249925516E-009
   27.2650000000000        -1.317201596489994E-009
   27.4550000000000        -1.327492140188019E-009
   27.6450000000000        -1.338489600458536E-009
   27.8350000000000        -1.349995861057930E-009
   28.0250000000000        -1.361603855057043E-009
   28.2150000000000        -1.372818301778813E-009
   28.4050000000000        -1.383157983360254E-009
   28.5950000000000        -1.392323028387920E-009
   28.7850000000000        -1.400041162079782E-009
   28.9750000000000        -1.405830577773727E-009
   29.1650000000000        -1.409395339529250E-009
   29.3550000000000        -1.410465312062035E-009
   29.5450000000000        -1.408796025200434E-009
   29.7350000000000        -1.404290722320613E-009
   29.9250000000000        -1.397035221373003E-009
   30.1150000000000        -1.387317311176185E-009
   30.3050000000000        -1.375633153136015E-009
   30.4950000000000        -1.362647835494091E-009
   30.6850000000000        -1.349256200316694E-009
   30.8750000000000        -1.336231993939235E-009
   31.0650000000000        -1.324298190881767E-009
   31.2550000000000        -1.314325204948800E-009
   31.4450000000000        -1.306902119260559E-009
   31.6350000000000        -1.302441847791006E-009
   31.8250000000000        -1.301208196370263E-009
   32.0150000000000        -1.303203947223918E-009
   32.2050000000000        -1.308172578147808E-009
   32.3950000000000        -1.315656790196176E-009
   32.5850000000000        -1.325151351365505E-009
   32.7750000000000        -1.335717712448149E-009
   32.9650000000000        -1.346966643144532E-009
   33.1550000000000        -1.358649352784035E-009
   33.3450000000000        -1.370036205166121E-009
   33.5350000000000        -1.380846385128607E-009
   33.7250000000000        -1.389868111938514E-009
   33.9150000000000        -1.397305790120429E-009
   34.1050000000000        -1.403512478860729E-009
   34.2950000000000        -1.407863552373388E-009
   34.4850000000000        -1.411596248255049E-009
   34.6750000000000        -1.415251175160939E-009
   34.8650000000000        -1.418568415598530E-009
   35.0550000000000        -1.422442716212640E-009
   35.2450000000000        -1.427699739742374E-009
   35.4350000000000        -1.434189796714482E-009
   35.6250000000000        -1.441976741724060E-009
   35.8150000000000        -1.451211218093733E-009
   36.0050000000000        -1.461770791281978E-009
   36.1950000000000        -1.473761303612629E-009
   36.3850000000000        -1.486603629857021E-009
   36.5750000000000        -1.499456476478484E-009
   36.7650000000000        -1.512103828849417E-009
   36.9550000000000        -1.524525636875413E-009
   37.1450000000000        -1.536398744598346E-009
   37.3350000000000        -1.547563975664332E-009
   37.5250000000000        -1.558413543081064E-009
   37.7150000000000        -1.568927686586261E-009
   37.9050000000000        -1.579042174953377E-009
   38.0950000000000        -1.588935154112556E-009
   38.2850000000000        -1.599018897462572E-009
   38.4750000000000        -1.610180376828754E-009
   38.6650000000000        -1.623111798829003E-009
   38.8550000000000        -1.638087499801636E-009
   39.0450000000000        -1.655442333652739E-009
   39.2350000000000        -1.675475048906993E-009
   39.4250000000000        -1.698222674749367E-009
   39.6150000000000        -1.723541083378914E-009
   39.8050000000000        -1.751182868408609E-009
   39.9950000000000        -1.780778246088929E-009
   40.1850000000000        -1.811850542639167E-009
   40.3750000000000        -1.843310235455067E-009
   40.5650000000000        -1.874122695215772E-009
   40.7550000000000        -1.904158018561771E-009
   40.9450000000000        -1.932718091343588E-009
   41.1350000000000        -1.959167036833675E-009
   41.3250000000000        -1.983616158241192E-009
   41.5150000000000        -2.005665210306877E-009
   41.7050000000000        -2.024918013082056E-009
   41.8950000000000        -2.041191198749329E-009
   42.0850000000000        -2.054557997345262E-009
   42.2750000000000        -2.065251485829290E-009
   42.4650000000000        -2.073320729854910E-009
   42.6550000000000        -2.078854388237158E-009
   42.8450000000000        -2.081983092269389E-009
   43.0350000000000        -2.083051469009994E-009
   43.2250000000000        -2.082488644502040E-009
   43.4150000000000        -2.080630584443113E-009
   43.6050000000000        -2.077536787509163E-009
   43.7950000000000        -2.074032472420540E-009
   43.9850000000000        -2.071118970031982E-009
   44.1750000000000        -2.068572789776269E-009
   44.3650000000000        -2.067093558570884E-009
   44.5550000000000        -2.067506659939773E-009
   44.7450000000000        -2.070086089295568E-009
   44.9350000000000        -2.075250195614196E-009
   45.1250000000000        -2.082941940151188E-009
   45.3150000000000        -2.093245710310340E-009
   45.5050000000000        -2.106070005149448E-009
   45.6950000000000        -2.120970761193641E-009
   45.8850000000000        -2.137531018863691E-009
   46.0750000000000        -2.155073337893888E-009
   46.2650000000000        -2.173237601487850E-009
   46.4550000000000        -2.191706102776881E-009
   46.6450000000000        -2.209378453420422E-009
   46.8350000000000        -2.225649426954047E-009
   47.0250000000000        -2.240248185444097E-009
   47.2150000000000        -2.252611820246625E-009
   47.4050000000000        -2.262455575369224E-009
   47.5950000000000        -2.269665924924813E-009
   47.7850000000000        -2.274252085194118E-009
   47.9750000000000        -2.276450623784682E-009
   48.1650000000000        -2.276477159905176E-009
   48.3550000000000        -2.274608482242216E-009
   48.5450000000000        -2.271211501711383E-009
   48.7350000000000        -2.266899372174999E-009
   48.9250000000000        -2.262901898597957E-009
   49.1150000000000        -2.259743138600454E-009
   49.3050000000000        -2.257804817820509E-009
   49.4950000000000        -2.257801907553384E-009
   49.6850000000000        -2.260151081937026E-009
   49.8750000000000        -2.265366226526166E-009
   50.0650000000000        -2.273778064351006E-009
   50.2550000000000        -2.285392945582607E-009
   50.4450000000000        -2.299917254279543E-009
   50.6350000000000        -2.316534378812919E-009
   50.8250000000000        -2.334854937262757E-009
   51.0150000000000        -2.354545379199270E-009
   51.2050000000000        -2.374315125004099E-009
   51.3950000000000        -2.392970867645682E-009
   51.5850000000000        -2.409674920347870E-009
   51.7750000000000        -2.424006718630546E-009
   51.9650000000000        -2.435710956204257E-009
   52.1550000000000        -2.444624977168076E-009
   52.3450000000000        -2.450827421659313E-009
   52.5350000000000        -2.454686211919062E-009
   52.7250000000000        -2.456774282701694E-009
   52.9150000000000        -2.457735523415605E-009
   53.1050000000000        -2.458294330248769E-009
   53.2950000000000        -2.458935648688221E-009
   53.4850000000000        -2.460431093200491E-009
   53.6750000000000        -2.463374471831000E-009
   53.8650000000000        -2.467866118988056E-009
   54.0550000000000        -2.474122314967610E-009
   54.2450000000000        -2.482356354618531E-009
   54.4350000000000        -2.492751048647915E-009
   54.6250000000000        -2.505305297018881E-009
   54.8150000000000        -2.519851642041930E-009
   55.0050000000000        -2.536222348505241E-009
   55.1950000000000        -2.554025947874799E-009
   55.3850000000000        -2.572711608244592E-009
   55.5750000000000        -2.591830853470547E-009
   55.7650000000000        -2.610788323936195E-009
   55.9550000000000        -2.628969576040085E-009
   56.1450000000000        -2.645774406426503E-009
   56.3350000000000        -2.660870417995736E-009
   56.5250000000000        -2.674255829243005E-009
   56.7150000000000        -2.685933235417345E-009
   56.9050000000000        -2.696079973939765E-009
   57.0950000000000        -2.704884878817700E-009
   57.2850000000000        -2.712609722289868E-009
   57.4750000000000        -2.719552936290849E-009
   57.6650000000000        -2.725927492819678E-009
   57.8550000000000        -2.732198878734690E-009
   58.0450000000000        -2.738373521916714E-009
   58.2350000000000        -2.744454915900808E-009
   58.4250000000000        -2.751312891720392E-009
   58.6150000000000        -2.758609240769857E-009
   58.8050000000000        -2.766079438882806E-009
   58.9950000000000        -2.774340751480133E-009
   59.1850000000000        -2.783675678304146E-009
   59.3750000000000        -2.793653511306282E-009
   59.5650000000000        -2.803483998105446E-009
   59.7550000000000        -2.813112746262664E-009
   59.9450000000000        -2.822503519568024E-009
   60.1350000000000        -2.831607795374775E-009
   60.3250000000000        -2.840052804648522E-009
   60.5150000000000        -2.847121144008456E-009
   60.7050000000000        -2.853003982600540E-009
   60.8950000000000        -2.858001739926669E-009
   61.0850000000000        -2.861925600891066E-009
   61.2750000000000        -2.864737203673499E-009
   61.4650000000000        -2.866370947733474E-009
   61.6550000000000        -2.866913699699126E-009
   61.8450000000000        -2.866278325978964E-009
   62.0350000000000        -2.864422034164953E-009
   62.2250000000000        -2.861577747199243E-009
   62.4150000000000        -2.857795725684361E-009
   62.6050000000000        -2.853118293489994E-009
   62.7950000000000        -2.848241826938154E-009
   62.9850000000000        -2.843736697604039E-009
   63.1750000000000        -2.839423866367643E-009
   63.3650000000000        -2.835655835011668E-009
   63.5550000000000        -2.833285852860076E-009
   63.7450000000000        -2.832352763852658E-009
   63.9350000000000        -2.832430498728511E-009
   64.1250000000000        -2.833569285999307E-009
   64.3150000000000        -2.835904151148430E-009
   64.5050000000000        -2.839435978224803E-009
   64.6950000000000        -2.844165997533450E-009
   64.8850000000000        -2.849962103588657E-009
   65.0750000000000        -2.856787245838284E-009
   65.2650000000000        -2.864541831420984E-009
   65.4550000000000        -2.872802994098539E-009
   65.6450000000000        -2.881576363362658E-009
   65.8350000000000        -2.891124769853180E-009
   66.0250000000000        -2.901368409759329E-009
   66.2150000000000        -2.911469148499634E-009
   66.4050000000000        -2.920945335803859E-009
   66.5950000000000        -2.930288315882229E-009
   66.7850000000000        -2.939744351438855E-009
   66.9750000000000        -2.948921940264492E-009
   67.1650000000000        -2.957443105292906E-009
   67.3550000000000        -2.965312042721160E-009
   67.5450000000000        -2.972830638433651E-009
   67.7350000000000        -2.979998052267304E-009
   67.9250000000000        -2.986276763351186E-009
   68.1150000000000        -2.992154460860305E-009
   68.3050000000000        -2.997981072916425E-009
   68.4950000000000        -3.003646427156738E-009
   68.6850000000000        -3.009523683215082E-009
   68.8750000000000        -3.015845162210409E-009
   69.0650000000000        -3.022745776911463E-009
   69.2550000000000        -3.030372923663816E-009
   69.4450000000000        -3.038965629065084E-009
   69.6350000000000        -3.048423022025132E-009
   69.8250000000000        -3.058861938603282E-009
   70.0150000000000        -3.070055204794677E-009
   70.2050000000000        -3.081789548695737E-009
   70.3950000000000        -3.095177087350001E-009
   70.5850000000000        -3.110133946676156E-009
   70.7750000000000        -3.125415329889426E-009
   70.9650000000000        -3.140964346370174E-009
   71.1550000000000        -3.157429806208228E-009
   71.3450000000000        -3.174778116943042E-009
   71.5350000000000        -3.192865560408356E-009
   71.7250000000000        -3.211729735631974E-009
   71.9150000000000        -3.231506816895200E-009
   72.1050000000000        -3.252255946786380E-009
   72.2950000000000        -3.273928260241165E-009
   72.4850000000000        -3.296471524489653E-009
   72.6750000000000        -3.319741508607403E-009
   72.8650000000000        -3.343657216685926E-009
   73.0550000000000        -3.367488320113453E-009
   73.2450000000000        -3.390095872479228E-009
   73.4350000000000        -3.410278421998740E-009
   73.6250000000000        -3.427069199100311E-009
   73.8150000000000        -3.440305375794495E-009
   74.0050000000000        -3.449815399467703E-009
   74.1950000000000        -3.455708483029272E-009
   74.3850000000000        -3.459007154275127E-009
   74.5750000000000        -3.461041445964653E-009
   74.7650000000000        -3.463246742986746E-009
   74.9550000000000        -3.466858899024067E-009
   75.1450000000000        -3.472669171371692E-009
   75.3350000000000        -3.480873965289937E-009
   75.5250000000000        -3.490838308367998E-009
   75.7150000000000        -3.501378918443520E-009
   75.9050000000000        -3.511030533369400E-009
   76.0950000000000        -3.518641308344588E-009
   76.2850000000000        -3.523365856228213E-009
   76.4750000000000        -3.524481059255356E-009
   76.6650000000000        -3.522726609245554E-009
   76.8550000000000        -3.518935124649510E-009
   77.0450000000000        -3.513976120081885E-009
   77.2350000000000        -3.509734398994671E-009
   77.4250000000000        -3.507003048875886E-009
   77.6150000000000        -3.506202906715140E-009
   77.8050000000000        -3.507547847894422E-009
   77.9950000000000        -3.510195994050805E-009
   78.1850000000000        -3.513005380884801E-009
   78.3750000000000        -3.514526343348144E-009
   78.5650000000000        -3.513172630655109E-009
   78.7550000000000        -3.507928628602857E-009
   78.9450000000000        -3.497831846590624E-009
   79.1350000000000        -3.482961661130529E-009
   79.3250000000000        -3.464005642563402E-009
   79.5150000000000        -3.441206454727018E-009
   79.7050000000000        -3.416217965357167E-009
   79.8950000000000        -3.391489889752898E-009
   80.0850000000000        -3.369766149204984E-009
   80.2750000000000        -3.353822060125680E-009
   80.4650000000000        -3.346319753660016E-009
   80.6550000000000        -3.349862498771212E-009
   80.8450000000000        -3.366015774177992E-009
   81.0350000000000        -3.394866725250170E-009
   81.2250000000000        -3.434611073892142E-009
   81.4150000000000        -3.481661170254106E-009
   81.6050000000000        -3.530922225471570E-009
   81.7950000000000        -3.575619545790837E-009
   81.9850000000000        -3.608996410049919E-009
   82.1750000000000        -3.625393821692585E-009
   82.3650000000000        -3.621266257254458E-009
   82.5550000000000        -3.596708688705420E-009
   82.7450000000000        -3.556055451709176E-009
   82.9350000000000        -3.507461348003126E-009
   83.1250000000000        -3.462039161230092E-009
   83.3150000000000        -3.432348912666937E-009
   83.5050000000000        -3.429316829186951E-009
   83.6950000000000        -3.460186365360482E-009
   83.8850000000000        -3.526324119154807E-009
   84.0750000000000        -3.621666789146764E-009
   84.2650000000000        -3.733863158759156E-009
   84.4550000000000        -3.845013681015992E-009
   84.6450000000000        -3.934705461061411E-009
   84.8350000000000        -3.984381144694443E-009
   85.0250000000000        -3.980250884980338E-009
   85.2150000000000        -3.917463530456019E-009
   85.4050000000000        -3.801753796764600E-009
   85.5950000000000        -3.649179115969373E-009
   85.7850000000000        -3.484419356142868E-009
   85.9750000000000        -3.336907104039020E-009
   86.1650000000000        -3.235454668113812E-009
   86.3550000000000        -3.202782572473741E-009
   86.5450000000000        -3.251615024586997E-009
   86.7350000000000        -3.381639178718816E-009
   86.9250000000000        -3.578716880456725E-009
   87.1150000000000        -3.816568669552380E-009
   87.3050000000000        -4.060808799426256E-009
   87.4950000000000        -4.274679928356717E-009
   87.6850000000000        -4.424370258664795E-009
   87.8750000000000        -4.484797232882041E-009
   88.0650000000000        -4.443809866263097E-009
   88.2550000000000        -4.304112544058830E-009
   88.4450000000000        -4.083284617252579E-009
   88.6350000000000        -3.811492857243089E-009
   88.8250000000000        -3.527548930270119E-009
   89.0150000000000        -3.274479103859861E-009
   89.2050000000000        -3.093133288976035E-009
   89.3950000000000        -3.016429957751917E-009
   89.5850000000000        -3.064851299116616E-009
   89.7750000000000        -3.242207163619720E-009
   89.9650000000000        -3.534300105476327E-009
   90.1550000000000        -3.909270983028253E-009
   90.3450000000000        -4.320183750853669E-009
   90.5350000000000        -4.710029394262769E-009
   90.7250000000000        -5.019085654466075E-009
   90.9150000000000        -5.192950832338703E-009
   91.1050000000000        -5.191360237246154E-009
   91.2950000000000        -4.996706232171941E-009
   91.4850000000000        -4.619616033939759E-009
   91.6750000000000        -4.100471892533664E-009
   91.8650000000000        -3.506993693349865E-009
   92.0550000000000        -2.926288862399453E-009
   92.2450000000000        -2.452453609131515E-009
   92.4350000000000        -2.171541952775569E-009
   92.6250000000000        -2.145953559789330E-009
   92.8150000000000        -2.400922629183535E-009
   93.0050000000000        -2.916399930533150E-009
   93.1950000000000        -3.626014892741912E-009
   93.3850000000000        -4.425969447927292E-009
   93.5750000000000        -5.189932718153832E-009
   93.7650000000000        -5.788884604287591E-009
   93.9550000000000        -6.114768147983111E-009
   94.1450000000000        -6.100260103649333E-009
   94.3350000000000        -5.732846895041579E-009
   94.5250000000000        -5.059410528503225E-009
   94.7150000000000        -4.180172217556615E-009
   94.9050000000000        -3.232548709268055E-009
   95.0950000000000        -2.368289314523422E-009
   95.2850000000000        -1.727602842172382E-009
   95.4750000000000        -1.415286693511696E-009
   95.6650000000000        -1.483359224190577E-009
   95.8550000000000        -1.923027256446927E-009
   96.0450000000000        -2.667208220786365E-009
   96.2350000000000        -3.603908046524750E-009
   96.4250000000000        -4.594187117847590E-009
   96.6150000000000        -5.494520413764610E-009
   96.8050000000000        -6.179270785239840E-009
   96.9950000000000        -6.557174377289145E-009
   97.1850000000000        -6.581066990119667E-009
   97.3750000000000        -6.251048231378318E-009
   97.5650000000000        -5.611264259109947E-009
   97.7550000000000        -4.741102051303155E-009
   97.9450000000000        -3.745136612587290E-009
   98.1350000000000        -2.740986741136596E-009
   98.3250000000000        -1.849003913707100E-009
   98.5150000000000        -1.181262806454049E-009
   98.7050000000000        -8.308761405247026E-010
   98.8950000000000        -8.624437530148724E-010
   99.0850000000000        -1.300925952774848E-009
   99.2750000000000        -2.123611607855035E-009
   99.4650000000000        -3.255312604552389E-009
   99.6550000000000        -4.568905849631895E-009
   99.8450000000000        -5.895119885222979E-009
   100.035000000000        -7.041399324984435E-009
   100.225000000000        -7.818807047711947E-009
   100.415000000000        -8.073853793482422E-009
   100.605000000000        -7.720024301137640E-009
   100.795000000000        -6.762127217165041E-009
   100.985000000000        -5.306701216983206E-009
   101.175000000000        -3.554839873885196E-009
   101.365000000000        -1.776240846681498E-009
   101.555000000000        -2.661778774369006E-010
   101.745000000000         7.067992099216609E-010
   101.935000000000         9.502251932496475E-010
   102.125000000000         3.885120599170718E-010
   102.315000000000        -9.165241937881914E-010
   102.505000000000        -2.772740874600207E-009
   102.695000000000        -4.888095587473424E-009
   102.885000000000        -6.921729391391746E-009
   103.075000000000        -8.545007619364979E-009
   103.265000000000        -9.499840300971789E-009
   103.455000000000        -9.642982224490588E-009
   103.645000000000        -8.966761027948547E-009
   103.835000000000        -7.592759768626408E-009
   104.025000000000        -5.741857439578726E-009
   104.215000000000        -3.687615008647065E-009
   104.405000000000        -1.705544060079238E-009
   104.595000000000        -2.988520828113439E-011
   104.785000000000         1.175796205668386E-009
   104.975000000000         1.826928508672190E-009
   105.165000000000         1.908805779967148E-009
   105.355000000000         1.457024774260229E-009
   105.545000000000         5.348244135355345E-010
   105.735000000000        -7.819181981477891E-010
   105.925000000000        -2.408105091874286E-009
   106.115000000000        -4.239728976873985E-009
   106.305000000000        -6.139315520208868E-009
   106.495000000000        -7.924708794752880E-009
   106.685000000000        -9.369020703171291E-009
   106.875000000000        -1.022148216004088E-008
   107.065000000000        -1.025128239546591E-008
   107.255000000000        -9.304585574749471E-009
   107.445000000000        -7.362655014428887E-009
   107.635000000000        -4.585573928753188E-009
   107.825000000000        -1.322681642759623E-009
   108.015000000000         1.919234602883211E-009
   108.205000000000         4.551135269475929E-009
   108.395000000000         6.008958849877013E-009
   108.585000000000         5.872614627549998E-009
   108.775000000000         3.969866426929094E-009
   108.965000000000         4.385413136095431E-010
   109.155000000000        -4.270633398811430E-009
   109.345000000000        -9.457497825703287E-009
   109.535000000000        -1.429353688245841E-008
   109.725000000000        -1.797576671578375E-008
   109.915000000000        -1.988142285987030E-008
   110.105000000000        -1.968968199069799E-008