  -1.42500000000000         4.383911184084080E-020
  -1.23500000000000         3.319470042643319E-017
  -1.04500000000000         2.987024643306438E-016
 -0.855000000000000         1.638621182435855E-015
 -0.665000000000000         7.017242327877553E-015
 -0.475000000000000         2.507160333068776E-014
 -0.285000000000000         7.684169844071090E-014
 -9.499999999999975E-002    2.053630860746169E-013
  9.500000000000020E-002    4.849252345851112E-013
  0.285000000000000         1.024172965793246E-012
  0.475000000000000         1.959119362770370E-012
  0.665000000000000         3.435088170079314E-012
  0.855000000000000         5.583564732765062E-012
   1.04500000000000         8.497438994325936E-012
   1.23500000000000         1.223812351703819E-011
   1.42500000000000         1.680733077488334E-011
   1.61500000000000         2.215694676835449E-011
   1.80500000000000         2.828414879270008E-011
   1.99500000000000         3.515380439557493E-011
   2.18500000000000         4.264311624287685E-011
   2.37500000000000         5.066317560018480E-011
   2.56500000000000         5.912882407406520E-011
   2.75500000000000         6.790394067995489E-011
   2.94500000000000         7.681372631257738E-011
   3.13500000000000         8.568549186414336E-011
   3.32500000000000         9.440550101686410E-011
   3.51500000000000         1.028996761927945E-010
   3.70500000000000         1.111107403742846E-010
   3.89500000000000         1.190088579844684E-010
   4.08500000000000         1.266167452158021E-010
   4.27500000000000         1.339883210384480E-010
   4.46500000000000         1.411622449886472E-010
   4.65500000000000         1.481623834028450E-010
   4.84500000000000         1.550596016377102E-010
   5.03500000000000         1.619167285166131E-010
   5.22500000000000         1.687778169788098E-010
   5.41500000000000         1.757015410827922E-010
   5.60500000000000         1.827508149277511E-010
   5.79500000000000         1.900040423285937E-010
   5.98500000000000         1.975527865676163E-010
   6.17500000000000         2.055026209209350E-010
   6.36500000000000         2.139294806268191E-010
   6.55500000000000         2.229044469401441E-010
   6.74500000000000         2.324410072248732E-010
   6.93500000000000         2.424711256211523E-010
   7.12500000000000         2.529161796406547E-010
   7.31500000000000         2.636558344242438E-010
   7.50500000000000         2.745202424327779E-010
   7.69500000000000         2.853276829643460E-010
   7.88500000000000         2.958933949109844E-010
   8.07500000000000         3.060354932396586E-010
   8.26500000000000         3.155938745559720E-010
   8.45500000000000         3.244293544580437E-010
   8.64500000000000         3.324222118227602E-010
   8.83500000000000         3.394818590395222E-010
   9.02500000000000         3.455363892274636E-010
   9.21500000000000         3.505437188949994E-010
   9.40500000000000         3.545035909642688E-010
   9.59500000000000         3.574675405677588E-010
   9.78500000000000         3.595458895683231E-010
   9.97500000000000         3.609004991129699E-010
   10.1650000000000         3.617501845711692E-010
   10.3550000000000         3.623494301080157E-010
   10.5450000000000         3.629385086564181E-010
   10.7350000000000         3.637219789878784E-010
   10.9250000000000         3.648693564429694E-010
   11.1150000000000         3.665244305473772E-010
   11.3050000000000         3.688017308940077E-010
   11.4950000000000         3.717328380129110E-010
   11.6850000000000         3.753047744293336E-010
   11.8750000000000         3.794692118708709E-010
   12.0650000000000         3.841042678393014E-010
   12.2550000000000         3.890929964043642E-010
   12.4450000000000         3.943239971925910E-010
   12.6350000000000         3.996646172762659E-010
   12.8250000000000         4.050198520014480E-010
   13.0150000000000         4.102790590377795E-010
   13.2050000000000         4.153448136690072E-010
   13.3950000000000         4.201775718195091E-010
   13.5850000000000         4.247715357264138E-010
   13.7750000000000         4.291686734204869E-010
   13.9650000000000         4.334619427944041E-010
   14.1550000000000         4.378005325940463E-010
   14.3450000000000         4.423600745470925E-010
   14.5350000000000         4.472867373123719E-010
   14.7250000000000         4.527239684907294E-010
   14.9150000000000         4.588449813060879E-010
   15.1050000000000         4.656932710175179E-010
   15.2950000000000         4.732876818564954E-010
   15.4850000000000         4.816085133618968E-010
   15.6750000000000         4.905430953710086E-010
   15.8650000000000         4.999695197856539E-010
   16.0550000000000         5.097017405490443E-010
   16.2450000000000         5.195408894134756E-010
   16.4350000000000         5.292804022279726E-010
   16.6250000000000         5.387078249086064E-010
   16.8150000000000         5.476772658468542E-010
   17.0050000000000         5.560585358680724E-010
   17.1950000000000         5.636399143840708E-010
   17.3850000000000         5.703700188503742E-010
   17.5750000000000         5.762743901363143E-010
   17.7650000000000         5.813638498041952E-010
   17.9550000000000         5.857213830112631E-010
   18.1450000000000         5.894808224499003E-010
   18.3350000000000         5.928297649287856E-010
   18.5250000000000         5.959091786303521E-010
   18.7150000000000         5.988485505379065E-010
   18.9050000000000         6.017551577006011E-010
   19.0950000000000         6.047005660716730E-010
   19.2850000000000         6.077111716250601E-010
   19.4750000000000         6.107322251886851E-010
   19.6650000000000         6.136549774027817E-010
   19.8550000000000         6.163419181115698E-010
   20.0450000000000         6.186641650455460E-010
   20.2350000000000         6.205034408885842E-010
   20.4250000000000         6.217610159619276E-010
   20.6150000000000         6.223953646500823E-010
   20.8050000000000         6.223865291448785E-010
   20.9950000000000         6.217014096356354E-010
   21.1850000000000         6.203679442961742E-010
   21.3750000000000         6.183960385609745E-010
   21.5650000000000         6.158632908934502E-010
   21.7550000000000         6.129716626508442E-010
   21.9450000000000         6.099221370117191E-010
   22.1350000000000         6.069658287647084E-010
   22.3250000000000         6.043515169293967E-010
   22.5150000000000         6.022287062334305E-010
   22.7050000000000         6.006325188740843E-010
   22.8950000000000         5.995861011769123E-010
   23.0850000000000         5.992020811074678E-010
   23.2750000000000         5.997979705437726E-010
   23.4650000000000         6.019724022588232E-010
   23.6550000000000         6.064243570250105E-010
   23.8450000000000         6.138066651029627E-010
   24.0350000000000         6.244797510823196E-010
   24.2250000000000         6.382110513599926E-010
   24.4150000000000         6.541213382141069E-010
   24.6050000000000         6.707217579120444E-010
   24.7950000000000         6.862180996817276E-010
   24.9850000000000         6.988779401397847E-010
   25.1750000000000         7.073374033462339E-010
   25.3650000000000         7.108289666189553E-010
   25.5550000000000         7.093433884204787E-010
   25.7450000000000         7.037537528019937E-010
   25.9350000000000         6.959175829969229E-010
   26.1250000000000         6.885957215055884E-010
   26.3150000000000         6.850810858762117E-010
   26.5050000000000         6.886055753360197E-010
   26.6950000000000         7.012087081505940E-010
   26.8850000000000         7.223713691446577E-010
   27.0750000000000         7.481986667466648E-010
   27.2650000000000         7.716540020103437E-010
   27.4550000000000         7.841206734583827E-010
   27.6450000000000         7.783967545489088E-010
   27.8350000000000         7.522768261058695E-010
   28.0250000000000         7.113106489525014E-010
   28.2150000000000         6.691622784710208E-010
   28.4050000000000         6.447689383924374E-010
   28.5950000000000         6.565339218173472E-010
   28.7850000000000         7.148978284903397E-010
   28.9750000000000         8.159848728574590E-010
   29.1650000000000         9.390479582847657E-010
   29.3550000000000         1.049652244094022E-009
   29.5450000000000         1.108668346354442E-009
   29.7350000000000         1.084927988743415E-009
   29.9250000000000         9.676073106971610E-010
   30.1150000000000         7.738119683346643E-010
   30.3050000000000         5.478334605966001E-010
   30.4950000000000         3.510106871796517E-010
   30.6850000000000         2.443108118651361E-010
   30.8750000000000         2.686168012040864E-010
   31.0650000000000         4.290583041072693E-010
   31.2550000000000         6.891342608135963E-010
   31.4450000000000         9.776645803527918E-010
   31.6350000000000         1.207638212545828E-009
   31.8250000000000         1.302107758786044E-009
   32.0150000000000         1.219509988153666E-009
   32.2050000000000         9.703252777564622E-010
   32.3950000000000         6.190106825420862E-010
   32.5850000000000         2.692079396995565E-010
   32.7750000000000         3.519306007622955E-011
   32.9650000000000         7.091769441088776E-012
   33.1550000000000         2.199202700952640E-010
   33.3450000000000         6.362116180256362E-010
   33.5350000000000         1.149328549316047E-009
   33.7250000000000         1.608301745170077E-009
   33.9150000000000         1.859268365794409E-009
   34.1050000000000         1.792464364075950E-009
   34.2950000000000         1.380918524755755E-009
   34.4850000000000         6.982961966152547E-010
   34.6750000000000        -9.229876160033851E-011
   34.8650000000000        -7.778316395514628E-010
   35.0550000000000        -1.154143100867701E-009
   35.2450000000000        -1.087773056384857E-009
   35.4350000000000        -5.620419252906785E-010
   35.6250000000000         3.080978724981804E-010
   35.8150000000000         1.299704347750731E-009
   36.0050000000000         2.139883584385772E-009
   36.1950000000000         2.583204192863927E-009
   36.3850000000000         2.486504423705149E-009
   36.5750000000000         1.858273936015810E-009
   36.7650000000000         8.665805719195008E-010
   36.9550000000000        -1.994327650454463E-010
   37.1450000000000        -1.005922281658625E-009
   37.3350000000000        -1.268475887761142E-009
   37.5250000000000        -8.385714788247277E-010
   37.7150000000000         2.419677510001099E-010
   37.9050000000000         1.734577968857159E-009
   38.0950000000000         3.249608265397018E-009
   38.2850000000000         4.334937219940837E-009
   38.4750000000000         4.587926853988542E-009
   38.6650000000000         3.765215054795196E-009
   38.8550000000000         1.864633095543966E-009
   39.0450000000000        -8.415948792620723E-010
   39.2350000000000        -3.834302729410149E-009
   39.4250000000000        -6.435768618429924E-009
   39.6150000000000        -7.946781858963047E-009
   39.8050000000000        -7.808218634082898E-009
   39.9950000000000        -5.753996403921931E-009
   40.1850000000000        -1.919006971258082E-009
   40.3750000000000         3.130446972146882E-009
   40.5650000000000         8.463001704262516E-009
   40.7550000000000         1.294464843401833E-008
   40.9450000000000         1.547314046281647E-008
   41.1350000000000         1.523847722109867E-008
   41.3250000000000         1.195083436340286E-008
   41.5150000000000         5.977238167290413E-009
   41.7050000000000        -1.657360932272929E-009
   41.8950000000000        -9.422200163828676E-009
   42.0850000000000        -1.557028488032072E-008
   42.2750000000000        -1.851677851519471E-008
   42.4650000000000        -1.723164823929680E-008
   42.6550000000000        -1.155940825968485E-008
   42.8450000000000        -2.382657950710970E-009
   43.0350000000000         8.432462655937112E-009
   43.2250000000000         1.833277427553350E-008
   43.4150000000000         2.459008529179265E-008
   43.6050000000000         2.494690534544408E-008
   43.7950000000000         1.826499888074513E-008
   43.9850000000000         5.016446989301480E-009
   44.1750000000000        -1.253870575575197E-008
   44.3650000000000        -3.059757270383292E-008
   44.5550000000000        -4.450432143083770E-008
   44.7450000000000        -4.979244174743293E-008
   44.9350000000000        -4.337206082871637E-008
   45.1250000000000        -2.457390049508558E-008
   45.3150000000000         4.254523864914526E-009
   45.5050000000000         3.783800698071398E-008
   45.6950000000000         6.883882976749851E-008
   45.8850000000000         8.939176143269446E-008
   46.0750000000000         9.300379898829807E-008
   46.2650000000000         7.637010604483295E-008
   46.4550000000000         4.061820201504041E-008
   46.6450000000000        -8.418009761597526E-009
   46.8350000000000        -6.108278313816214E-008
   47.0250000000000        -1.058442739068995E-007
   47.2150000000000        -1.319117545990102E-007
   47.4050000000000        -1.319157037557209E-007
   47.5950000000000        -1.039645639180417E-007
   47.7850000000000        -5.249122976837307E-008
   47.9750000000000         1.242926427814229E-008
   48.1650000000000         7.722845572232497E-008
   48.3550000000000         1.279973102646518E-007
   48.5450000000000         1.538722228543858E-007
   48.7350000000000         1.497618899033978E-007
   48.9250000000000         1.176432639996658E-007
   49.1150000000000         6.600606048939207E-008
   49.3050000000000         7.526942456777303E-009
   49.4950000000000        -4.442798271993823E-008
   49.6850000000000        -7.949596117807701E-008
   49.8750000000000        -9.311901506606961E-008
   50.0650000000000        -8.758131449007194E-008
   50.2550000000000        -7.090932913398460E-008
   50.4450000000000        -5.391116444079136E-008
   50.6350000000000        -4.623559770417404E-008
   50.8250000000000        -5.269361698782274E-008
   51.0150000000000        -7.107215726103866E-008
   51.2050000000000        -9.226090856452250E-008
   51.3950000000000        -1.028168756830437E-007
   51.5850000000000        -8.931585194467326E-008
   51.7750000000000        -4.322921457900708E-008
   51.9650000000000         3.517975917253700E-008
   52.1550000000000         1.352336877391142E-007
   52.3450000000000         2.371716805832349E-007
   52.5350000000000         3.162749405820960E-007
   52.7250000000000         3.488220935819242E-007
   52.9150000000000         3.183686715103715E-007
   53.1050000000000         2.207226608928556E-007
   53.2950000000000         6.630394961557187E-008
   53.4850000000000        -1.207783234367878E-007
   53.6750000000000        -3.068112504604056E-007
   53.8650000000000        -4.548918879367655E-007
   54.0550000000000        -5.323512994534180E-007
   54.2450000000000        -5.176957045480033E-007
   54.4350000000000        -4.056946744849416E-007
   54.6250000000000        -2.095973553067737E-007
   54.8150000000000         4.005291785076043E-008
   55.0050000000000         2.999831110192397E-007
   55.1950000000000         5.215500004315862E-007
   55.3850000000000         6.597828366653459E-007
   55.5750000000000         6.825620804080016E-007
   55.7650000000000         5.781357137757886E-007
   55.9550000000000         3.592194472764666E-007
   56.1450000000000         6.236374417623124E-008
   56.3350000000000        -2.578814124885302E-007
   56.5250000000000        -5.393206125820298E-007
   56.7150000000000        -7.250891678857712E-007
   56.9050000000000        -7.764199044334678E-007
   57.0950000000000        -6.820513632754484E-007
   57.2850000000000        -4.616407850555729E-007
   57.4750000000000        -1.618751183879934E-007
   57.6650000000000         1.541617936748009E-007
   57.8550000000000         4.219070323843346E-007
   58.0450000000000         5.907074765352297E-007
   58.2350000000000         6.355305965730230E-007
   58.4250000000000         5.617290065022012E-007
   58.6150000000000         4.015084596391885E-007
   58.8050000000000         2.031716172469517E-007
   58.9950000000000         1.640081451789323E-008
   59.1850000000000        -1.219094125701117E-007
   59.3750000000000        -1.969015658982970E-007
   59.5650000000000        -2.172648103692908E-007
   59.7550000000000        -2.086864619446677E-007
   59.9450000000000        -2.015996356097991E-007
   60.1350000000000        -2.175449890223855E-007
   60.3250000000000        -2.590384532582395E-007
   60.5150000000000        -3.067759985785796E-007
   60.7050000000000        -3.256007107166542E-007
   60.8950000000000        -2.776579666510852E-007
   61.0850000000000        -1.385493853320587E-007
   61.2750000000000         8.904715677292441E-008
   61.4650000000000         3.693931432933728E-007
   61.6550000000000         6.382977025170822E-007
   61.8450000000000         8.180370963244474E-007
   62.0350000000000         8.389608587404557E-007
   62.2250000000000         6.617639292832856E-007
   62.4150000000000         2.937355569959475E-007
   62.6050000000000        -2.063833262892375E-007
   62.7950000000000        -7.373317618605722E-007
   62.9850000000000        -1.176663850908382E-006
   63.1750000000000        -1.409586378206039E-006
   63.3650000000000        -1.358150355524409E-006
   63.5550000000000        -1.003294862825668E-006
   63.7450000000000        -3.938721346123702E-007
   63.9350000000000         3.600597252600903E-007
   64.1250000000000         1.108555630896244E-006
   64.3150000000000         1.693071177068171E-006
   64.5050000000000         1.980726501690715E-006
   64.6950000000000         1.893893520149568E-006
   64.8850000000000         1.428558924420220E-006
   65.0750000000000         6.574455580909791E-007
   65.2650000000000        -2.828037311650051E-007
   65.4550000000000        -1.217713916660130E-006
   65.6450000000000        -1.968966581778061E-006
   65.8350000000000        -2.389382114898205E-006
   66.0250000000000        -2.391869143512803E-006
   66.2150000000000        -1.966590428967856E-006
   66.4050000000000        -1.182987995620478E-006
   66.5950000000000        -1.763535403955206E-007
   66.7850000000000         8.782646175086817E-007
   66.9750000000000         1.799469899923715E-006
   67.1650000000000         2.433415115463948E-006
   67.3550000000000         2.681304213279282E-006
   67.5450000000000         2.515031902830825E-006
   67.7350000000000         1.978131304185217E-006
   67.9250000000000         1.172490504799933E-006
   68.1150000000000         2.344892980936621E-007
   68.3050000000000        -6.934811367534414E-007
   68.4950000000000        -1.489321199568613E-006
   68.6850000000000        -2.069448037102578E-006
   68.8750000000000        -2.395459613266049E-006
   69.0650000000000        -2.469062916934904E-006
   69.2550000000000        -2.318383280860693E-006
   69.4450000000000        -1.981105403783102E-006
   69.6350000000000        -1.490568273634562E-006
   69.8250000000000        -8.697024362033465E-007
   70.0150000000000        -1.348720350949785E-007
   70.2050000000000         6.919258699361706E-007
   70.3950000000000         1.567357816977001E-006
   70.5850000000000         2.414338361273213E-006
   70.7750000000000         3.119547145074074E-006
   70.9650000000000         3.545145124856591E-006
   71.1550000000000         3.554855600109011E-006
   71.3450000000000         3.049812365652152E-006
   71.5350000000000         2.005503534355136E-006
   71.7250000000000         4.990450292825851E-007
   71.9150000000000        -1.283236219335667E-006
   72.1050000000000        -3.064180886253640E-006
   72.2950000000000        -4.520312093317666E-006
   72.4850000000000        -5.345593852271404E-006
   72.6750000000000        -5.321318718817619E-006
   72.8650000000000        -4.375448422578208E-006
   73.0550000000000        -2.615152336016104E-006
   73.2450000000000        -3.211069867712201E-007
   73.4350000000000         2.099405048985380E-006
   73.6250000000000         4.193263277753929E-006
   73.8150000000000         5.559277116875572E-006
   74.0050000000000         5.940018307846850E-006
   74.1950000000000         5.284251837309323E-006
   74.3850000000000         3.762267264059139E-006
   74.5750000000000         1.727532688592625E-006
   74.7650000000000        -3.680292280260000E-007
   74.9550000000000        -2.084892862936878E-006
   75.1450000000000        -3.104427300827034E-006
   75.3350000000000        -3.305818064951587E-006
   75.5250000000000        -2.789732099529087E-006
   75.7150000000000        -1.841238061319482E-006
   75.9050000000000        -8.415638109446168E-007
   76.0950000000000        -1.532958511385705E-007
   76.2850000000000        -1.197783561674223E-008
   76.4750000000000        -4.559070466931986E-007
   76.6650000000000        -1.315216708997976E-006
   76.8550000000000        -2.263995092734654E-006
   77.0450000000000        -2.920348549503684E-006
   77.2350000000000        -2.964730513259262E-006
   77.4250000000000        -2.241121657158123E-006
   77.6150000000000        -8.106611292732585E-007
   77.8050000000000         1.058365224809664E-006
   77.9950000000000         2.961088402329403E-006
   78.1850000000000         4.465985553622382E-006
   78.3750000000000         5.231589627606225E-006
   78.5650000000000         5.096115431765395E-006
   78.7550000000000         4.115138049268869E-006
   78.9450000000000         2.538632950422534E-006
   79.1350000000000         7.367573084791103E-007
   79.3250000000000        -9.019377108190583E-007
   79.5150000000000        -2.069802563285701E-006
   79.7050000000000        -2.609808966350672E-006
   79.8950000000000        -2.539286868041400E-006
   80.0850000000000        -2.025703440316763E-006
   80.2750000000000        -1.325941200155517E-006
   80.4650000000000        -7.090562150049344E-007
   80.6550000000000        -3.842494730324211E-007
   80.8450000000000        -4.513141500524562E-007
   81.0350000000000        -8.825552778897559E-007
   81.2250000000000        -1.536279279162472E-006
   81.4150000000000        -2.195067952995345E-006
   81.6050000000000        -2.618465458473425E-006
   81.7950000000000        -2.599170597755029E-006
   81.9850000000000        -2.013084547982824E-006
   82.1750000000000        -8.552430942311239E-007
   82.3650000000000         7.449188626293967E-007
   82.5550000000000         2.534026823927229E-006
   82.7450000000000         4.173387333709201E-006
   82.9350000000000         5.303510041647547E-006
   83.1250000000000         5.625521749378539E-006
   83.3150000000000         4.983157142171067E-006
   83.5050000000000         3.423890982010103E-006
   83.6950000000000         1.217857554825954E-006
   83.8850000000000        -1.179608081638289E-006
   84.0750000000000        -3.222092604580206E-006
   84.2650000000000        -4.405801939579325E-006
   84.4550000000000        -4.410216450510817E-006
   84.6450000000000        -3.205230315975340E-006
   84.8350000000000        -1.088279791188734E-006
   85.0250000000000         1.368579102595845E-006
   85.2150000000000         3.456411256488482E-006
   85.4050000000000         4.519887662877933E-006
   85.5950000000000         4.148732433808396E-006
   85.7850000000000         2.313039026613078E-006
   85.9750000000000        -6.023867421084919E-007
   86.1650000000000        -3.882099894268943E-006
   86.3550000000000        -6.665023734431987E-006
   86.5450000000000        -8.181114027540953E-006
   86.7350000000000        -7.972062673745833E-006
   86.9250000000000        -6.030090317667257E-006
   87.1150000000000        -2.810975196678711E-006
   87.3050000000000         8.861181553351145E-007
   87.4950000000000         4.139617284540424E-006
   87.6850000000000         6.164007332607915E-006
   87.8750000000000         6.530231801362191E-006
   88.0650000000000         5.283020256088239E-006
   88.2550000000000         2.920447731009062E-006
   88.4450000000000         2.419229179481282E-007
   88.6350000000000        -1.890204189456892E-006
   88.8250000000000        -2.804961984358137E-006
   89.0150000000000        -2.218517419213580E-006
   89.2050000000000        -3.149888557933827E-007
   89.3950000000000         2.309669813107101E-006
   89.5850000000000         4.822571760648244E-006
   89.7750000000000         6.395583582824570E-006
   89.9650000000000         6.443893942130826E-006
   90.1550000000000         4.794243908783186E-006
   90.3450000000000         1.737264724005353E-006
   90.5350000000000        -2.047981872704278E-006
   90.7250000000000        -5.673586403143350E-006
   90.9150000000000        -8.275328970796213E-006
   91.1050000000000        -9.234718733359648E-006
   91.2950000000000        -8.332459537240132E-006
   91.4850000000000        -5.795774365650056E-006
   91.6750000000000        -2.231272114758991E-006
   91.8650000000000         1.535157827118980E-006
   92.0550000000000         4.667258388079561E-006
   92.2450000000000         6.521647348654715E-006
   92.4350000000000         6.794722571203383E-006
   92.6250000000000         5.578697126193692E-006
   92.8150000000000         3.316107977813183E-006
   93.0050000000000         6.676935112930677E-007
   93.1950000000000        -1.670339504326374E-006
   93.3850000000000        -3.151771137399000E-006
   93.5750000000000        -3.520656610443886E-006
   93.7650000000000        -2.870325299351635E-006
   93.9550000000000        -1.605720643027364E-006
   94.1450000000000        -3.185409087086929E-007
   94.3350000000000         3.924672576167189E-007
   94.5250000000000         1.085290289585902E-007
   94.7150000000000        -1.265716015412727E-006
   94.9050000000000        -3.443460368077149E-006
   95.0950000000000        -5.801871544461990E-006
   95.2850000000000        -7.526334019135149E-006
   95.4750000000000        -7.819754207757079E-006
   95.6650000000000        -6.125362626294155E-006
   95.8550000000000        -2.305749373005610E-006
   96.0450000000000         3.270165827186032E-006
   96.2350000000000         9.758945651158713E-006
   96.4250000000000         1.599116420617018E-005
   96.6150000000000         2.070592669119473E-005
   96.8050000000000         2.281933251687384E-005
   96.9950000000000         2.166605458499853E-005
   97.1850000000000         1.715886145158120E-005
   97.3750000000000         9.829280626982066E-006
   97.5650000000000         7.390491227655700E-007
   97.7550000000000        -8.719681027430468E-006
   97.9450000000000        -1.709341279458789E-005
   98.1350000000000        -2.314886677384869E-005
   98.3250000000000        -2.610738425428225E-005
   98.5150000000000        -2.578200145731360E-005
   98.7050000000000        -2.258708115433322E-005
   98.8950000000000        -1.741740160645273E-005
   99.0850000000000        -1.142255897131281E-005
   99.2750000000000        -5.727585557044246E-006
   99.4650000000000        -1.165964134997893E-006
   99.6550000000000         1.907956161444864E-006
   99.8450000000000         3.675869865885666E-006
   100.035000000000         4.761062568746472E-006
   100.225000000000         6.001311612050715E-006
   100.415000000000         8.146453982065241E-006
   100.605000000000         1.156461999953798E-005
   100.795000000000         1.604647779094280E-005
   100.985000000000         2.077641812746833E-005
   101.175000000000         2.449632122763251E-005
   101.365000000000         2.583185315218420E-005
   101.555000000000         2.369891031013204E-005
   101.745000000000         1.767550920159355E-005
   101.935000000000         8.224255912074707E-006
   102.125000000000        -3.314350132282525E-006
   102.315000000000        -1.497502915782259E-005
   102.505000000000        -2.461204910183570E-005
   102.695000000000        -3.041917690800276E-005
   102.885000000000        -3.138106525589975E-005
   103.075000000000        -2.752586369061752E-005
   103.265000000000        -1.990310548787335E-005
   103.455000000000        -1.029015394431623E-005
   103.645000000000        -7.107593551800151E-007
   103.835000000000         7.094484909762351E-006
   104.025000000000         1.209184421186566E-005
   104.215000000000         1.415127389769497E-005
   104.405000000000         1.396539646239324E-005
   104.595000000000         1.272499142151469E-005
   104.785000000000         1.165928945209984E-005
   104.975000000000         1.158884300429444E-005
   105.165000000000         1.263186230352476E-005
   105.355000000000         1.415454009163467E-005
   105.545000000000         1.497856628030612E-005
   105.735000000000         1.377935273667792E-005
   105.925000000000         9.551069701140551E-006
   106.115000000000         1.996278150423824E-006
   106.305000000000        -8.277221200409166E-006
   106.495000000000        -1.981111224349545E-005
   106.685000000000        -3.058847480463007E-005
   106.875000000000        -3.848307444618158E-005
   107.065000000000        -4.174692506933574E-005
   107.255000000000        -3.941293501693120E-005
   107.445000000000        -3.151849460557445E-005
   107.635000000000        -1.910662833400069E-005
   107.825000000000        -4.017645322669744E-006
   108.015000000000         1.146937745448755E-005
   108.205000000000         2.505972295968660E-005
   108.395000000000         3.484215194434613E-005
   108.585000000000         3.959173935853317E-005
   108.775000000000         3.893205727462058E-005
   108.965000000000         3.334313874397795E-005
   109.155000000000         2.402869468202923E-005
   109.345000000000         1.267589203145384E-005
   109.535000000000         1.153108196982495E-006
   109.725000000000        -8.803575229792798E-006
   109.915000000000        -1.586485831595099E-005
   110.105000000000        -1.929967938582644E-005