  -1.42500000000000         0.000000000000000E+000
  -1.23500000000000         1.665886249951950E-020
  -1.04500000000000         1.261398616204461E-017
 -0.855000000000000         1.135235953081441E-016
 -0.665000000000000         6.352900354876694E-016
 -0.475000000000000         2.780075679901614E-015
 -0.285000000000000         1.016249930114902E-014
 -9.499999999999975E-002    3.197992108737176E-014
  9.500000000000020E-002    8.820047200950343E-014
  0.285000000000000         2.162515102297140E-013
  0.475000000000000         4.773861990109366E-013
  0.665000000000000         9.607168680824545E-013
  0.855000000000000         1.782719703641077E-012
   1.04500000000000         3.082471466533179E-012
   1.23500000000000         5.011746521484932E-012
   1.42500000000000         7.732958403007689E-012
   1.61500000000000         1.139853221594060E-011
   1.80500000000000         1.615259817498240E-011
   1.99500000000000         2.214650875716663E-011
   2.18500000000000         2.951104384530087E-011
   2.37500000000000         3.835089292945983E-011
   2.56500000000000         4.876305057337109E-011
   2.75500000000000         6.081984607760459E-011
   2.94500000000000         7.456654803175394E-011
   3.13500000000000         9.000906207638400E-011
   3.32500000000000         1.071270349401284E-010
   3.51500000000000         1.258831524627923E-010
   3.70500000000000         1.462289118933903E-010
   3.89500000000000         1.681052338050205E-010
   4.08500000000000         1.914522779274883E-010
   4.27500000000000         2.162195969870252E-010
   4.46500000000000         2.423678399220985E-010
   4.65500000000000         2.698612500827112E-010
   4.84500000000000         2.986695456151795E-010
   5.03500000000000         3.287838987050410E-010
   5.22500000000000         3.601979024514926E-010
   5.41500000000000         3.929194691569888E-010
   5.60500000000000         4.269644880629538E-010
   5.79500000000000         4.623647788295344E-010
   5.98500000000000         4.991660241478192E-010
   6.17500000000000         5.374348377252285E-010
   6.36500000000000         5.772570200977744E-010
   6.55500000000000         6.187280403634197E-010
   6.74500000000000         6.619607099350291E-010
   6.93500000000000         7.070556231088715E-010
   7.12500000000000         7.540997376710671E-010
   7.31500000000000         8.031637713723205E-010
   7.50500000000000         8.542889547522797E-010
   7.69500000000000         9.074814634967759E-010
   7.88500000000000         9.627134742787313E-010
   8.07500000000000         1.019920953562950E-009
   8.26500000000000         1.079006961709802E-009
   8.45500000000000         1.139846625894219E-009
   8.64500000000000         1.202290116403858E-009
   8.83500000000000         1.266167066386868E-009
   9.02500000000000         1.331293222838876E-009
   9.21500000000000         1.397470894293304E-009
   9.40500000000000         1.464499836018976E-009
   9.59500000000000         1.532182258859726E-009
   9.78500000000000         1.600337501434724E-009
   9.97500000000000         1.668809696895689E-009
   10.1650000000000         1.737479691097652E-009
   10.3550000000000         1.806274767032733E-009
   10.5450000000000         1.875172474538699E-009
   10.7350000000000         1.944191400322172E-009
   10.9250000000000         2.013386826554093E-009
   11.1150000000000         2.082841755770500E-009
   11.3050000000000         2.152666110162096E-009
   11.4950000000000         2.222986413510224E-009
   11.6850000000000         2.293924588607002E-009
   11.8750000000000         2.365602227793371E-009
   12.0650000000000         2.438122889117934E-009
   12.2550000000000         2.511561849572305E-009
   12.4450000000000         2.585978227751591E-009
   12.6350000000000         2.661404968505489E-009
   12.8250000000000         2.737850782316572E-009
   13.0150000000000         2.815312512266040E-009
   13.2050000000000         2.893756824750929E-009
   13.3950000000000         2.973143541460263E-009
   13.5850000000000         3.053424302042343E-009
   13.7750000000000         3.134556725036301E-009
   13.9650000000000         3.216508397942128E-009
   14.1550000000000         3.299272263298175E-009
   14.3450000000000         3.382872600327865E-009
   14.5350000000000         3.467369091626068E-009
   14.7250000000000         3.552841560506566E-009
   14.9150000000000         3.639404199652546E-009
   15.1050000000000         3.727202653402881E-009
   15.2950000000000         3.816367642639203E-009
   15.4850000000000         3.907051972508349E-009
   15.6750000000000         3.999378877716725E-009
   15.8650000000000         4.093458348749333E-009
   16.0550000000000         4.189367295235273E-009
   16.2450000000000         4.287145010157969E-009
   16.4350000000000         4.386792833212393E-009
   16.6250000000000         4.488271563004598E-009
   16.8150000000000         4.591501806677664E-009
   17.0050000000000         4.696388924026402E-009
   17.1950000000000         4.802804050307530E-009
   17.3850000000000         4.910572091492349E-009
   17.5750000000000         5.019544657470673E-009
   17.7650000000000         5.129556359744150E-009
   17.9550000000000         5.240462920396268E-009
   18.1450000000000         5.352130485288429E-009
   18.3350000000000         5.464465632927229E-009
   18.5250000000000         5.577405795961368E-009
   18.7150000000000         5.690911120806763E-009
   18.9050000000000         5.804968245165772E-009
   19.0950000000000         5.919578080732992E-009
   19.2850000000000         6.034754460273009E-009
   19.4750000000000         6.150508325950515E-009
   19.6650000000000         6.266832705844708E-009
   19.8550000000000         6.383697217363572E-009
   20.0450000000000         6.501042634727104E-009
   20.2350000000000         6.618789600080877E-009
   20.4250000000000         6.736833942264765E-009
   20.6150000000000         6.855058786146409E-009
   20.8050000000000         6.973344180831798E-009
   20.9950000000000         7.091565667221466E-009
   21.1850000000000         7.209590716493341E-009
   21.3750000000000         7.327305486054013E-009
   21.5650000000000         7.444581211146511E-009
   21.7550000000000         7.561333536593523E-009
   21.9450000000000         7.677510442953832E-009
   22.1350000000000         7.793103948657977E-009
   22.3250000000000         7.908157457884421E-009
   22.5150000000000         8.022757525091150E-009
   22.7050000000000         8.137004366253126E-009
   22.8950000000000         8.250997882263300E-009
   23.0850000000000         8.364847084700352E-009
   23.2750000000000         8.478694673084138E-009
   23.4650000000000         8.592770313506983E-009
   23.6550000000000         8.707444185942490E-009
   23.8450000000000         8.823211569176488E-009
   24.0350000000000         8.940690718681616E-009
   24.2250000000000         9.060513874587772E-009
   24.4150000000000         9.183210918198415E-009
   24.6050000000000         9.309079983109131E-009
   24.7950000000000         9.438085186204990E-009
   24.9850000000000         9.569842860988189E-009
   25.1750000000000         9.703658803458109E-009
   25.3650000000000         9.838631074259757E-009
   25.5550000000000         9.973773810773311E-009
   25.7450000000000         1.010818156185954E-008
   25.9350000000000         1.024120023683807E-008
   26.1250000000000         1.037263024339837E-008
   26.3150000000000         1.050286661101019E-008
   26.5050000000000         1.063296105603133E-008
   26.6950000000000         1.076453672963788E-008
   26.8850000000000         1.089942036512856E-008
   27.0750000000000         1.103903784991285E-008
   27.2650000000000         1.118373585849229E-008
   27.4550000000000         1.133226637067678E-008
   27.6450000000000         1.148170171440648E-008
   27.8350000000000         1.162805713740537E-008
   28.0250000000000         1.176756690832671E-008
   28.2150000000000         1.189835518400732E-008
   28.4050000000000         1.202184857414569E-008
   28.5950000000000         1.214336738059644E-008
   28.7850000000000         1.227133146443628E-008
   28.9750000000000         1.241502855542277E-008
   29.1650000000000         1.258140571612212E-008
   29.3550000000000         1.277186677957098E-008
   29.5450000000000         1.298027356887784E-008
   29.7350000000000         1.319316075118567E-008
   29.9250000000000         1.339254620460034E-008
   30.1150000000000         1.356085152925059E-008
   30.3050000000000         1.368659475256752E-008
   30.4950000000000         1.376902824427730E-008
   30.6850000000000         1.381997881369578E-008
   30.8750000000000         1.386186635278605E-008
   31.0650000000000         1.392205319815334E-008
   31.2550000000000         1.402490850834682E-008
   31.4450000000000         1.418392421726251E-008
   31.6350000000000         1.439642104888088E-008
   31.8250000000000         1.464282673802992E-008
   32.0150000000000         1.489122199721958E-008
   32.2050000000000         1.510624053352832E-008
   32.3950000000000         1.525994560276704E-008
   32.5850000000000         1.534146459289431E-008
   32.7750000000000         1.536224461985287E-008
   32.9650000000000         1.535483795572328E-008
   33.1550000000000         1.536493949224048E-008
   33.3450000000000         1.543840765835948E-008
   33.5350000000000         1.560669990709022E-008
   33.7250000000000         1.587515250709957E-008
   33.9150000000000         1.621785457025485E-008
   34.1050000000000         1.658167448610145E-008
   34.2950000000000         1.689899102860371E-008
   34.4850000000000         1.710642352550864E-008
   34.6750000000000         1.716434358331751E-008
   34.8650000000000         1.707134999610051E-008
   35.0550000000000         1.686876756028795E-008
   35.2450000000000         1.663277561777078E-008
   35.4350000000000         1.645541379886170E-008
   35.6250000000000         1.641919968616032E-008
   35.8150000000000         1.657249099041101E-008
   36.0050000000000         1.691308733830560E-008
   36.1950000000000         1.738564675247760E-008
   36.3850000000000         1.789470493159389E-008
   36.5750000000000         1.833051843348556E-008
   36.7650000000000         1.860084902727990E-008
   36.9550000000000         1.865981905081497E-008
   37.1450000000000         1.852506457656263E-008
   37.3350000000000         1.827756858378470E-008
   37.5250000000000         1.804304373921340E-008
   37.7150000000000         1.795891142183130E-008
   37.9050000000000         1.813499148459344E-008
   38.0950000000000         1.861805104999702E-008
   38.2850000000000         1.936984262544431E-008
   38.4750000000000         2.026532719357454E-008
   38.6650000000000         2.111325482995995E-008
   38.8550000000000         2.169610891439671E-008
   39.0450000000000         2.182181540626667E-008
   39.2350000000000         2.137630286027713E-008
   39.4250000000000         2.036478036909081E-008
   39.6150000000000         1.893071078527376E-008
   39.8050000000000         1.734500326268485E-008
   39.9950000000000         1.596358770432226E-008
   40.1850000000000         1.515848462919452E-008
   40.3750000000000         1.523436505524419E-008
   40.5650000000000         1.634805447861033E-008
   40.7550000000000         1.845030570286394E-008
   40.9450000000000         2.126702088353730E-008
   41.1350000000000         2.433009907873420E-008
   41.3250000000000         2.705764222755479E-008
   41.5150000000000         2.887141613682728E-008
   41.7050000000000         2.932899273112514E-008
   41.8950000000000         2.824161898256357E-008
   42.0850000000000         2.574855666887025E-008
   42.2750000000000         2.232491072804169E-008
   42.4650000000000         1.871218083309626E-008
   42.6550000000000         1.577688439710891E-008
   42.8450000000000         1.431960569441602E-008
   43.0350000000000         1.487147437583874E-008
   43.2250000000000         1.752394150367212E-008
   43.4150000000000         2.183792860054147E-008
   43.6050000000000         2.686817391455333E-008
   43.7950000000000         3.131775263181022E-008
   43.9850000000000         3.380887348923648E-008
   44.1750000000000         3.322400248774479E-008
   44.3650000000000         2.904416530205074E-008
   44.5550000000000         2.159692486028828E-008
   44.7450000000000         1.213252315833241E-008
   44.9350000000000         2.675796996263759E-009
   45.1250000000000        -4.348859956579808E-009
   45.3150000000000        -6.662285191868765E-009
   45.5050000000000        -2.732140887912290E-009
   45.6950000000000         7.716157460802553E-009
   45.8850000000000         2.342661442373715E-008
   46.0750000000000         4.168502680522644E-008
   46.2650000000000         5.876805803929040E-008
   46.4550000000000         7.070566710226296E-008
   46.6450000000000         7.420297480500578E-008
   46.8350000000000         6.750682339285590E-008
   47.0250000000000         5.099151721250416E-008
   47.2150000000000         2.728599930823408E-008
   47.4050000000000         8.650504648802831E-010
   47.5950000000000        -2.284196811893987E-008
   47.7850000000000        -3.864148382397556E-008
   47.9750000000000        -4.278863543092164E-008
   48.1650000000000        -3.391836339828148E-008
   48.3550000000000        -1.344182225643814E-008
   48.5450000000000         1.472061450228620E-008
   48.7350000000000         4.502962242822846E-008
   48.9250000000000         7.163013266557736E-008
   49.1150000000000         8.973406274810146E-008
   49.3050000000000         9.671243565154635E-008
   49.4950000000000         9.259430088167684E-008
   49.6850000000000         7.982980221796984E-008
   49.8750000000000         6.238583563400759E-008
   50.0650000000000         4.444457649286337E-008
   50.2550000000000         2.910493612778023E-008
   50.4450000000000         1.749903142194922E-008
   50.6350000000000         8.618693640279513E-009
   50.8250000000000        -7.049570563689298E-011
   51.0150000000000        -1.140488081509309E-008
   51.2050000000000        -2.707791546483157E-008
   51.3950000000000        -4.646402606961162E-008
   51.5850000000000        -6.614832822438819E-008
   51.7750000000000        -8.040404980858749E-008
   51.9650000000000        -8.257542976441088E-008
   52.1550000000000        -6.703574132302344E-008
   52.3450000000000        -3.118662842354752E-008
   52.5350000000000         2.308949729860583E-008
   52.7250000000000         8.899784899764891E-008
   52.9150000000000         1.556418928597369E-007
   53.1050000000000         2.099779441715901E-007
   53.2950000000000         2.395165039990221E-007
   53.4850000000000         2.351734450255073E-007
   53.6750000000000         1.936207410930427E-007
   53.8650000000000         1.185851698505532E-007
   54.0550000000000         2.076182367707184E-008
   54.2450000000000        -8.370832394174561E-008
   54.4350000000000        -1.759625440511694E-007
   54.6250000000000        -2.378723002460234E-007
   54.8150000000000        -2.556095390677435E-007
   55.0050000000000        -2.226521914627345E-007
   55.1950000000000        -1.416159568804324E-007
   55.3850000000000        -2.446319129873181E-008
   55.5750000000000         1.091015210523989E-007
   55.7650000000000         2.349103992563088E-007
   55.9550000000000         3.287930922871986E-007
   56.1450000000000         3.714137892213663E-007
   56.3350000000000         3.524913150741667E-007
   56.5250000000000         2.734188524757248E-007
   56.7150000000000         1.475494822929953E-007
   56.9050000000000        -2.115031320868252E-009
   57.0950000000000        -1.474900813917224E-007
   57.2850000000000        -2.612945493655387E-007
   57.4750000000000        -3.229135797128401E-007
   57.6650000000000        -3.228070943529762E-007
   57.8550000000000        -2.643320981164158E-007
   58.0450000000000        -1.624824220469291E-007
   58.2350000000000        -3.986325703302858E-008
   58.4250000000000         7.901920465081968E-008
   58.6150000000000         1.735937654378079E-007
   58.8050000000000         2.315924193137113E-007
   58.9950000000000         2.507989799916495E-007
   59.1850000000000         2.378247288305107E-007
   59.3750000000000         2.044734032150070E-007
   59.5650000000000         1.630021337891579E-007
   59.7550000000000         1.219127752746766E-007
   59.9450000000000         8.370127825018424E-008
   60.1350000000000         4.530491374295298E-008
   60.3250000000000         1.034182421677736E-009
   60.5150000000000        -5.312969849517801E-008
   60.7050000000000        -1.155406970381824E-007
   60.8950000000000        -1.768579685675066E-007
   61.0850000000000        -2.210507243655948E-007
   61.2750000000000        -2.295067349936889E-007
   61.4650000000000        -1.872128047918837E-007
   61.6550000000000        -8.913734054220731E-008
   61.8450000000000         5.534032216460753E-008
   62.0350000000000         2.217167560610828E-007
   62.2250000000000         3.741454484859806E-007
   62.4150000000000         4.731870491887312E-007
   62.6050000000000         4.857649601444407E-007
   62.7950000000000         3.947613851988210E-007
   62.9850000000000         2.055788906374233E-007
   63.1750000000000        -5.237087814636412E-008
   63.3650000000000        -3.300639330808715E-007
   63.5550000000000        -5.684680132456395E-007
   63.7450000000000        -7.113159809546253E-007
   63.9350000000000        -7.181394243983401E-007
   64.1250000000000        -5.744932853557907E-007
   64.3150000000000        -2.968882846577672E-007
   64.5050000000000         6.887376193011398E-008
   64.6950000000000         4.557877859847045E-007
   64.8850000000000         7.885532995869497E-007
   65.0750000000000         9.986401772643882E-007
   65.2650000000000         1.038382611661522E-006
   65.4550000000000         8.911747594216863E-007
   65.6450000000000         5.756513233306723E-007
   65.8350000000000         1.429674583460231E-007
   66.0250000000000        -3.323138803306456E-007
   66.2150000000000        -7.659428161888421E-007
   66.4050000000000        -1.079618243338431E-006
   66.5950000000000        -1.215478254524624E-006
   66.7850000000000        -1.146632588688729E-006
   66.9750000000000        -8.817376998713249E-007
   67.1650000000000        -4.628340267177169E-007
   67.3550000000000         4.296004400497495E-008
   67.5450000000000         5.560615743284102E-007
   67.7350000000000         9.986721670806879E-007
   67.9250000000000         1.307751469918793E-006
   68.1150000000000         1.444218558904662E-006
   68.3050000000000         1.396857403194384E-006
   68.4950000000000         1.180695726938355E-006
   68.6850000000000         8.309153473583108E-007
   68.8750000000000         3.943054728393751E-007
   69.0650000000000        -7.935930568278784E-008
   69.2550000000000        -5.439384355958888E-007
   69.4450000000000        -9.603449524098508E-007
   69.6350000000000        -1.296758489033467E-006
   69.8250000000000        -1.526760896390984E-006
   70.0150000000000        -1.627245414790739E-006
   70.2050000000000        -1.578012269727076E-006
   70.3950000000000        -1.364313584214994E-006
   70.5850000000000        -9.824162992758158E-007
   70.7750000000000        -4.468650069311735E-007
   70.9650000000000         2.030116158523322E-007
   71.1550000000000         9.002901405143310E-007
   71.3450000000000         1.553856743893757E-006
   71.5350000000000         2.059218839462149E-006
   71.7250000000000         2.315948086948708E-006
   71.9150000000000         2.248855950589531E-006
   72.1050000000000         1.828318323601155E-006
   72.2950000000000         1.084467213813148E-006
   72.4850000000000         1.105997281404409E-007
   72.6750000000000        -9.468584500499854E-007
   72.8650000000000        -1.911501385010254E-006
   73.0550000000000        -2.609528850629705E-006
   73.2450000000000        -2.905259272696373E-006
   73.4350000000000        -2.731549505602768E-006
   73.6250000000000        -2.107485354081930E-006
   73.8150000000000        -1.138109460056276E-006
   74.0050000000000         5.039950330787619E-009
   74.1950000000000         1.119097496925527E-006
   74.3850000000000         2.013055648508330E-006
   74.5750000000000         2.548759057268000E-006
   74.7650000000000         2.669518070173528E-006
   74.9550000000000         2.408907950618120E-006
   75.1450000000000         1.877258782257514E-006
   75.3350000000000         1.229225576303847E-006
   75.5250000000000         6.210479175759112E-007
   75.7150000000000         1.691273784827943E-007
   75.9050000000000        -7.862254572549175E-008
   76.0950000000000        -1.506668696761601E-007
   76.2850000000000        -1.368749691581485E-007
   76.4750000000000        -1.552184472105219E-007
   76.6650000000000        -3.101196469015639E-007
   76.8550000000000        -6.550007966297527E-007
   77.0450000000000        -1.170437782140733E-006
   77.2350000000000        -1.764733245441153E-006
   77.4250000000000        -2.297035377179252E-006
   77.6150000000000        -2.616359475161239E-006
   77.8050000000000        -2.605086606303090E-006
   77.9950000000000        -2.214180689733567E-006
   78.1850000000000        -1.479873013417917E-006
   78.3750000000000        -5.171061793570619E-007
   78.5650000000000         5.081310450724480E-007
   78.7550000000000         1.419417684713788E-006
   78.9450000000000         2.071883503794618E-006
   79.1350000000000         2.384098205874351E-006
   79.3250000000000         2.351851281016680E-006
   79.5150000000000         2.041361875763108E-006
   79.7050000000000         1.565326306968114E-006
   79.8950000000000         1.049634468549853E-006
   80.0850000000000         6.003972971123811E-007
   80.2750000000000         2.798671612294831E-007
   80.4650000000000         9.653964105328492E-008
   80.6550000000000         1.042579952760810E-008
   80.8450000000000        -4.947515869903454E-008
   81.0350000000000        -1.610735774923249E-007
   81.2250000000000        -3.848461642971418E-007
   81.4150000000000        -7.448597035740644E-007
   81.6050000000000        -1.218971986435373E-006
   81.7950000000000        -1.739876577793966E-006
   81.9850000000000        -2.206656813582285E-006
   82.1750000000000        -2.504848706027439E-006
   82.3650000000000        -2.531649189390111E-006
   82.5550000000000        -2.221779538228268E-006
   82.7450000000000        -1.568718996297764E-006
   82.9350000000000        -6.358923514187715E-007
   83.1250000000000         4.466148195283034E-007
   83.3150000000000         1.501805913345073E-006
   83.5050000000000         2.340214533553308E-006
   83.6950000000000         2.802884486508912E-006
   83.8850000000000         2.803000404387171E-006
   84.0750000000000         2.354633415486363E-006
   84.2650000000000         1.578605214646693E-006
   84.4550000000000         6.804286784462195E-007
   84.6450000000000        -9.727703654741721E-008
   84.8350000000000        -5.375588416244090E-007
   85.0250000000000        -5.108233571991360E-007
   85.2150000000000        -1.749878263798831E-008
   85.4050000000000         8.026129202664871E-007
   85.5950000000000         1.700058529255626E-006
   85.7850000000000         2.379131245113678E-006
   85.9750000000000         2.579013359368596E-006
   86.1650000000000         2.150224283112451E-006
   86.3550000000000         1.103815399546398E-006
   86.5450000000000        -3.824847359717040E-007
   86.7350000000000        -2.005007930919165E-006
   86.9250000000000        -3.411868551995120E-006
   87.1150000000000        -4.296442251632723E-006
   87.3050000000000        -4.480039126733031E-006
   87.4950000000000        -3.959717352605378E-006
   87.6850000000000        -2.906984558607669E-006
   87.8750000000000        -1.617394566214371E-006
   88.0650000000000        -4.254964740900365E-007
   88.2550000000000         3.901531310991604E-007
   88.4450000000000         6.842736636934073E-007
   88.6350000000000         4.820838399194490E-007
   88.8250000000000        -3.400392830021140E-008
   89.0150000000000        -5.838017141366424E-007
   89.2050000000000        -8.770405476013714E-007
   89.3950000000000        -7.034974793381274E-007
   89.5850000000000         6.339813793268332E-010
   89.7750000000000         1.129079789708205E-006
   89.9650000000000         2.430955742852664E-006
   90.1550000000000         3.577759487717919E-006
   90.3450000000000         4.252768428190275E-006
   90.5350000000000         4.237920082839953E-006
   90.7250000000000         3.474535316562648E-006
   90.9150000000000         2.081957249645480E-006
   91.1050000000000         3.299103076600878E-007
   91.2950000000000        -1.427235869031186E-006
   91.4850000000000        -2.836424316491162E-006
   91.6750000000000        -3.629630127978208E-006
   91.8650000000000        -3.684307720099579E-006
   92.0550000000000        -3.046270153672996E-006
   92.2450000000000        -1.910749532629345E-006
   92.4350000000000        -5.680441611842033E-007
   92.6250000000000         6.712450444279399E-007
   92.8150000000000         1.551860746769399E-006
   93.0050000000000         1.931366075996949E-006
   93.1950000000000         1.805584281060765E-006
   93.3850000000000         1.296637064352927E-006
   93.5750000000000         6.079112488491456E-007
   93.7650000000000        -4.121244761574974E-008
   93.9550000000000        -4.828123649044760E-007
   94.1450000000000        -6.513862919661481E-007
   94.3350000000000        -6.038579102137792E-007
   94.5250000000000        -5.022487340717950E-007
   94.7150000000000        -5.626168792095152E-007
   94.9050000000000        -9.832208199286310E-007
   95.0950000000000        -1.871131819078831E-006
   95.2850000000000        -3.187932006824187E-006
   95.4750000000000        -4.731138746350188E-006
   95.6650000000000        -6.159438605771877E-006
   95.8550000000000        -7.058776544341967E-006
   96.0450000000000        -7.035623367514009E-006
   96.2350000000000        -5.816113530011274E-006
   96.4250000000000        -3.327224020073697E-006
   96.6150000000000         2.605288683333915E-007
   96.8050000000000         4.541028122580299E-006
   96.9950000000000         8.931875224745447E-006
   97.1850000000000         1.277412886487974E-005
   97.3750000000000         1.545224257634630E-005
   97.5650000000000         1.650925550313292E-005
   97.7550000000000         1.573308124299722E-005
   97.9450000000000         1.319577671270935E-005
   98.1350000000000         9.237584381053822E-006
   98.3250000000000         4.399207338646851E-006
   98.5150000000000        -6.832216355734315E-007
   98.7050000000000        -5.397953215132320E-006
   98.8950000000000        -9.266312474220058E-006
   99.0850000000000        -1.201656582558436E-005
   99.2750000000000        -1.360688488331893E-005
   99.4650000000000        -1.419304833726117E-005
   99.6550000000000        -1.404995125461813E-005
   99.8450000000000        -1.346802499591212E-005
   100.035000000000        -1.265312070558157E-005
   100.225000000000        -1.165882121978846E-005
   100.415000000000        -1.037262229300230E-005
   100.605000000000        -8.563168706603676E-006
   100.795000000000        -5.978066693177870E-006
   100.985000000000        -2.465507146045411E-006
   101.175000000000         1.916972195260097E-006
   101.365000000000         6.843094920454943E-006
   101.555000000000         1.173307639309009E-005
   101.745000000000         1.584868083830512E-005
   101.935000000000         1.844976988969564E-005
   102.125000000000         1.897389808489351E-005
   102.315000000000         1.719031683942828E-005
   102.505000000000         1.328338700492093E-005
   102.695000000000         7.837738180730719E-006
   102.885000000000         1.724099779879876E-006
   103.075000000000        -4.087066616511185E-006
   103.265000000000        -8.735728422554780E-006
   103.455000000000        -1.165024670190306E-005
   103.645000000000        -1.264598692139495E-005
   103.835000000000        -1.192033525687146E-005
   104.025000000000        -9.950082655685254E-006
   104.215000000000        -7.325434456362516E-006
   104.405000000000        -4.572598574561166E-006
   104.595000000000        -2.018583800653087E-006
   104.785000000000         2.628981656144147E-007
   104.975000000000         2.411946191144852E-006
   105.165000000000         4.666658507246300E-006
   105.355000000000         7.212053866484257E-006
   105.545000000000         1.004538374206748E-005
   105.735000000000         1.290390905300058E-005
   105.925000000000         1.528153778200509E-005
   106.115000000000         1.653331553943399E-005
   106.305000000000         1.604012347916614E-005
   106.495000000000         1.338797148327851E-005
   106.685000000000         8.511900826637867E-006
   106.875000000000         1.764351057519077E-006
   107.065000000000        -6.111667462911135E-006
   107.255000000000        -1.409948046882850E-005
   107.445000000000        -2.108858276934499E-005
   107.635000000000        -2.607650841894679E-005
   107.825000000000        -2.834910153626525E-005
   108.015000000000        -2.760321364156130E-005
   108.205000000000        -2.399073810355998E-005
   108.395000000000        -1.808051891688040E-005
   108.585000000000        -1.075072036470846E-005
   108.775000000000        -3.035657960637789E-006
   108.965000000000         4.043461399647360E-006
   109.155000000000         9.634734762073827E-006
   109.345000000000         1.317436537881847E-005
   109.535000000000         1.445157373402628E-005
   109.725000000000         1.361254649367181E-005
   109.915000000000         1.110621514670502E-005
   110.105000000000         7.583900333610443E-006