  -1.42500000000000         0.000000000000000E+000
  -1.23500000000000        -2.247487492376819E-020
  -1.04500000000000         3.965323677210596E-017
 -0.855000000000000         4.532571629590994E-016
 -0.665000000000000         2.843166450405444E-015
 -0.475000000000000         1.328836300994430E-014
 -0.285000000000000         5.086655784222144E-014
 -9.499999999999975E-002    1.659100558304568E-013
  9.500000000000020E-002    4.771992980797999E-013
  0.285000000000000         1.221598429097590E-012
  0.475000000000000         2.804244954272278E-012
  0.665000000000000         5.837997402245268E-012
  0.855000000000000         1.120370845007724E-011
   1.04500000000000         2.005354246250018E-011
   1.23500000000000         3.379791353813551E-011
   1.42500000000000         5.408486695577558E-011
   1.61500000000000         8.270957064081999E-011
   1.80500000000000         1.216020391688949E-010
   1.99500000000000         1.727774564513408E-010
   2.18500000000000         2.381757813558848E-010
   2.37500000000000         3.198459007978581E-010
   2.56500000000000         4.197115950695197E-010
   2.75500000000000         5.395882490152884E-010
   2.94500000000000         6.809013622407352E-010
   3.13500000000000         8.449855342709258E-010
   3.32500000000000         1.032645642145295E-009
   3.51500000000000         1.244256182682718E-009
   3.70500000000000         1.480108786024386E-009
   3.89500000000000         1.739953483861664E-009
   4.08500000000000         2.023407262780321E-009
   4.27500000000000         2.330119590092665E-009
   4.46500000000000         2.659285975730412E-009
   4.65500000000000         3.010278768143700E-009
   4.84500000000000         3.382303626913711E-009
   5.03500000000000         3.774435582486132E-009
   5.22500000000000         4.185887963882332E-009
   5.41500000000000         4.615637753040308E-009
   5.60500000000000         5.062751911104933E-009
   5.79500000000000         5.526166892768700E-009
   5.98500000000000         6.004571207630340E-009
   6.17500000000000         6.496570669396664E-009
   6.36500000000000         7.000548420593130E-009
   6.55500000000000         7.514854064558189E-009
   6.74500000000000         8.037832025008600E-009
   6.93500000000000         8.567936702859114E-009
   7.12500000000000         9.103812420702150E-009
   7.31500000000000         9.644453573309032E-009
   7.50500000000000         1.018909736668613E-008
   7.69500000000000         1.073734343897290E-008
   7.88500000000000         1.128922946895117E-008
   8.07500000000000         1.184529409107931E-008
   8.26500000000000         1.240639410468115E-008
   8.45500000000000         1.297375031737170E-008
   8.64500000000000         1.354872915167626E-008
   8.83500000000000         1.413279074036733E-008
   9.02500000000000         1.472719876147747E-008
   9.21500000000000         1.533309846067033E-008
   9.40500000000000         1.595153821127133E-008
   9.59500000000000         1.658335694609865E-008
   9.78500000000000         1.722911933961258E-008
   9.97500000000000         1.788915485256739E-008
   10.1650000000000         1.856377449264856E-008
   10.3550000000000         1.925312198698559E-008
   10.5450000000000         1.995723066848379E-008
   10.7350000000000         2.067628999756202E-008
   10.9250000000000         2.141032373656367E-008
   11.1150000000000         2.215944976135953E-008
   11.3050000000000         2.292383837930137E-008
   11.4950000000000         2.370379069026603E-008
   11.6850000000000         2.449961985604974E-008
   11.8750000000000         2.531153434016145E-008
   12.0650000000000         2.613969231040223E-008
   12.2550000000000         2.698393994933837E-008
   12.4450000000000         2.784385008960650E-008
   12.6350000000000         2.871883196442802E-008
   12.8250000000000         2.960804687160728E-008
   13.0150000000000         3.051039094671812E-008
   13.2050000000000         3.142450692984535E-008
   13.3950000000000         3.234889759705006E-008
   13.5850000000000         3.328215769371732E-008
   13.7750000000000         3.422274264325944E-008
   13.9650000000000         3.516937441885614E-008
   14.1550000000000         3.612114688383238E-008
   14.3450000000000         3.707739097595355E-008
   14.5350000000000         3.803793080862526E-008
   14.7250000000000         3.900289382607044E-008
   14.9150000000000         3.997262084142101E-008
   15.1050000000000         4.094783207007803E-008
   15.2950000000000         4.192940715628556E-008
   15.4850000000000         4.291840112257808E-008
   15.6750000000000         4.391588519146944E-008
   15.8650000000000         4.492313804670502E-008
   16.0550000000000         4.594135357934934E-008
   16.2450000000000         4.697168157219269E-008
   16.4350000000000         4.801515092392173E-008
   16.6250000000000         4.907273079593517E-008
   16.8150000000000         5.014511258331692E-008
   17.0050000000000         5.123303123202322E-008
   17.1950000000000         5.233712475160937E-008
   17.3850000000000         5.345791850781534E-008
   17.5750000000000         5.459569389076102E-008
   17.7650000000000         5.575074032892207E-008
   17.9550000000000         5.692298380108189E-008
   18.1450000000000         5.811217502565970E-008
   18.3350000000000         5.931789983930420E-008
   18.5250000000000         6.053983022420284E-008
   18.7150000000000         6.177753122494800E-008
   18.9050000000000         6.303099678714310E-008
   19.0950000000000         6.430005280276314E-008
   19.2850000000000         6.558444668449913E-008
   19.4750000000000         6.688331752288562E-008
   19.6650000000000         6.819543076733851E-008
   19.8550000000000         6.951876803957204E-008
   20.0450000000000         7.085071464594793E-008
   20.2350000000000         7.218838214474214E-008
   20.4250000000000         7.352856689835400E-008
   20.6150000000000         7.486804879615072E-008
   20.8050000000000         7.620401359361045E-008
   20.9950000000000         7.753386002546626E-008
   21.1850000000000         7.885558572456416E-008
   21.3750000000000         8.016785133798871E-008
   21.5650000000000         8.147051299388463E-008
   21.7550000000000         8.276502264741414E-008
   21.9450000000000         8.405480489234092E-008
   22.1350000000000         8.534523096991072E-008
   22.3250000000000         8.664295125764204E-008
   22.5150000000000         8.795457722952770E-008
   22.7050000000000         8.928533144692730E-008
   22.8950000000000         9.063792895238821E-008
   23.0850000000000         9.201247137822306E-008
   23.2750000000000         9.340726960604861E-008
   23.4650000000000         9.482060643581617E-008
   23.6550000000000         9.625277589204861E-008
   23.8450000000000         9.770694406478490E-008
   24.0350000000000         9.918855183620905E-008
   24.2250000000000         1.007020806606454E-007
   24.4150000000000         1.022466212959765E-007
   24.6050000000000         1.038105275050625E-007
   24.7950000000000         1.053688921867897E-007
   24.9850000000000         1.068849318731482E-007
   25.1750000000000         1.083164550525412E-007
   25.3650000000000         1.096271325428646E-007
   25.5550000000000         1.108007523476716E-007
   25.7450000000000         1.118535235457558E-007
   25.9350000000000         1.128406705906918E-007
   26.1250000000000         1.138531692502842E-007
   26.3150000000000         1.150043124517347E-007
   26.5050000000000         1.164061924498236E-007
   26.6950000000000         1.181420819909955E-007
   26.8850000000000         1.202414815019001E-007
   27.0750000000000         1.226647924162254E-007
   27.2650000000000         1.253035540430592E-007
   27.4550000000000         1.279982306390626E-007
   27.6450000000000         1.305702325805614E-007
   27.8350000000000         1.328612832775286E-007
   28.0250000000000         1.347697477200492E-007
   28.2150000000000         1.362735973891604E-007
   28.4050000000000         1.374335765967529E-007
   28.5950000000000         1.383747035712158E-007
   28.7850000000000         1.392510672160713E-007
   28.9750000000000         1.402046207636577E-007
   29.1650000000000         1.413308328177440E-007
   29.3550000000000         1.426616500593632E-007
   29.5450000000000         1.441715997120711E-007
   29.7350000000000         1.458039697087032E-007
   29.9250000000000         1.475063661833976E-007
   30.1150000000000         1.492612576578566E-007
   30.3050000000000         1.510974468766713E-007
   30.4950000000000         1.530757008589300E-007
   30.6850000000000         1.552514729205549E-007
   30.8750000000000         1.576285008304807E-007
   31.0650000000000         1.601235699424420E-007
   31.2550000000000         1.625615305482937E-007
   31.4450000000000         1.647110246950472E-007
   31.6350000000000         1.663564524699360E-007
   31.8250000000000         1.673862027433273E-007
   32.0150000000000         1.678661566870461E-007
   32.2050000000000         1.680675722905119E-007
   32.3950000000000         1.684294081676392E-007
   32.5850000000000         1.694571509103863E-007
   32.7750000000000         1.715820122824666E-007
   32.9650000000000         1.750237720600647E-007
   33.1550000000000         1.797044201035847E-007
   33.3450000000000         1.852468439888560E-007
   33.5350000000000         1.910654670316977E-007
   33.7250000000000         1.965245178528648E-007
   33.9150000000000         2.011102044376314E-007
   34.1050000000000         2.045540145805357E-007
   34.2950000000000         2.068552406217973E-007
   34.4850000000000         2.081852430195179E-007
   34.6750000000000         2.087002646543211E-007
   34.8650000000000         2.083314113066578E-007
   35.0550000000000         2.066443309375092E-007
   35.2450000000000         2.028512565070478E-007
   35.4350000000000         1.960185159729438E-007
   35.6250000000000         1.854509886800426E-007
   35.8150000000000         1.711642637482727E-007
   36.0050000000000         1.543060891271448E-007
   36.1950000000000         1.373701908330746E-007
   36.3850000000000         1.240743996953759E-007
   36.5750000000000         1.188453535603724E-007
   36.7650000000000         1.259526094951488E-007
   36.9550000000000         1.484369767206792E-007
   37.1450000000000         1.870600905440484E-007
   37.3350000000000         2.395374533480719E-007
   37.5250000000000         3.002924019677492E-007
   37.7150000000000         3.608834535891010E-007
   37.9050000000000         4.111257822289711E-007
   38.0950000000000         4.407739134664563E-007
   38.2850000000000         4.414929967575455E-007
   38.4750000000000         4.087505556494825E-007
   38.6650000000000         3.432369481093453E-007
   38.8550000000000         2.514795800303769E-007
   39.0450000000000         1.454472631802698E-007
   39.2350000000000         4.112215633991358E-008
   39.4250000000000        -4.378935777593394E-008
   39.6150000000000        -9.266718094194705E-008
   39.8050000000000        -9.285959913258263E-008
   39.9950000000000        -3.815685715388449E-008
   40.1850000000000         6.957429212498487E-008
   40.3750000000000         2.199073014989992E-007
   40.5650000000000         3.946729120433628E-007
   40.7550000000000         5.700425215838797E-007
   40.9450000000000         7.196645659121550E-007
   41.1350000000000         8.184821876310670E-007
   41.3250000000000         8.467358534896384E-007
   41.5150000000000         7.935747471504261E-007
   41.7050000000000         6.596825379493389E-007
   41.8950000000000         4.583799006402708E-007
   42.0850000000000         2.148193850743415E-007
   42.2750000000000        -3.686536080354198E-008
   42.4650000000000        -2.582654002564840E-007
   42.6550000000000        -4.127004709439488E-007
   42.8450000000000        -4.716311362935351E-007
   43.0350000000000        -4.203694741838736E-007
   43.2250000000000        -2.619440746646189E-007
   43.4150000000000        -1.817172652588552E-008
   43.6050000000000         2.725925729876326E-007
   43.7950000000000         5.609713293501027E-007
   43.9850000000000         7.946503846425536E-007
   44.1750000000000         9.277688563603519E-007
   44.3650000000000         9.299753697029484E-007
   44.5550000000000         7.934239013462219E-007
   44.7450000000000         5.362168913686816E-007
   44.9350000000000         2.013302170055718E-007
   45.1250000000000        -1.492004084732370E-007
   45.3150000000000        -4.442165705402461E-007
   45.5050000000000        -6.160879818367172E-007
   45.6950000000000        -6.140481659364610E-007
   45.8850000000000        -4.158554536455863E-007
   46.0750000000000        -3.545200696111871E-008
   46.2650000000000         4.752782396230557E-007
   46.4550000000000         1.031745037103406E-006
   46.6450000000000         1.528865094685383E-006
   46.8350000000000         1.858957548866743E-006
   47.0250000000000         1.932770546774400E-006
   47.2150000000000         1.700081350725547E-006
   47.4050000000000         1.165801705514071E-006
   47.5950000000000         3.977016860985624E-007
   47.7850000000000        -4.771492499931680E-007
   47.9750000000000        -1.288376720223543E-006
   48.1650000000000        -1.849587318061505E-006
   48.3550000000000        -1.993332865668052E-006
   48.5450000000000        -1.607996199069976E-006
   48.7350000000000        -6.695293903565762E-007
   48.9250000000000         7.390905712290584E-007
   49.1150000000000         2.426434425659643E-006
   49.3050000000000         4.112203442036177E-006
   49.4950000000000         5.467047536486797E-006
   49.6850000000000         6.167738039598695E-006
   49.8750000000000         5.959154425595453E-006
   50.0650000000000         4.712126175097128E-006
   50.2550000000000         2.465617417477304E-006
   50.4450000000000        -5.566390222823239E-007
   50.6350000000000        -3.961255704000247E-006
   50.8250000000000        -7.233001378516969E-006
   51.0150000000000        -9.810315136750589E-006
   51.2050000000000        -1.117795925775596E-005
   51.3950000000000        -1.096210256604662E-005
   51.5850000000000        -9.011274110914216E-006
   51.7750000000000        -5.447554734779461E-006
   51.9650000000000        -6.761153166585025E-007
   52.1550000000000         4.652697120233633E-006
   52.3450000000000         9.726948613698748E-006
   52.5350000000000         1.369271471199791E-005
   52.7250000000000         1.579307852668288E-005
   52.9150000000000         1.550513861578182E-005
   53.1050000000000         1.265193777259861E-005
   53.2950000000000         7.468137786353293E-006
   53.4850000000000         6.038045934011457E-007
   53.6750000000000        -6.940707010183932E-006
   53.8650000000000        -1.394513601120450E-005
   54.0550000000000        -1.915016255326917E-005
   54.2450000000000        -2.146396056597771E-005
   54.4350000000000        -2.016272488480398E-005
   54.6250000000000        -1.505096128662310E-005
   54.8150000000000        -6.550309276635781E-006
   55.0050000000000         4.305717198783686E-006
   55.1950000000000         1.598021319066411E-005
   55.3850000000000         2.663714255754737E-005
   55.5750000000000         3.441675283917022E-005
   55.7650000000000         3.774272339049672E-005
   55.9550000000000         3.561210120694805E-005
   56.1450000000000         2.781710243489895E-005
   56.3350000000000         1.505457682056026E-005
   56.5250000000000        -1.105962884447781E-006
   56.7150000000000        -1.840323810977946E-005
   56.9050000000000        -3.419663221282216E-005
   57.0950000000000        -4.586870758973880E-005
   57.2850000000000        -5.125747660552662E-005
   57.4750000000000        -4.904808955269843E-005
   57.6650000000000        -3.905493823308101E-005
   57.8550000000000        -2.233845690731848E-005
   58.0450000000000        -1.124684492772694E-006
   58.2350000000000         2.147344405372375E-005
   58.4250000000000         4.190091235765955E-005
   58.6150000000000         5.670939417013563E-005
   58.8050000000000         6.312634203014933E-005
   58.9950000000000         5.955189681947945E-005
   59.1850000000000         4.589714458056647E-005
   59.3750000000000         2.369802701687463E-005
   59.5650000000000        -4.027846894056195E-006
   59.7550000000000        -3.317391842874179E-005
   59.9450000000000        -5.913794079230005E-005
   60.1350000000000        -7.753111312796771E-005
   60.3250000000000        -8.489470984158745E-005
   60.5150000000000        -7.930866947598425E-005
   60.7050000000000        -6.078802854987850E-005
   60.8950000000000        -3.139209811606758E-005
   61.0850000000000         4.986075745261086E-006
   61.2750000000000         4.313254871142056E-005
   61.4650000000000         7.726091809767642E-005
   61.6550000000000         1.018890199839529E-004
   61.8450000000000         1.127113984932041E-004
   62.0350000000000         1.073300317494210E-004
   62.2250000000000         8.572237219895628E-005
   62.4150000000000         5.036202346190580E-005
   62.6050000000000         5.958230631860271E-006
   62.7950000000000        -4.116172245051329E-005
   62.9850000000000        -8.394694883671921E-005
   63.1750000000000        -1.156682898001847E-004
   63.3650000000000        -1.309607210646015E-004
   63.5550000000000        -1.267036691913699E-004
   63.7450000000000        -1.025987039241105E-004
   63.9350000000000        -6.134456510444250E-005
   64.1250000000000        -8.366420106783063E-006
   64.3150000000000         4.887834567589771E-005
   64.5050000000000         1.019310631449048E-004
   64.6950000000000         1.425588009020367E-004
   64.8850000000000         1.640018087982225E-004
   65.0750000000000         1.620554125013835E-004
   65.2650000000000         1.358172530527561E-004
   65.4550000000000         8.797340312697377E-005
   65.6450000000000         2.456011686097531E-005
   65.8350000000000        -4.578658754835900E-005
   66.0250000000000        -1.130041788834707E-004
   66.2150000000000        -1.670428417236968E-004
   66.4050000000000        -1.993664673924517E-004
   66.5950000000000        -2.042922121564885E-004
   66.7850000000000        -1.799593402641970E-004
   66.9750000000000        -1.287646769276432E-004
   67.1650000000000        -5.717599189914185E-005
   67.3550000000000         2.507398820210816E-005
   67.5450000000000         1.063149714967467E-004
   67.7350000000000         1.746057456619645E-004
   67.9250000000000         2.194988549232779E-004
   68.1150000000000         2.336387346158937E-004
   68.3050000000000         2.139462254148521E-004
   68.4950000000000         1.621992511624382E-004
   68.6850000000000         8.490754573528135E-005
   68.8750000000000        -7.514887892573028E-006
   69.0650000000000        -1.021691469156585E-004
   69.2550000000000        -1.854815190749953E-004
   69.4450000000000        -2.451430076324530E-004
   69.6350000000000        -2.718965899943896E-004
   69.8250000000000        -2.609125292651389E-004
   70.0150000000000        -2.125523354426561E-004
   70.2050000000000        -1.324105008502364E-004
   70.3950000000000        -3.062604113484526E-005
   70.5850000000000         7.944211564253686E-005
   70.7750000000000         1.829949977799991E-004
   70.9650000000000         2.657874192404766E-004
   71.1550000000000         3.160675593046013E-004
   71.3450000000000         3.262029530336678E-004
   71.5350000000000         2.937758802070688E-004
   71.7250000000000         2.220006449402937E-004
   71.9150000000000         1.194026822403918E-004
   72.1050000000000        -1.206166517281799E-006
   72.2950000000000        -1.243319425646535E-004
   72.4850000000000        -2.337833790146668E-004
   72.6750000000000        -3.147873935591421E-004
   72.8650000000000        -3.559647562064529E-004
   73.0550000000000        -3.509077621219008E-004
   73.2450000000000        -2.991463639032548E-004
   73.4350000000000        -2.063617495050557E-004
   73.6250000000000        -8.379897622562891E-005
   73.8150000000000         5.306766136919637E-005
   74.0050000000000         1.864638054507575E-004
   74.1950000000000         2.986029007995383E-004
   74.3850000000000         3.740413485519679E-004
   74.5750000000000         4.017903128473780E-004
   74.7650000000000         3.768950331174766E-004
   74.9550000000000         3.012538269277466E-004
   75.1450000000000         1.835437198508647E-004
   75.3350000000000         3.823635248498143E-005
   75.5250000000000        -1.161887442735982E-004
   75.7150000000000        -2.596133134876019E-004
   75.9050000000000        -3.729255125468202E-004
   76.0950000000000        -4.405884807759292E-004
   76.2850000000000        -4.527818507186439E-004
   76.4750000000000        -4.068169898159222E-004
   76.6650000000000        -3.076209704995179E-004
   76.8550000000000        -1.672086589330596E-004
   77.0450000000000        -3.199546284705563E-006
   77.2350000000000         1.634332547249147E-004
   77.4250000000000         3.110883955960595E-004
   77.6150000000000         4.203760967053012E-004
   77.8050000000000         4.766945454920425E-004
   77.9950000000000         4.721981795879227E-004
   78.1850000000000         4.068925591308191E-004
   78.3750000000000         2.887053123122172E-004
   78.5650000000000         1.325172466369890E-004
   78.7550000000000        -4.172574734506211E-005
   78.9450000000000        -2.115786966232987E-004
   79.1350000000000        -3.550106778443844E-004
   79.3250000000000        -4.532871674924871E-004
   79.5150000000000        -4.934446735190601E-004
   79.7050000000000        -4.700298332872367E-004
   79.8950000000000        -3.858668433573450E-004
   80.0850000000000        -2.517406656065929E-004
   80.2750000000000        -8.502417060647962E-005
   80.4650000000000         9.258224829255110E-005
   80.6550000000000         2.579083675279134E-004
   80.8450000000000         3.893928317028995E-004
   81.0350000000000         4.699691841143016E-004
   81.2250000000000         4.893639965952843E-004
   81.4150000000000         4.454857299938264E-004
   81.6050000000000         3.447038956366964E-004
   81.7950000000000         2.009704809221732E-004
   81.9850000000000         3.389842873342405E-005
   82.1750000000000        -1.339383651888876E-004
   82.3650000000000        -2.801052220638015E-004
   82.5550000000000        -3.853687982975977E-004
   82.7450000000000        -4.362873470043311E-004
   82.9350000000000        -4.269645653311990E-004
   83.1250000000000        -3.597266748682785E-004
   83.3150000000000        -2.446426182005973E-004
   83.5050000000000        -9.797852200775400E-005
   83.6950000000000         6.016705416576577E-005
   83.8850000000000         2.086854549351751E-004
   84.0750000000000         3.283191147281373E-004
   84.2650000000000         4.041519111782267E-004
   84.4550000000000         4.273914244230852E-004
   84.6450000000000         3.962282449173006E-004
   84.8350000000000         3.157081031427803E-004
   85.0250000000000         1.967050817966736E-004
   85.2150000000000         5.421234989951441E-005
   85.4050000000000        -9.475023428116311E-005
   85.5950000000000        -2.332862913506919E-004
   85.7850000000000        -3.465364293424206E-004
   85.9750000000000        -4.231373062949243E-004
   86.1650000000000        -4.561111593861367E-004
   86.3550000000000        -4.431761188956085E-004
   86.5450000000000        -3.865541344262887E-004
   86.7350000000000        -2.924059056680121E-004
   86.9250000000000        -1.700353769348804E-004
   87.1150000000000        -3.098486229849734E-005
   87.3050000000000         1.119012490406215E-004
   87.4950000000000         2.454135438926012E-004
   87.6850000000000         3.569191912274632E-004
   87.8750000000000         4.353216938462339E-004
   88.0650000000000         4.720340229185608E-004
   88.2550000000000         4.619197245848414E-004
   88.4450000000000         4.041071441200309E-004
   88.6350000000000         3.025410426368148E-004
   88.8250000000000         1.661199723277951E-004
   89.0150000000000         8.287729325310174E-006
   89.2050000000000        -1.539945603038673E-004
   89.3950000000000        -3.018794813863283E-004
   89.5850000000000        -4.167448246317621E-004
   89.7750000000000        -4.825592435696327E-004
   89.9650000000000        -4.881956170336041E-004
   90.1550000000000        -4.293468537595121E-004
   90.3450000000000        -3.097133397581002E-004
   90.5350000000000        -1.412025411056717E-004
   90.7250000000000         5.699648151348592E-005
   90.9150000000000         2.604428738117768E-004
   91.1050000000000         4.423861643695304E-004
   91.2950000000000         5.772714484325685E-004
   91.4850000000000         6.443414385091865E-004
   91.6750000000000         6.308155029782072E-004
   91.8650000000000         5.341488079217032E-004
   92.0550000000000         3.629765552000824E-004
   92.2450000000000         1.365185229819785E-004
   92.4350000000000        -1.175646277189938E-004
   92.6250000000000        -3.666406334568057E-004
   92.8150000000000        -5.774670607544049E-004
   93.0050000000000        -7.208549949708949E-004
   93.1950000000000        -7.759698272588603E-004
   93.3850000000000        -7.336250560508514E-004
   93.5750000000000        -5.980430926310251E-004
   93.7650000000000        -3.867580251238319E-004
   93.9550000000000        -1.285923766342095E-004
   94.1450000000000         1.400823983181460E-004
   94.3350000000000         3.803328465505852E-004
   94.5250000000000         5.562263870309994E-004
   94.7150000000000         6.401839100025781E-004
   94.9050000000000         6.173300450410088E-004
   95.0950000000000         4.881590135467626E-004
   95.2850000000000         2.690506025230801E-004
   95.4750000000000        -9.531569084706800E-006
   95.6650000000000        -3.069886458475967E-004
   95.8550000000000        -5.781809583194266E-004
   96.0450000000000        -7.798974422212949E-004
   96.2350000000000        -8.772656214837144E-004
   96.4250000000000        -8.491416977032040E-004
   96.6150000000000        -6.916424071600693E-004
   96.8050000000000        -4.192372004742541E-004
   96.9950000000000        -6.317472231588872E-005
   97.1850000000000         3.325823656207720E-004
   97.3750000000000         7.173583216090254E-004
   97.5650000000000         1.040842693469587E-003
   97.7550000000000         1.260213799220586E-003
   97.9450000000000         1.346257784747194E-003
   98.1350000000000         1.287576282636858E-003
   98.3250000000000         1.092255573254693E-003
   98.5150000000000         7.867437892444066E-004
   98.7050000000000         4.120930890633684E-004
   98.8950000000000         1.810960446989831E-005
   99.0850000000000        -3.437409538652671E-004
   99.2750000000000        -6.276434759498918E-004
   99.4650000000000        -7.998999376362043E-004
   99.6550000000000        -8.436156074229334E-004
   99.8450000000000        -7.609275096228217E-004
   100.035000000000        -5.724560350339594E-004
   100.225000000000        -3.140666113145685E-004
   100.415000000000        -3.142285812106903E-005
   100.605000000000         2.268626864394994E-004
   100.795000000000         4.164681723730955E-004
   100.985000000000         5.039245363940377E-004
   101.175000000000         4.715359274600537E-004
   101.365000000000         3.199422131392361E-004
   101.555000000000         6.796190994735290E-005
   101.745000000000        -2.502391882668542E-004
   101.935000000000        -5.902116985629976E-004
   102.125000000000        -9.037508653122672E-004
   102.315000000000        -1.145915494418698E-003
   102.505000000000        -1.281506706681899E-003
   102.695000000000        -1.290072472387193E-003
   102.885000000000        -1.168735617474271E-003
   103.075000000000        -9.324706478784256E-004
   103.265000000000        -6.118269353076979E-004
   103.455000000000        -2.484575683097164E-004
   103.645000000000         1.108856292306293E-004
   103.835000000000         4.210284188925493E-004
   104.025000000000         6.447796462966549E-004
   104.215000000000         7.581725775834392E-004
   104.405000000000         7.538160215295759E-004
   104.595000000000         6.418910554455527E-004
   104.785000000000         4.486511993229775E-004
   104.975000000000         2.126250163217507E-004
   105.165000000000        -2.096302343028438E-005
   105.355000000000        -2.067861763788664E-004
   105.545000000000        -3.061047445283354E-004
   105.735000000000        -2.926036619637125E-004
   105.925000000000        -1.565334573009672E-004
   106.115000000000         9.346588954079290E-005
   106.305000000000         4.311593702840405E-004
   106.495000000000         8.160590361121576E-004
   106.685000000000         1.198871564321045E-003
   106.875000000000         1.528293222665998E-003
   107.065000000000         1.758183419529813E-003
   107.255000000000         1.854077568149651E-003
   107.445000000000         1.798084147410397E-003
   107.635000000000         1.591440100873700E-003
   107.825000000000         1.254340587280529E-003
   108.015000000000         8.230628116784651E-004
   108.205000000000         3.448079167626030E-004
   108.395000000000        -1.289726192664237E-004
   108.585000000000        -5.497724539532450E-004
   108.775000000000        -8.786782616173870E-004
   108.965000000000        -1.091488628551695E-003
   109.155000000000        -1.181561140994288E-003
   109.345000000000        -1.159996371809956E-003
   109.535000000000        -1.053176112111842E-003
   109.725000000000        -8.980740157501942E-004
   109.915000000000        -7.360867704565440E-004
   110.105000000000        -6.063425304603606E-004