  -1.42500000000000         0.000000000000000E+000
  -1.23500000000000         7.456886078113579E-009
  -1.04500000000000         5.026862941032254E-008
 -0.855000000000000         2.333578046305124E-007
 -0.665000000000000         8.761819922184177E-007
 -0.475000000000000         2.755913943609936E-006
 -0.285000000000000         7.367933456488519E-006
 -9.499999999999975E-002    1.693615217527244E-005
  9.500000000000020E-002    3.387890617758395E-005
  0.285000000000000         5.975930516465193E-005
  0.475000000000000         9.433198563065792E-005
  0.665000000000000         1.352307229086287E-004
  0.855000000000000         1.786402403366304E-004
   1.04500000000000         2.203964316972683E-004
   1.23500000000000         2.567445747922381E-004
   1.42500000000000         2.849721608761096E-004
   1.61500000000000         3.029760033902168E-004
   1.80500000000000         3.104696974629408E-004
   1.99500000000000         3.082109817456352E-004
   2.18500000000000         2.979013419333221E-004
   2.37500000000000         2.821708512434736E-004
   2.56500000000000         2.637322371485918E-004
   2.75500000000000         2.446875590570861E-004
   2.94500000000000         2.261720820946795E-004
   3.13500000000000         2.085130279053311E-004
   3.32500000000000         1.929235521300360E-004
   3.51500000000000         1.755936827034427E-004
   3.70500000000000         1.627825830427241E-004
   3.89500000000000         1.542910417727589E-004
   4.08500000000000         1.530501970367922E-004
   4.27500000000000         1.567456023303552E-004
   4.46500000000000         1.660778260452652E-004
   4.65500000000000         1.775724023059173E-004
   4.84500000000000         1.872422456324988E-004
   5.03500000000000         1.917558769845630E-004
   5.22500000000000         1.878569659631906E-004
   5.41500000000000         1.805546713821259E-004
   5.60500000000000         1.662642651661124E-004
   5.79500000000000         1.482413930157943E-004
   5.98500000000000         1.292615750694079E-004
   6.17500000000000         1.123432763558875E-004
   6.36500000000000         1.013539454802122E-004
   6.55500000000000         9.894316703630576E-005
   6.74500000000000         1.070199211345351E-004
   6.93500000000000         1.257826770285823E-004
   7.12500000000000         1.539736127116631E-004
   7.31500000000000         1.891287315884608E-004
   7.50500000000000         2.287591581201663E-004
   7.69500000000000         2.701877028893665E-004
   7.88500000000000         3.106971940789582E-004
   8.07500000000000         3.470273147119462E-004
   8.26500000000000         3.754108321852298E-004
   8.45500000000000         3.918675517534205E-004
   8.64500000000000         3.934296513966473E-004
   8.83500000000000         3.788344126665500E-004
   9.02500000000000         3.484603030380230E-004
   9.21500000000000         3.050738152823096E-004
   9.40500000000000         2.529163713833792E-004
   9.59500000000000         1.962687029089560E-004
   9.78500000000000         1.395066423843229E-004
   9.97500000000000         8.658598759147253E-005
   10.1650000000000         4.100076133026376E-005
   10.3550000000000         5.827550153903969E-006
   10.5450000000000        -1.756143153574206E-005
   10.7350000000000        -2.722054661109536E-005
   10.9250000000000        -2.579342373760570E-005
   11.1150000000000        -1.532870000115741E-005
   11.3050000000000         2.860085781694115E-006
   11.4950000000000         2.506040891351411E-005
   11.6850000000000         4.913249557305018E-005
   11.8750000000000         7.297063784676647E-005
   12.0650000000000         9.474820892778026E-005
   12.2550000000000         1.130507648848399E-004
   12.4450000000000         1.263362312390939E-004
   12.6350000000000         1.311571887416699E-004
   12.8250000000000         1.323097316640768E-004
   13.0150000000000         1.245154488703893E-004
   13.2050000000000         1.111974180138677E-004
   13.3950000000000         9.406525428394670E-005
   13.5850000000000         7.487007330468979E-005
   13.7750000000000         5.661337123222842E-005
   13.9650000000000         4.206491683315631E-005
   14.1550000000000         3.291046511658660E-005
   14.3450000000000         3.351394916897068E-005
   14.5350000000000         4.139847512967054E-005
   14.7250000000000         5.656581561281815E-005
   14.9150000000000         7.692301532066010E-005
   15.1050000000000         9.948675238460193E-005
   15.2950000000000         1.218236057805151E-004
   15.4850000000000         1.421969173152599E-004
   15.6750000000000         1.602744857177494E-004
   15.8650000000000         1.760695976773264E-004
   16.0550000000000         1.900627545630760E-004
   16.2450000000000         2.024349424746258E-004
   16.4350000000000         2.131133821104757E-004
   16.6250000000000         2.215035017481551E-004
   16.8150000000000         2.273308040550120E-004
   17.0050000000000         2.314152357302139E-004
   17.1950000000000         2.314345923871646E-004
   17.3850000000000         2.307838394250473E-004
   17.5750000000000         2.281530675831819E-004
   17.7650000000000         2.257554014086546E-004
   17.9550000000000         2.238972503374102E-004
   18.1450000000000         2.246029482982852E-004
   18.3350000000000         2.275709387351051E-004
   18.5250000000000         2.320493777728784E-004
   18.7150000000000         2.400252586491452E-004
   18.9050000000000         2.483114104692252E-004
   19.0950000000000         2.543743245888527E-004
   19.2850000000000         2.566154941477133E-004
   19.4750000000000         2.541456972521758E-004
   19.6650000000000         2.469256535110895E-004
   19.8550000000000         2.349645179121095E-004
   20.0450000000000         2.187359978540312E-004
   20.2350000000000         1.991214537914547E-004
   20.4250000000000         1.776177032964667E-004
   20.6150000000000         1.562473617673528E-004
   20.8050000000000         1.369932218576449E-004
   20.9950000000000         1.219439536861439E-004
   21.1850000000000         1.121731179472938E-004
   21.3750000000000         1.102656862667215E-004
   21.5650000000000         1.133450781024211E-004
   21.7550000000000         1.247081586998202E-004
   21.9450000000000         1.429473899358684E-004
   22.1350000000000         1.684590825089797E-004
   22.3250000000000         2.008662939294596E-004
   22.5150000000000         2.391037755496688E-004
   22.7050000000000         2.807097123672483E-004
   22.8950000000000         3.226321506047118E-004
   23.0850000000000         3.616554614395471E-004
   23.2750000000000         3.951147554718454E-004
   23.4650000000000         4.212029030429143E-004
   23.6550000000000         4.388508053352170E-004
   23.8450000000000         4.479282805682875E-004
   24.0350000000000         4.484691177948811E-004
   24.2250000000000         4.404198097598865E-004
   24.4150000000000         4.243636176109111E-004
   24.6050000000000         4.009846587458223E-004
   24.7950000000000         3.714685149159489E-004
   24.9850000000000         3.361398167018527E-004
   25.1750000000000         2.968538954875881E-004
   25.3650000000000         2.543483194176055E-004
   25.5550000000000         2.116427158644956E-004
   25.7450000000000         1.710527893861044E-004
   25.9350000000000         1.368399820776398E-004
   26.1250000000000         1.128618533320026E-004
   26.3150000000000         1.009588072829918E-004
   26.5050000000000         1.019737845672563E-004
   26.6950000000000         1.132618442105692E-004
   26.8850000000000         1.323177593088457E-004
   27.0750000000000         1.552849350321795E-004
   27.2650000000000         1.782933817588998E-004
   27.4550000000000         1.980301515882030E-004
   27.6450000000000         2.125176054630451E-004
   27.8350000000000         2.175294071556989E-004
   28.0250000000000         2.172796833741313E-004
   28.2150000000000         2.036968135904075E-004
   28.4050000000000         1.790998865032923E-004
   28.5950000000000         1.429402558302276E-004
   28.7850000000000         9.593685310978867E-005
   28.9750000000000         3.973923079011987E-005
   29.1650000000000        -2.418282458255489E-005
   29.3550000000000        -9.385220603113185E-005
   29.5450000000000        -1.667986556570965E-004
   29.7350000000000        -2.392471892442144E-004
   29.9250000000000        -3.062546303526729E-004
   30.1150000000000        -3.623401051577456E-004
   30.3050000000000        -4.025600882602604E-004
   30.4950000000000        -4.233765372418395E-004
   30.6850000000000        -4.233485829614064E-004
   30.8750000000000        -4.031985571905727E-004
   31.0650000000000        -3.641200638556086E-004
   31.2550000000000        -3.088671168875850E-004
   31.4450000000000        -2.408305872675851E-004
   31.6350000000000        -1.641707981542320E-004
   31.8250000000000        -8.422070279092897E-005
   32.0150000000000        -6.552833044999420E-006
   32.2050000000000         6.342098866687802E-005
   32.3950000000000         1.217621303801961E-004
   32.5850000000000         1.658297147866897E-004
   32.7750000000000         1.945396801814525E-004
   32.9650000000000         2.076913874360111E-004
   33.1550000000000         2.067035805443797E-004
   33.3450000000000         1.891929231414288E-004
   33.5350000000000         1.586558534617212E-004
   33.7250000000000         1.187202229932294E-004
   33.9150000000000         7.502222179921916E-005
   34.1050000000000         3.367246903344126E-005
   34.2950000000000         6.421487220030831E-007
   34.4850000000000        -2.020712453669009E-005
   34.6750000000000        -2.680741474861471E-005
   34.8650000000000        -2.010873545619212E-005
   35.0550000000000        -1.664697096409256E-006
   35.2450000000000         2.568969732844575E-005
   35.4350000000000         5.880885493660355E-005
   35.6250000000000         9.408532561696825E-005
   35.8150000000000         1.281445375725470E-004
   36.0050000000000         1.571797826174201E-004
   36.1950000000000         1.790525704240948E-004
   36.3850000000000         1.894438043675744E-004
   36.5750000000000         1.944076018560045E-004
   36.7650000000000         1.893541374541287E-004
   36.9550000000000         1.798655340762282E-004
   37.1450000000000         1.658741243714947E-004
   37.3350000000000         1.494611491382047E-004
   37.5250000000000         1.326245789628954E-004
   37.7150000000000         1.184291462351849E-004
   37.9050000000000         1.109639572727659E-004
   38.0950000000000         1.148656415588372E-004
   38.2850000000000         1.321368716411405E-004
   38.4750000000000         1.648373141139292E-004
   38.6650000000000         2.123258971855357E-004
   38.8550000000000         2.712787517653079E-004
   39.0450000000000         3.375376458460567E-004
   39.2350000000000         4.067495061259864E-004
   39.4250000000000         4.745846698330458E-004
   39.6150000000000         5.366974024796508E-004
   39.8050000000000         5.889964701556428E-004
   39.9950000000000         6.273989848918820E-004
   40.1850000000000         6.493849472251086E-004
   40.3750000000000         6.524754541254683E-004
   40.5650000000000         6.398300662342749E-004
   40.7550000000000         6.121393625382569E-004
   40.9450000000000         5.716884462394590E-004
   41.1350000000000         5.205276603788231E-004
   41.3250000000000         4.603805135955958E-004
   41.5150000000000         3.928967332807855E-004
   41.7050000000000         3.199373325322282E-004
   41.8950000000000         2.445425551899988E-004
   42.0850000000000         1.698344743956442E-004
   42.2750000000000         9.903675422487586E-005
   42.4650000000000         3.402998027771600E-005
   42.6550000000000        -2.406204859019715E-005
   42.8450000000000        -7.493228621483919E-005
   43.0350000000000        -1.182640503852037E-004
   43.2250000000000        -1.533021368994914E-004
   43.4150000000000        -1.793200273155823E-004
   43.6050000000000        -1.951753635142812E-004
   43.7950000000000        -1.995730281537465E-004
   43.9850000000000        -1.935516941959712E-004
   44.1750000000000        -1.750866866339863E-004
   44.3650000000000        -1.446707923813325E-004
   44.5550000000000        -1.025637944774754E-004
   44.7450000000000        -4.966309961734398E-005
   44.9350000000000         1.205937289657550E-005
   45.1250000000000         7.907044797154282E-005
   45.3150000000000         1.460761650322679E-004
   45.5050000000000         2.074456954219187E-004
   45.6950000000000         2.581058746477842E-004
   45.8850000000000         2.945534150054629E-004
   46.0750000000000         3.152863310066795E-004
   46.2650000000000         3.194901525093625E-004
   46.4550000000000         3.087039975864801E-004
   46.6450000000000         2.822441049908954E-004
   46.8350000000000         2.432287208678715E-004
   47.0250000000000         1.941049980573492E-004
   47.2150000000000         1.379150739104136E-004
   47.4050000000000         7.818750670759823E-005
   47.5950000000000         1.794456189492837E-005
   47.7850000000000        -4.042842674903005E-005
   47.9750000000000        -9.533769772576643E-005
   48.1650000000000        -1.447411440886131E-004
   48.3550000000000        -1.865386217663553E-004
   48.5450000000000        -2.174763775534177E-004
   48.7350000000000        -2.343091506257217E-004
   48.9250000000000        -2.340555610657075E-004
   49.1150000000000        -2.155238728423104E-004
   49.3050000000000        -1.775847095640821E-004
   49.4950000000000        -1.235686180624228E-004
   49.6850000000000        -5.664722905021609E-005
   49.8750000000000         1.858396326184738E-005
   50.0650000000000         9.667399316192675E-005
   50.2550000000000         1.714245081839376E-004
   50.4450000000000         2.362788592060214E-004
   50.6350000000000         2.849048899789467E-004
   50.8250000000000         3.137127389251412E-004
   51.0150000000000         3.196866258491665E-004
   51.2050000000000         3.021672441273186E-004
   51.3950000000000         2.633050980017665E-004
   51.5850000000000         2.080739083093208E-004
   51.7750000000000         1.418375207101358E-004
   51.9650000000000         7.054897340785594E-005
   52.1550000000000         1.428784660591178E-007
   52.3450000000000        -6.373681131744147E-005
   52.5350000000000        -1.159309003677251E-004
   52.7250000000000        -1.524753007728168E-004
   52.9150000000000        -1.713188517908918E-004
   53.1050000000000        -1.729309976911117E-004
   53.2950000000000        -1.582042497912596E-004
   53.4850000000000        -1.305812377127407E-004
   53.6750000000000        -9.272860740383498E-005
   53.8650000000000        -4.719039547095445E-005
   54.0550000000000         3.413827971203499E-006
   54.2450000000000         5.671223204722114E-005
   54.4350000000000         1.102362716186324E-004
   54.6250000000000         1.611996573507548E-004
   54.8150000000000         2.068829797885465E-004
   55.0050000000000         2.446635308077769E-004
   55.1950000000000         2.721722952954703E-004
   55.3850000000000         2.881939746007990E-004
   55.5750000000000         2.908528233926527E-004
   55.7650000000000         2.806854598788163E-004
   55.9550000000000         2.588251320380097E-004
   56.1450000000000         2.267680232578284E-004
   56.3350000000000         1.872878395012658E-004
   56.5250000000000         1.439352948530455E-004
   56.7150000000000         1.005750364487422E-004
   56.9050000000000         6.063449779661260E-005
   57.0950000000000         2.665332855615214E-005
   57.2850000000000         2.878403783536172E-007
   57.4750000000000        -1.717971742647228E-005
   57.6650000000000        -2.615002670777884E-005
   57.8550000000000        -2.716001950650957E-005
   58.0450000000000        -2.231790172605599E-005
   58.2350000000000        -1.237685618274385E-005
   58.4250000000000        -2.154853028027290E-008
   58.6150000000000         1.197305958323512E-005
   58.8050000000000         2.219205073336018E-005
   58.9950000000000         3.004061426235929E-005
   59.1850000000000         3.375262746736353E-005
   59.3750000000000         3.335280470661461E-005
   59.5650000000000         2.905407787220650E-005
   59.7550000000000         2.207804776647477E-005
   59.9450000000000         1.163762078014665E-005
   60.1350000000000        -1.970659205429362E-006
   60.3250000000000        -1.857338210326892E-005
   60.5150000000000        -3.744463461271960E-005
   60.7050000000000        -5.843638956394699E-005
   60.8950000000000        -8.141581640571918E-005
   61.0850000000000        -1.064039601151985E-004
   61.2750000000000        -1.329302182029348E-004
   61.4650000000000        -1.603747356741244E-004
   61.6550000000000        -1.876808486366628E-004
   61.8450000000000        -2.135937038736525E-004
   62.0350000000000        -2.366603252990518E-004
   62.2250000000000        -2.558240733806572E-004
   62.4150000000000        -2.700250040742849E-004
   62.6050000000000        -2.773450693253037E-004
   62.7950000000000        -2.761683406205282E-004
   62.9850000000000        -2.693992246251244E-004
   63.1750000000000        -2.552249652499317E-004
   63.3650000000000        -2.351859713801124E-004
   63.5550000000000        -2.107376123081493E-004
   63.7450000000000        -1.840464921984818E-004
   63.9350000000000        -1.561675330097571E-004
   64.1250000000000        -1.273886759096281E-004
   64.3150000000000        -9.795958617329813E-005
   64.5050000000000        -6.821021617390708E-005
   64.6950000000000        -3.871162719394346E-005
   64.8850000000000        -1.126035786478268E-005
   65.0750000000000         1.403378227712845E-005
   65.2650000000000         3.550064832430612E-005
   65.4550000000000         5.276066881794490E-005
   65.6450000000000         6.579855068872908E-005
   65.8350000000000         7.414670098204702E-005
   66.0250000000000         7.730712257021458E-005
   66.2150000000000         7.510039464715139E-005
   66.4050000000000         6.756801809021601E-005
   66.5950000000000         5.504534274926773E-005
   66.7850000000000         4.058178742673353E-005
   66.9750000000000         2.442715440508668E-005
   67.1650000000000         7.338753937937337E-006
   67.3550000000000        -1.027394717169981E-005
   67.5450000000000        -2.841766497895742E-005
   67.7350000000000        -4.598893979847980E-005
   67.9250000000000        -6.124946906515999E-005
   68.1150000000000        -7.262426064177557E-005
   68.3050000000000        -7.869008952352413E-005
   68.4950000000000        -7.888987027232141E-005
   68.6850000000000        -7.363332779523142E-005
   68.8750000000000        -6.408004149681116E-005
   69.0650000000000        -5.136957260308467E-005
   69.2550000000000        -3.637207580231260E-005
   69.4450000000000        -1.945021652973512E-005
   69.6350000000000        -1.143895493213531E-006
   69.8250000000000         1.811061613488823E-005
   70.0150000000000         3.803363693412637E-005
   70.2050000000000         5.817894518181066E-005
   70.3950000000000         8.025499777069368E-005
   70.5850000000000         1.049683976844012E-004
   70.7750000000000         1.343728561349481E-004
   70.9650000000000         1.682187923087774E-004
   71.1550000000000         2.056282454548746E-004
   71.3450000000000         2.424552077451132E-004
   71.5350000000000         2.760123705327317E-004
   71.7250000000000         3.004126720879691E-004
   71.9150000000000         3.174825836603051E-004
   72.1050000000000         3.220565277011551E-004
   72.2950000000000         3.192509525195168E-004
   72.4850000000000         3.088162732484586E-004
   72.6750000000000         2.927738461333053E-004
   72.8650000000000         2.706103125681634E-004
   73.0550000000000         2.446069834843637E-004
   73.2450000000000         2.146636583802621E-004
   73.4350000000000         1.807748378531387E-004
   73.6250000000000         1.440219473172529E-004
   73.8150000000000         1.038819647963854E-004
   74.0050000000000         5.943666687226060E-005
   74.1950000000000         1.091244798397881E-005
   74.3850000000000        -4.005883798676542E-005
   74.5750000000000        -8.986602536231102E-005
   74.7650000000000        -1.341360759907844E-004
   74.9550000000000        -1.687735134774656E-004
   75.1450000000000        -1.913216139108327E-004
   75.3350000000000        -2.006160483814026E-004
   75.5250000000000        -1.997377732759980E-004
   75.7150000000000        -1.893029106635842E-004
   75.9050000000000        -1.722869253144237E-004
   76.0950000000000        -1.515305732412595E-004
   76.2850000000000        -1.313283937082914E-004
   76.4750000000000        -1.164903594789391E-004
   76.6650000000000        -1.116852324814580E-004
   76.8550000000000        -1.214446467531216E-004
   77.0450000000000        -1.459994337063238E-004
   77.2350000000000        -1.842380046613271E-004
   77.4250000000000        -2.333040736531365E-004
   77.6150000000000        -2.886272448677748E-004
   77.8050000000000        -3.459862126331863E-004
   77.9950000000000        -4.018453913459590E-004
   78.1850000000000        -4.534848670558838E-004
   78.3750000000000        -4.981629298277867E-004
   78.5650000000000        -5.328163512360543E-004
   78.7550000000000        -5.545133628928750E-004
   78.9450000000000        -5.614066323396620E-004
   79.1350000000000        -5.520401808925638E-004
   79.3250000000000        -5.295544354368972E-004
   79.5150000000000        -4.932142281569543E-004
   79.7050000000000        -4.459353807523802E-004
   79.8950000000000        -3.892425296911676E-004
   80.0850000000000        -3.237987588042731E-004
   80.2750000000000        -2.505549069318986E-004
   80.4650000000000        -1.711279218014697E-004
   80.6550000000000        -8.832890372585847E-005
   80.8450000000000        -5.287034043054556E-006
   81.0350000000000         7.468919202821154E-005
   81.2250000000000         1.485897113048609E-004
   81.4150000000000         2.133447331947007E-004
   81.6050000000000         2.654401627987079E-004
   81.7950000000000         3.009556693183075E-004
   81.9850000000000         3.158995904432766E-004
   82.1750000000000         3.092208957005183E-004
   82.3650000000000         2.805092900717936E-004
   82.5550000000000         2.343710519307595E-004
   82.7450000000000         1.769772157923325E-004
   82.9350000000000         1.151171713966782E-004
   83.1250000000000         5.408568637845258E-005
   83.3150000000000        -2.783486864427500E-006
   83.5050000000000        -5.386773966662344E-005
   83.6950000000000        -9.845191472974990E-005
   83.8850000000000        -1.367293482559001E-004
   84.0750000000000        -1.668084939070935E-004
   84.2650000000000        -1.903549075975554E-004
   84.4550000000000        -2.061683438561415E-004
   84.6450000000000        -2.156916089009888E-004
   84.8350000000000        -2.191035281079016E-004
   85.0250000000000        -2.157082958072832E-004
   85.2150000000000        -2.039494574826840E-004
   85.4050000000000        -1.832697926310470E-004
   85.5950000000000        -1.540293668993079E-004
   85.7850000000000        -1.180022944538808E-004
   85.9750000000000        -7.864018039604921E-005
   86.1650000000000        -3.981220976677348E-005
   86.3550000000000        -4.568229264568381E-006
   86.5450000000000         2.559146612929367E-005
   86.7350000000000         5.050289027179819E-005
   86.9250000000000         7.084971946155440E-005
   87.1150000000000         8.717603699216606E-005
   87.3050000000000         9.997480836693910E-005
   87.4950000000000         1.093634133989931E-004
   87.6850000000000         1.157570641585127E-004
   87.8750000000000         1.195563261437867E-004
   88.0650000000000         1.218035668663635E-004
   88.2550000000000         1.203525530761947E-004
   88.4450000000000         1.154572851513419E-004
   88.6350000000000         1.035549606707751E-004
   88.8250000000000         8.182459837319758E-005
   89.0150000000000         4.933340741328521E-005
   89.2050000000000         8.139618405222636E-006
   89.3950000000000        -3.855975135872396E-005
   89.5850000000000        -8.752503675871397E-005
   89.7750000000000        -1.358439951983815E-004
   89.9650000000000        -1.820000929503257E-004
   90.1550000000000        -2.253504833825716E-004
   90.3450000000000        -2.651906147105901E-004
   90.5350000000000        -3.012100700618384E-004
   90.7250000000000        -3.331872836386419E-004
   90.9150000000000        -3.616697734262810E-004
   91.1050000000000        -3.878231318421795E-004
   91.2950000000000        -4.132211986044978E-004
   91.4850000000000        -4.390064274380227E-004
   91.6750000000000        -4.651895395788986E-004
   91.8650000000000        -4.904675708266520E-004
   92.0550000000000        -5.129056507215757E-004
   92.2450000000000        -5.301569139208715E-004
   92.4350000000000        -5.412830007851050E-004
   92.6250000000000        -5.452256529577520E-004
   92.8150000000000        -5.414589473461513E-004
   93.0050000000000        -5.293142464722779E-004
   93.1950000000000        -5.082917973383633E-004
   93.3850000000000        -4.790578061823399E-004
   93.5750000000000        -4.423604471124653E-004
   93.7650000000000        -4.006695112231381E-004
   93.9550000000000        -3.564658236602037E-004
   94.1450000000000        -3.119825964665810E-004
   94.3350000000000        -2.685820029204541E-004
   94.5250000000000        -2.269063649772673E-004
   94.7150000000000        -1.871930921330959E-004
   94.9050000000000        -1.496688635655764E-004
   95.0950000000000        -1.156715508969458E-004
   95.2850000000000        -8.588924317631658E-005
   95.4750000000000        -6.421583433922177E-005
   95.6650000000000        -4.651952115282552E-005
   95.8550000000000        -3.888227288328447E-005
   96.0450000000000        -3.892159707980149E-005
   96.2350000000000        -4.638470945316738E-005
   96.4250000000000        -6.075372646902517E-005
   96.6150000000000        -8.048735978333551E-005
   96.8050000000000        -1.031463934044360E-004
   96.9950000000000        -1.252241950402216E-004
   97.1850000000000        -1.434711615357414E-004
   97.3750000000000        -1.547517957270871E-004
   97.5650000000000        -1.586069464571985E-004
   97.7550000000000        -1.547456953372287E-004
   97.9450000000000        -1.452686136947561E-004
   98.1350000000000        -1.327566146370491E-004
   98.3250000000000        -1.199507601292706E-004
   98.5150000000000        -1.098948690900604E-004
   98.7050000000000        -1.057368112376672E-004
   98.8950000000000        -1.104377785473798E-004
   99.0850000000000        -1.265232832364300E-004
   99.2750000000000        -1.557726662350611E-004
   99.4650000000000        -1.984134402046851E-004
   99.6550000000000        -2.533572921674502E-004
   99.8450000000000        -3.189711663052729E-004
   100.035000000000        -3.927968903916595E-004
   100.225000000000        -4.720159306944245E-004
   100.415000000000        -5.529490262187679E-004
   100.605000000000        -6.309828616362269E-004
   100.795000000000        -7.003865519431184E-004
   100.985000000000        -7.553225939387855E-004
   101.175000000000        -7.896253455369713E-004
   101.365000000000        -8.016209947883986E-004
   101.555000000000        -7.888648327990832E-004
   101.745000000000        -7.501303341566103E-004
   101.935000000000        -6.895070527129676E-004
   102.125000000000        -6.103458107526496E-004
   102.315000000000        -5.171385939480591E-004
   102.505000000000        -4.150567705689698E-004
   102.695000000000        -3.100720406899777E-004
   102.885000000000        -2.083512982971873E-004
   103.075000000000        -1.156322073286053E-004
   103.265000000000        -3.631562300481186E-005
   103.455000000000         2.689392615554938E-005
   103.645000000000         7.291014294075790E-005
   103.835000000000         1.019133641635983E-004
   104.025000000000         1.150039151342352E-004
   104.215000000000         1.118361729466317E-004
   104.405000000000         9.795179581519548E-005
   104.595000000000         7.498940093560428E-005
   104.785000000000         4.599796772658193E-005
   104.975000000000         1.444351347646983E-005
   105.165000000000        -1.725642016163340E-005
   105.355000000000        -4.824638564101064E-005
   105.545000000000        -7.917680543957687E-005
   105.735000000000        -1.110533273629399E-004
   105.925000000000        -1.443435422990238E-004
   106.115000000000        -1.789226320912334E-004
   106.305000000000        -2.141003270967954E-004
   106.495000000000        -2.493356400224006E-004
   106.685000000000        -2.848929962155886E-004
   106.875000000000        -3.215585620155992E-004
   107.065000000000        -3.594487890852100E-004
   107.255000000000        -3.982153600333529E-004
   107.445000000000        -4.361060354029247E-004
   107.635000000000        -4.714300924488802E-004
   107.825000000000        -5.029753496968116E-004
   108.015000000000        -5.307762427312566E-004
   108.205000000000        -5.557920805161039E-004
   108.395000000000        -5.794420070822104E-004
   108.585000000000        -6.006302829895141E-004
   108.775000000000        -6.177486320153975E-004
   108.965000000000        -6.290951756621935E-004
   109.155000000000        -6.310204133788151E-004
   109.345000000000        -6.269637259367444E-004
   109.535000000000        -6.137064421650674E-004
   109.725000000000        -5.930194966174190E-004
   109.915000000000        -5.660975016729891E-004
   110.105000000000        -5.319406709217162E-004