  -1.42500000000000         0.000000000000000E+000
  -1.23500000000000         1.216886255298315E-003
  -1.04500000000000         7.660019503007575E-003
 -0.855000000000000         3.343773144141118E-002
 -0.665000000000000         0.118106035000015     
 -0.475000000000000         0.345597881869172     
 -0.285000000000000         0.838756527549486     
 -9.499999999999975E-002     1.67762544948494     
  9.500000000000020E-002     2.71346581095438     
  0.285000000000000          3.35526285924000     
  0.475000000000000          2.52572032172252     
  0.665000000000000         -1.02437852797778     
  0.855000000000000         -8.04968029101405     
   1.04500000000000         -18.0533463148804     
   1.23500000000000         -28.8243121197054     
   1.42500000000000         -36.5645865710926     
   1.61500000000000         -36.6677922190457     
   1.80500000000000         -24.9514691114907     
   1.99500000000000          1.03364762916106     
   2.18500000000000          41.0359507635608     
   2.37500000000000          91.7942555326233     
   2.56500000000000          147.504624276899     
   2.75500000000000          200.950652347321     
   2.94500000000000          244.999583590194     
   3.13500000000000          274.071583747408     
   3.32500000000000          285.202691842627     
   3.51500000000000          278.436759865653     
   3.70500000000000          256.471516805559     
   3.89500000000000          223.700886900581     
   4.08500000000000          184.974053351461     
   4.27500000000000          144.467147558109     
   4.46500000000000          105.002875796254     
   4.65500000000000          67.9763550142588     
   4.84500000000000          33.8202115905677     
   5.03500000000000          2.75614659607320     
   5.22500000000000         -24.4998789866000     
   5.41500000000000         -46.3680178465059     
   5.60500000000000         -60.5219001724560     
   5.79500000000000         -64.4670921641147     
   5.98500000000000         -56.3932976627064     
   6.17500000000000         -36.0113000813419     
   6.36500000000000         -5.07200625254827     
   6.55500000000000          32.6521915475406     
   6.74500000000000          71.9814656405985     
   6.93500000000000          107.400657744669     
   7.12500000000000          134.290517066902     
   7.31500000000000          149.953664144470     
   7.50500000000000          154.129644297259     
   7.69500000000000          148.854663014889     
   7.88500000000000          137.724721013815     
   8.07500000000000          124.795818191655     
   8.26500000000000          113.449967571835     
   8.45500000000000          105.551003293800     
   8.64500000000000          101.119155953556     
   8.83500000000000          98.5970777603105     
   9.02500000000000          95.6027869588860     
   9.21500000000000          89.9151255101956     
   9.40500000000000          80.3635563363622     
   9.59500000000000          67.3278367040641     
   9.78500000000000          52.6885398118619     
   9.97500000000000          39.2593438485851     
   10.1650000000000          29.9059120591282     
   10.3550000000000          26.6512931559967     
   10.5450000000000          30.0559561222173     
   10.7350000000000          39.0565073069161     
   10.9250000000000          51.2948961957643     
   11.1150000000000          63.8199486345747     
   11.3050000000000          73.9360983672833     
   11.4950000000000          79.9366896234916     
   11.6850000000000          81.5017973544774     
   11.8750000000000          79.6529081960679     
   12.0650000000000          76.3046423560645     
   12.2550000000000          73.5854177619149     
   12.4450000000000          73.1648243665923     
   12.6350000000000          75.8012366335315     
   12.8250000000000          81.2243171873017     
   13.0150000000000          88.3410535370921     
   13.2050000000000          95.6532269926988     
   13.3950000000000          101.729088648006     
   13.5850000000000          105.582783152475     
   13.7750000000000          106.863265415149     
   13.9650000000000          105.819420840412     
   14.1550000000000          103.075296451494     
   14.3450000000000          99.3074699236957     
   14.5350000000000          94.9506029008954     
   14.7250000000000          90.0495017169641     
   14.9150000000000          84.3196078358534     
   15.1050000000000          77.3901454020778     
   15.2950000000000          69.1238893052518     
   15.4850000000000          59.8734964992912     
   15.6750000000000          50.5620281426575     
   15.8650000000000          42.5484626056760     
   16.0550000000000          37.3211920145953     
   16.2450000000000          36.1192993621902     
   16.4350000000000          39.5977489785583     
   16.6250000000000          47.6333744343528     
   16.8150000000000          59.3263395687841     
   17.0050000000000          73.1972208560495     
   17.1950000000000          87.5230885673630     
   17.3850000000000          100.711882454588     
   17.5750000000000          111.600993699165     
   17.7650000000000          119.594044884877     
   17.9550000000000          124.612292165650     
   18.1450000000000          126.907714150559     
   18.3350000000000          126.831184092449     
   18.5250000000000          124.651975398865     
   18.7150000000000          120.489517905012     
   18.9050000000000          114.367399018042     
   19.0950000000000          106.355430605943     
   19.2850000000000          96.7387301308816     
   19.4750000000000          86.1435439812598     
   19.6650000000000          75.5566323857417     
   19.8550000000000          66.2005778404150     
   20.0450000000000          59.2730296637074     
   20.2350000000000          55.6148671725364     
   20.4250000000000          55.4170723243130     
   20.6150000000000          58.0815418509798     
   20.8050000000000          62.3062171266029     
   20.9950000000000          66.3861561860926     
   21.1850000000000          68.6447473842802     
   21.3750000000000          67.8663719812597     
   21.5650000000000          63.6069624075971     
   21.7550000000000          56.3023662039573     
   21.9450000000000          47.1543121935431     
   22.1350000000000          37.8311499677568     
   22.3250000000000          30.0654646362534     
   22.5150000000000          25.2567448231162     
   22.7050000000000          24.1860487988177     
   22.8950000000000          26.9150337499620     
   23.0850000000000          32.8802441615044     
   23.2750000000000          41.1274739548576     
   23.4650000000000          50.5891242265828     
   23.6550000000000          60.3083586543109     
   23.8450000000000          69.5533965104940     
   24.0350000000000          77.8191239634969     
   24.2250000000000          84.7540165397874     
   24.4150000000000          90.0655865160167     
   24.6050000000000          93.4522692720946     
   24.7950000000000          94.5949278371277     
   24.9850000000000          93.2222206644057     
   25.1750000000000          89.2393718142412     
   25.3650000000000          82.8795808503415     
   25.5550000000000          74.8116383196572     
   25.7450000000000          66.1346459407522     
   25.9350000000000          58.2236038796635     
   26.1250000000000          52.4497841000977     
   26.3150000000000          49.8583756108249     
   26.5050000000000          50.9113544339751     
   26.6950000000000          55.3827301523769     
   26.8850000000000          62.4384171886643     
   27.0750000000000          70.8712073019146     
   27.2650000000000          79.4172075972482     
   27.4550000000000          87.0634112229756     
   27.6450000000000          93.2631708565984     
   27.8350000000000          98.0009608315381     
   28.0250000000000          101.687621438975     
   28.2150000000000          104.918834641758     
   28.4050000000000          108.179554345441     
   28.5950000000000          111.603372970843     
   28.7850000000000          114.880466422354     
   28.9750000000000          117.351525703231     
   29.1650000000000          118.250859019835     
   29.3550000000000          117.003428785996     
   29.5450000000000          113.462996068221     
   29.7350000000000          108.004436759188     
   29.9250000000000          101.435981443504     
   30.1150000000000          94.7552433458148     
   30.3050000000000          88.8215260134843     
   30.4950000000000          84.0474936399639     
   30.6850000000000          80.2183798814413     
   30.8750000000000          76.5192356466403     
   31.0650000000000          71.7894694427224     
   31.2550000000000          64.9431674545309     
   31.4450000000000          55.4233878202840     
   31.6350000000000          43.5321474698142     
   31.8250000000000          30.5115420214161     
   32.0150000000000          18.3331025392237     
   32.2050000000000          9.24842716178383     
   32.3950000000000          5.22858262473298     
   32.5850000000000          7.45116568657794     
   32.7750000000000          15.9790798689138     
   32.9650000000000          29.7231817989016     
   33.1550000000000          46.7051640346877     
   33.3450000000000          64.5522431267103     
   33.5350000000000          81.0818814344926     
   33.7250000000000          94.7992290340443     
   33.9150000000000          105.153087278416     
   34.1050000000000          112.476969372415     
   34.2950000000000          117.651630824547     
   34.4850000000000          121.620206366059     
   34.6750000000000          124.929967316885     
   34.8650000000000          127.454275809516     
   35.0550000000000          128.380812982078     
   35.2450000000000          126.467330448865     
   35.4350000000000          120.489131065143     
   35.6250000000000          109.746906157078     
   35.8150000000000          94.4778845325126     
   36.0050000000000          76.0270609224899     
   36.1950000000000          56.6950722373068     
   36.3850000000000          39.2771020228322     
   36.5750000000000          26.4140856058854     
   36.7650000000000          19.9511736861150     
   36.9550000000000          20.5039851969865     
   37.1450000000000          27.3645567432928     
   37.3350000000000          38.7643049123145     
   37.5250000000000          52.3973425528355     
   37.7150000000000          66.0342854894517     
   37.9050000000000          78.0423593311031     
   38.0950000000000          87.6681320399002     
   38.2850000000000          95.0172550601566     
   38.4750000000000          100.759148677666     
   38.6650000000000          105.670226517729     
   38.8550000000000          110.182597348090     
   39.0450000000000          114.104959992573     
   39.2350000000000          116.621870143856     
   39.4250000000000          116.574690628369     
   39.6150000000000          112.921666707596     
   39.8050000000000          105.208004743596     
   39.9950000000000          93.8739831394362     
   40.1850000000000          80.2866724350333     
   40.3750000000000          66.4731749815553     
   40.5650000000000          54.6275580325661     
   40.7550000000000          46.5335542582484     
   40.9450000000000          43.0751231040352     
   41.1350000000000          43.9892447129620     
   41.3250000000000          47.9492824724519     
   41.5150000000000          52.9658285616932     
   41.7050000000000          56.9857017739601     
   41.8950000000000          58.4989844172911     
   42.0850000000000          56.9599837148473     
   42.2750000000000          52.8951048850057     
   42.4650000000000          47.6812599218913     
   42.6550000000000          43.0866304997730     
   42.8450000000000          40.7314144846773     
   43.0350000000000          41.6340473337166     
   43.2250000000000          45.9673066343084     
   43.4150000000000          53.0791130860658     
   43.6050000000000          61.7547032133585     
   43.7950000000000          70.6269926938749     
   43.9850000000000          78.5968054703218     
   44.1750000000000          85.1203175287057     
   44.3650000000000          90.2662412811498     
   44.5550000000000          94.5304548633556     
   44.7450000000000          98.4897568569435     
   44.9350000000000          102.438649834690     
   45.1250000000000          106.156132466675     
   45.3150000000000          108.894693856669     
   45.5050000000000          109.598100573938     
   45.6950000000000          107.273870658029     
   45.8850000000000          101.396979309950     
   46.0750000000000          92.2124774876400     
   46.2650000000000          80.8322577402851     
   46.4550000000000          69.0766973217164     
   46.6450000000000          59.0854075104180     
   46.8350000000000          52.7966470113628     
   47.0250000000000          51.4472285882120     
   47.2150000000000          55.2491401264980     
   47.4050000000000          63.3465934995054     
   47.5950000000000          74.0642080959191     
   47.7850000000000          85.3601565995505     
   47.9750000000000          95.3361946499921     
   48.1650000000000          102.650723419875     
   48.3550000000000          106.726318661084     
   48.5450000000000          107.716116067783     
   48.7350000000000          106.267977837272     
   48.9250000000000          103.182357145713     
   49.1150000000000          99.0871403969539     
   49.3050000000000          94.2431486700448     
   49.4950000000000          88.5467986482588     
   49.6850000000000          81.7227621018951     
   49.8750000000000          73.6240100224620     
   50.0650000000000          64.5106483543773     
   50.2550000000000          55.1846804506515     
   50.4450000000000          46.9139493311702     
   50.6350000000000          41.1594227854801     
   50.8250000000000          39.1909090967866     
   51.0150000000000          41.7121480862442     
   51.2050000000000          48.6107248674732     
   51.3950000000000          58.9102860226207     
   51.5850000000000          70.9464962690342     
   51.7750000000000          82.7270485941235     
   51.9650000000000          92.3817668995363     
   52.1550000000000          98.5762068191841     
   52.3450000000000          100.767071012304     
   52.5350000000000          99.2264960687277     
   52.7250000000000          94.8410907098031     
   52.9150000000000          88.7689968401081     
   53.1050000000000          82.0809616917613     
   53.2950000000000          75.5030768056390     
   53.4850000000000          69.3282952436264     
   53.6750000000000          63.4978921665181     
   53.8650000000000          57.8001289571920     
   54.0550000000000          52.1054492844688     
   54.2450000000000          46.5552128623388     
   54.4350000000000          41.6387974437096     
   54.6250000000000          38.1279903366299     
   54.8150000000000          36.8833310506054     
   55.0050000000000          38.5933609497779     
   55.1950000000000          43.5368468773246     
   55.3850000000000          51.4539483495734     
   55.5750000000000          61.5725025727918     
   55.7650000000000          72.7766727337644     
   55.9550000000000          83.8548769556897     
   56.1450000000000          93.7439632217562     
   56.3350000000000          101.700365103954     
   56.5250000000000          107.363270215172     
   56.7150000000000          110.711999326959     
   56.9050000000000          111.948343337093     
   57.0950000000000          111.351328444543     
   57.2850000000000          109.156821159718     
   57.4750000000000          105.505575126514     
   57.6650000000000          100.478077420275     
   57.8550000000000          94.1969872830124     
   58.0450000000000          86.9434229762591     
   58.2350000000000          79.2215474435477     
   58.4250000000000          71.7266838629780     
   58.6150000000000          65.2167384217787     
   58.8050000000000          60.3319953679975     
   58.9950000000000          57.4314609070165     
   59.1850000000000          56.5058459990999     
   59.3750000000000          57.1964433741367     
   59.5650000000000          58.9127391032648     
   59.7550000000000          61.0128140524553     
   59.9450000000000          62.9937091860587     
   60.1350000000000          64.6341912365286     
   60.3250000000000          66.0418360185691     
   60.5150000000000          67.5827244146789     
   60.7050000000000          69.7120118427381     
   60.8950000000000          72.7637686942039     
   61.0850000000000          76.7794381387595     
   61.2750000000000          81.4423603503524     
   61.4650000000000          86.1440707799291     
   61.6550000000000          90.1562493325083     
   61.8450000000000          92.8443258231096     
   62.0350000000000          93.8485679813961     
   62.2250000000000          93.1744643640519     
   62.4150000000000          91.1655783087900     
   62.6050000000000          88.3677176040535     
   62.7950000000000          85.3261235699826     
   62.9850000000000          82.3820610813865     
   63.1750000000000          79.5438684534901     
   63.3650000000000          76.4909783908074     
   63.5550000000000          72.7254948640867     
   63.7450000000000          67.8276238920084     
   63.9350000000000          61.7240015845601     
   64.1250000000000          54.8653358394061     
   64.3150000000000          48.2388866957764     
   64.5050000000000          43.1986737287865     
   64.6950000000000          41.1566300515760     
   64.8850000000000          43.2190588691402     
   65.0750000000000          49.8659261941778     
   65.2650000000000          60.7590765496685     
   65.4550000000000          74.7358407527116     
   65.6450000000000          90.0008225961598     
   65.8350000000000          104.476174633640     
   66.0250000000000          116.221915135396     
   66.2150000000000          123.811617865764     
   66.4050000000000          126.560475229701     
   66.5950000000000          124.552479473108     
   66.7850000000000          118.482256362230     
   66.9750000000000          109.385450893863     
   67.1650000000000          98.3564673008663     
   67.3550000000000          86.3393907423294     
   67.5450000000000          74.0396649248036     
   67.7350000000000          61.9586659153369     
   67.9250000000000          50.5143165879211     
   68.1150000000000          40.1854928163817     
   68.3050000000000          31.6103445398007     
   68.4950000000000          25.5824875928383     
   68.6850000000000          22.9249893757929     
   68.8750000000000          24.2718720889173     
   69.0650000000000          29.8313325146834     
   69.2550000000000          39.2221361697452     
   69.4450000000000          51.4539598915856     
   69.6350000000000          65.0722012636556     
   69.8250000000000          78.4305524567316     
   70.0150000000000          90.0139990646738     
   70.2050000000000          98.7234700912568     
   70.3950000000000          104.049514975690     
   70.5850000000000          106.095966347916     
   70.7750000000000          105.455212927397     
   70.9650000000000          102.976843656307     
   71.1550000000000          99.5027537069140     
   71.3450000000000          95.6531853282523     
   71.5350000000000          91.7306861315620     
   71.7250000000000          87.7645961604337     
   71.9150000000000          83.6637226632908     
   72.1050000000000          79.4033902830854     
   72.2950000000000          75.1637349128842     
   72.4850000000000          71.3612043935029     
   72.6750000000000          68.5601605172980     
   72.8650000000000          67.2955878072730     
   73.0550000000000          67.8669595979103     
   73.2450000000000          70.1732859625336     
   73.4350000000000          73.6514545952623     
   73.6250000000000          77.3551587375001     
   73.8150000000000          80.1714979141077     
   74.0050000000000          81.1240508762711     
   74.1950000000000          79.6711046267187     
   74.3850000000000          75.8960543223105     
   74.5750000000000          70.5156339571228     
   74.7650000000000          64.6931755905642     
   74.9550000000000          59.7131322373433     
   75.1450000000000          56.6204214538464     
   75.3350000000000          55.9367156545622     
   75.5250000000000          57.5371800868176     
   75.7150000000000          60.7202468409105     
   75.9050000000000          64.4475085588455     
   76.0950000000000          67.6837037517953     
   76.2850000000000          69.7362832651129     
   76.4750000000000          70.4878096969589     
   76.6650000000000          70.4396087364461     
   76.8550000000000          70.5414220137478     
   77.0450000000000          71.8546039167567     
   77.2350000000000          75.1587090244801     
   77.4250000000000          80.6363517690923     
   77.6150000000000          87.7468812474739     
   77.8050000000000          95.3351748159298     
   77.9950000000000          101.943488251969     
   78.1850000000000          106.230059497352     
   78.3750000000000          107.366381825169     
   78.5650000000000          105.291027315076     
   78.7550000000000          100.738000249755     
   78.9450000000000          95.0227217226960     
   79.1350000000000          89.6436001634357     
   79.3250000000000          85.8198599131676     
   79.5150000000000          84.1135106582385     
   79.7050000000000          84.2605529063459     
   79.8950000000000          85.2680629058985     
   80.0850000000000          85.7444196034270     
   80.2750000000000          84.3540506535193     
   80.4650000000000          80.2525831048010     
   80.6550000000000          73.3710055403612     
   80.8450000000000          64.4681299392821     
   81.0350000000000          54.9402352976553     
   81.2250000000000          46.4460482396682     
   81.4150000000000          40.4581217862607     
   81.6050000000000          37.8750945752949     
   81.7950000000000          38.8138118197900     
   81.9850000000000          42.6450468295274     
   82.1750000000000          48.2556561547953     
   82.3650000000000          54.4419254266622     
   82.5550000000000          60.2949073260785     
   82.7450000000000          65.4464635418853     
   82.9350000000000          70.0994609469704     
   83.1250000000000          74.8431903881998     
   83.3150000000000          80.3259582541494     
   83.5050000000000          86.8992255672406     
   83.6950000000000          94.3537213262462     
   83.8850000000000          101.840331659175     
   84.0750000000000          108.014714888687     
   84.2650000000000          111.375620126187     
   84.4550000000000          110.700424342217     
   84.6450000000000          105.440633364879     
   84.8350000000000          95.9446574839179     
   85.0250000000000          83.4289468291497     
   85.2150000000000          69.7036710569382     
   85.4050000000000          56.7420633051773     
   85.5950000000000          46.2304970964227     
   85.7850000000000          39.2336261455927     
   85.9750000000000          36.0623362799654     
   86.1650000000000          36.3632752229187     
   86.3550000000000          39.3807099440532     
   86.5450000000000          44.2921518509470     
   86.7350000000000          50.4998336236940     
   86.9250000000000          57.7763878981731     
   87.1150000000000          66.2135398832458     
   87.3050000000000          75.9951344450418     
   87.4950000000000          87.0864135177166     
   87.6850000000000          98.9711848461504     
   87.8750000000000          110.557580996204     
   88.0650000000000          120.313182969329     
   88.2550000000000          126.605006380501     
   88.4450000000000          128.142812978246     
   88.6350000000000          124.383263572482     
   88.8250000000000          115.759512914124     
   89.0150000000000          103.650974891405     
   89.2050000000000          90.0848758806515     
   89.3950000000000          77.2437465127389     
   89.5850000000000          66.9185012534234     
   89.7750000000000          60.0733628084126     
   89.9650000000000          56.6620732637913     
   90.1550000000000          55.7570772373718     
   90.3450000000000          55.9487616898083     
   90.5350000000000          55.8789464214730     
   90.7250000000000          54.7278813306378     
   90.9150000000000          52.4938355781076     
   91.1050000000000          49.9788961417891     
   91.2950000000000          48.4935965431378     
   91.4850000000000          49.3818994376313     
   91.6750000000000          53.5215777851140     
   91.8650000000000          60.9614673220888     
   92.0550000000000          70.8161757801504     
   92.2450000000000          81.4603253256997     
   92.4350000000000          90.9684445119349     
   92.6250000000000          97.6624530286049     
   92.8150000000000          100.587170533231     
   93.0050000000000          99.7549707961817     
   93.1950000000000          96.0797064704139     
   93.3850000000000          91.0282340547070     
   93.5750000000000          86.1135676503319     
   93.7650000000000          82.4024070452510     
   93.9550000000000          80.1982679966170     
   94.1450000000000          78.9989339377139     
   94.3350000000000          77.7369534076080     
   94.5250000000000          75.2219501974290     
   94.7150000000000          70.6382163034168     
   94.9050000000000          63.9290938214476     
   95.0950000000000          55.9309292680323     
   95.2850000000000          48.1995063730297     
   95.4750000000000          42.5774877310587     
   95.6650000000000          40.6444962494582     
   95.8550000000000          43.2347852101822     
   96.0450000000000          50.1828556130356     
   96.2350000000000          60.3753388698507     
   96.4250000000000          72.0816860424867     
   96.6150000000000          83.4469146388681     
   96.8050000000000          92.9855291396501     
   96.9950000000000          99.9250109273250     
   97.1850000000000          104.300952402632     
   97.3750000000000          106.785913988669     
   97.5650000000000          108.318543133145     
   97.7550000000000          109.664727311322     
   97.9450000000000          111.066832687663     
   98.1350000000000          112.108423812436     
   98.3250000000000          111.846135931626     
   98.5150000000000          109.163314577501     
   98.7050000000000          103.218746340810     
   98.8950000000000          93.8299713978002     
   99.0850000000000          81.6554422752560     
   99.2750000000000          68.1104299273800     
   99.4650000000000          55.0405017679779     
   99.6550000000000          44.2541934422913     
   99.8450000000000          37.0608704860676     
   100.035000000000          33.9590053494507     
   100.225000000000          34.5737307038317     
   100.415000000000          37.8619765595384     
   100.605000000000          42.5123331984022     
   100.795000000000          47.3970161273252     
   100.985000000000          51.9140628105683     
   101.175000000000          56.1001589077936     
   101.365000000000          60.4827443075759     
   101.555000000000          65.7383296231016     
   101.745000000000          72.2932152211948     
   101.935000000000          80.0187298031158     
   102.125000000000          88.1347177263774     
   102.315000000000          95.3608722425656     
   102.505000000000          100.272176175684     
   102.695000000000          101.746408677627     
   102.885000000000          99.3566207132119     
   103.075000000000          93.5713209177478     
   103.265000000000          85.6816349606632     
   103.455000000000          77.4644744353891     
   103.645000000000          70.6845135142686     
   103.835000000000          66.5993284006997     
   104.025000000000          65.6343164515751     
   104.215000000000          67.3336870282703     
   104.405000000000          70.5948493524666     
   104.595000000000          74.0954282096693     
   104.785000000000          76.7605679086356     
   104.975000000000          78.1108143634668     
   105.165000000000          78.3752888804917     
   105.355000000000          78.3345686758113     
   105.545000000000          78.9488679042582     
   105.735000000000          80.9033439817395     
   105.925000000000          84.2386791450339     
   106.115000000000          88.2145085463010     
   106.305000000000          91.4759295163934     
   106.495000000000          92.4827498576642     
   106.685000000000          90.0590604167818     
   106.875000000000          83.8691930261609     
   107.065000000000          74.6468408609254     
   107.255000000000          64.0882575774989     
   107.445000000000          54.4343265900493     
   107.635000000000          47.8679534745056     
   107.825000000000          45.9101018908303     
   108.015000000000          48.9963148978266     
   108.205000000000          56.3604338601507     
   108.395000000000          66.2605517896559     
   108.585000000000          76.4791153431822     
   108.775000000000          84.9444019706110     
   108.965000000000          90.2823524244656     
   109.155000000000          92.1314086876023     
   109.345000000000          91.1326958200709     
   109.535000000000          88.6159373083046     
   109.725000000000          86.0987894470185     
   109.915000000000          84.7701174172356     
   110.105000000000          85.1218635722064     