  -1.42500000000000         3.370876053457936E-002
  -1.23500000000000         0.144771384831328     
  -1.04500000000000         0.535583897249151     
 -0.855000000000000          1.63131832742937     
 -0.665000000000000          3.95633083962751     
 -0.475000000000000          7.35919110280213     
 -0.285000000000000          9.57646194612591     
 -9.499999999999975E-002     5.45627256326804     
  9.500000000000020E-002    -10.9153272350089     
  0.285000000000000         -40.7573292466231     
  0.475000000000000         -75.3616706975850     
  0.665000000000000         -96.2660086796668     
  0.855000000000000         -82.5031651199463     
   1.04500000000000         -21.2548415778033     
   1.23500000000000          83.9526690703013     
   1.42500000000000          211.553152449696     
   1.61500000000000          327.410768850640     
   1.80500000000000          395.257441360022     
   1.99500000000000          388.287711738171     
   2.18500000000000          297.950183785670     
   2.37500000000000          137.176287402019     
   2.56500000000000         -62.7241183892658     
   2.75500000000000         -260.307391344882     
   2.94500000000000         -414.873437275874     
   3.13500000000000         -496.977619445828     
   3.32500000000000         -495.762882886230     
   3.51500000000000         -421.033548008870     
   3.70500000000000         -299.318195149151     
   3.89500000000000         -164.991790696442     
   4.08500000000000         -49.3094804496448     
   4.27500000000000          28.8818291273420     
   4.46500000000000          67.5277279739437     
   4.65500000000000          79.5118381801805     
   4.84500000000000          85.6531420830057     
   5.03500000000000          105.485856283138     
   5.22500000000000          149.248939688848     
   5.41500000000000          213.691316730074     
   5.60500000000000          282.789205936051     
   5.79500000000000          332.935913935375     
   5.98500000000000          340.947453738397     
   6.17500000000000          292.445879430170     
   6.36500000000000          187.947478429230     
   6.55500000000000          44.4619471736575     
   6.74500000000000         -108.312520470576     
   6.93500000000000         -236.269606145062     
   7.12500000000000         -310.989258854998     
   7.31500000000000         -318.204069938460     
   7.50500000000000         -261.799485738497     
   7.69500000000000         -162.187277526418     
   7.88500000000000         -49.8327097253822     
   8.07500000000000          43.8518615606680     
   8.26500000000000          95.4816161159317     
   8.45500000000000          96.0420204374322     
   8.64500000000000          52.9021924376194     
   8.83500000000000         -13.0806816670047     
   9.02500000000000         -74.6086051874213     
   9.21500000000000         -107.033454990110     
   9.40500000000000         -96.5138631153645     
   9.59500000000000         -44.4204227120254     
   9.78500000000000          33.5208013552717     
   9.97500000000000          112.902054676455     
   10.1650000000000          168.942185216768     
   10.3550000000000          184.467641810308     
   10.5450000000000          155.010753974467     
   10.7350000000000          89.6907951287906     
   10.9250000000000          7.94081855850890     
   11.1150000000000         -66.7286068172213     
   11.3050000000000         -114.004389930759     
   11.4950000000000         -122.866579646050     
   11.6850000000000         -94.5705509527783     
   11.8750000000000         -41.5339800995561     
   12.0650000000000          17.4249652591077     
   12.2550000000000          63.6739944273416     
   12.4450000000000          84.6815972925729     
   12.6350000000000          77.1930273360365     
   12.8250000000000          46.9156730199499     
   13.0150000000000          5.41377024422139     
   13.2050000000000         -34.2468642742343     
   13.3950000000000         -61.5558767545042     
   13.5850000000000         -71.2801175012607     
   13.7750000000000         -64.3857849698310     
   13.9650000000000         -47.0991638277098     
   14.1550000000000         -28.3573999690088     
   14.3450000000000         -16.3169112188828     
   14.5350000000000         -15.0757385354841     
   14.7250000000000         -22.9582464592617     
   14.9150000000000         -33.2290457801929     
   15.1050000000000         -37.0302953753591     
   15.2950000000000         -27.2614046851641     
   15.4850000000000         -1.69184350895480     
   15.6750000000000          35.9529866939677     
   15.8650000000000          77.1826854820195     
   16.0550000000000          111.506314090735     
   16.2450000000000          129.649370326124     
   16.4350000000000          126.237557878853     
   16.6250000000000          101.311348438688     
   16.8150000000000          60.3300873361279     
   17.0050000000000          12.6035020511924     
   17.1950000000000         -31.4978898639358     
   17.3850000000000         -63.7031202949893     
   17.5750000000000         -80.2232703286350     
   17.7650000000000         -82.4045403030505     
   17.9550000000000         -75.4245234311228     
   18.1450000000000         -65.7050427429017     
   18.3350000000000         -58.2459455810034     
   18.5250000000000         -54.9376398966449     
   18.7150000000000         -54.2842491168120     
   18.9050000000000         -52.3504023581472     
   19.0950000000000         -44.4524117164150     
   19.2850000000000         -27.1048663313074     
   19.4750000000000         0.229212025030633     
   19.6650000000000          34.0957631631994     
   19.8550000000000          67.2716445600846     
   20.0450000000000          90.5647004303761     
   20.2350000000000          95.8550593614277     
   20.4250000000000          79.2871017975145     
   20.6150000000000          43.2189958159630     
   20.8050000000000         -4.00931346629754     
   20.9950000000000         -50.4528493435484     
   21.1850000000000         -84.1264986484247     
   21.3750000000000         -96.4275393529689     
   21.5650000000000         -84.3542002763727     
   21.7550000000000         -51.0653132070512     
   21.9450000000000         -4.85064308509581     
   22.1350000000000          43.1434042737632     
   22.3250000000000          81.9104021708069     
   22.5150000000000          103.546365341794     
   22.7050000000000          105.254320649386     
   22.8950000000000          89.6461346370654     
   23.0850000000000          63.2138332911568     
   23.2750000000000          33.6404564645989     
   23.4650000000000          7.13529518013725     
   23.6550000000000         -13.1356391009711     
   23.8450000000000         -27.1277119994507     
   24.0350000000000         -36.8652320418950     
   24.2250000000000         -44.9673850432463     
   24.4150000000000         -53.3209756274621     
   24.6050000000000         -62.1613349319904     
   24.7950000000000         -69.6777212674534     
   24.9850000000000         -72.3030935579635     
   25.1750000000000         -65.8432718486204     
   25.3650000000000         -47.3172179164725     
   25.5550000000000         -16.8711869313220     
   25.7450000000000          21.2174603273233     
   25.9350000000000          59.2028332831824     
   26.1250000000000          88.1554374042390     
   26.3150000000000          100.952557130830     
   26.5050000000000          94.6924347715118     
   26.6950000000000          71.5875711325653     
   26.8850000000000          38.1468996388606     
   27.0750000000000          3.13601612419128     
   27.2650000000000         -24.9251155015561     
   27.4550000000000         -40.0677006123147     
   27.6450000000000         -40.4977744787560     
   27.8350000000000         -29.1171569945283     
   28.0250000000000         -12.6162715970808     
   28.2150000000000         0.817354595584753     
   28.4050000000000          4.51797567088047     
   28.5950000000000         -4.06440924906100     
   28.7850000000000         -22.3278163610512     
   28.9750000000000         -43.5381153538400     
   29.1650000000000         -59.4671343612890     
   29.3550000000000         -63.5180743472311     
   29.5450000000000         -53.1337005888868     
   29.7350000000000         -30.7450417355062     
   29.9250000000000         -3.11032637130387     
   30.1150000000000          20.6930959933070     
   30.3050000000000          32.1242370861507     
   30.4950000000000          26.1750308863662     
   30.6850000000000          3.60026381500376     
   30.8750000000000         -28.5490850170888     
   31.0650000000000         -58.6298001183858     
   31.2550000000000         -74.0575525223058     
   31.4450000000000         -65.6914325823550     
   31.6350000000000         -31.2843517431641     
   31.8250000000000          23.3286971248118     
   32.0150000000000          85.6998366967449     
   32.2050000000000          140.300023279475     
   32.3950000000000          172.920432102377     
   32.5850000000000          174.662911924955     
   32.7750000000000          144.492735392024     
   32.9650000000000          89.6919752298677     
   33.1550000000000          23.9639018348062     
   33.3450000000000         -36.4942045495928     
   33.5350000000000         -77.9027897016808     
   33.7250000000000         -93.1714502819983     
   33.9150000000000         -83.9328573510340     
   34.1050000000000         -59.5351978356452     
   34.2950000000000         -33.4095820116650     
   34.4850000000000         -18.2497116533264     
   34.6750000000000         -21.7576858225695     
   34.8650000000000         -44.2595933537278     
   35.0550000000000         -78.6709059771495     
   35.2450000000000         -112.596034640120     
   35.4350000000000         -131.967466048287     
   35.6250000000000         -125.396030928010     
   35.8150000000000         -88.1385591539282     
   36.0050000000000         -24.4090048520892     
   36.1950000000000          53.0199022356943     
   36.3850000000000          126.176005471682     
   36.5750000000000          177.288213218182     
   36.7650000000000          194.341369269860     
   36.9550000000000          174.730194887390     
   37.1450000000000          125.738964618153     
   37.3350000000000          61.8639742797614     
   37.5250000000000         0.108179947233929     
   37.7150000000000         -45.1210275613513     
   37.9050000000000         -65.9917211316954     
   38.0950000000000         -63.0650883252298     
   38.2850000000000         -44.5215901038064     
   38.4750000000000         -23.0142874638757     
   38.6650000000000         -11.0445155042017     
   38.8550000000000         -16.3437170603300     
   39.0450000000000         -38.9322020277257     
   39.2350000000000         -71.0274145919537     
   39.4250000000000         -99.8848865730154     
   39.6150000000000         -112.483048288844     
   39.8050000000000         -100.286970641549     
   39.9950000000000         -62.4179806161465     
   40.1850000000000         -6.26556091620787     
   40.3750000000000          54.5119253321002     
   40.5650000000000          103.922802622480     
   40.7550000000000          128.409213853310     
   40.9450000000000          121.123345239335     
   41.1350000000000          84.3744086028566     
   41.3250000000000          29.2661587188739     
   41.5150000000000         -27.6086669521984     
   41.7050000000000         -69.4346417987779     
   41.8950000000000         -84.5507852015183     
   42.0850000000000         -69.9689231966161     
   42.2750000000000         -31.8273167111566     
   42.4650000000000          17.1527850691432     
   42.6550000000000          62.0336123828985     
   42.8450000000000          90.2451208901662     
   43.0350000000000          95.0312036441107     
   43.2250000000000          76.9680651292449     
   43.4150000000000          43.3181073555470     
   43.6050000000000          5.44873554636359     
   43.7950000000000         -24.9993546833667     
   43.9850000000000         -40.0637318022981     
   44.1750000000000         -38.1603408847612     
   44.3650000000000         -24.4241044387323     
   44.5550000000000         -8.44630439384823     
   44.7450000000000        -0.288338388960104     
   44.9350000000000         -6.41025888534809     
   45.1250000000000         -27.1169319111252     
   45.3150000000000         -56.3754756987327     
   45.5050000000000         -83.8680507805939     
   45.6950000000000         -98.4116740212854     
   45.8850000000000         -91.6235588429870     
   46.0750000000000         -60.8232112200756     
   46.2650000000000         -10.3972485100788     
   46.4550000000000          48.8717619742496     
   46.6450000000000          102.563138843299     
   46.8350000000000          136.823880218960     
   47.0250000000000          142.696120815423     
   47.2150000000000          118.990078524139     
   47.4050000000000          72.5806433076514     
   47.5950000000000          16.0203298398280     
   47.7850000000000         -36.5626164318506     
   47.9750000000000         -73.7260188520380     
   48.1650000000000         -89.7211503787956     
   48.3550000000000         -85.4791643908482     
   48.5450000000000         -67.5328431359985     
   48.7350000000000         -45.3596249597876     
   48.9250000000000         -27.9666497839340     
   49.1150000000000         -20.7416891454346     
   49.3050000000000         -23.6110330990817     
   49.4950000000000         -31.2378538664179     
   49.6850000000000         -35.3106795864067     
   49.8750000000000         -28.1055287715175     
   50.0650000000000         -5.88936940833885     
   50.2550000000000          29.2309358516489     
   50.4450000000000          69.7009577227496     
   50.6350000000000          104.875702409875     
   50.8250000000000          124.369880281195     
   51.0150000000000          121.255894508901     
   51.2050000000000          94.2100934603504     
   51.3950000000000          48.1066230267552     
   51.5850000000000         -7.08193687878482     
   51.7750000000000         -58.8873689661064     
   51.9650000000000         -95.8525868632981     
   52.1550000000000         -110.902374696060     
   52.3450000000000         -103.363965005442     
   52.5350000000000         -78.8041666301436     
   52.7250000000000         -46.7226734285422     
   52.9150000000000         -17.0620852812154     
   53.1050000000000          3.05125380123576     
   53.2950000000000          11.1662970667478     
   53.4850000000000          9.53957021895740     
   53.6750000000000          3.67423456460281     
   53.8650000000000         8.541652639640174E-002
   54.0550000000000          4.00119807737481     
   54.2450000000000          17.5573685180284     
   54.4350000000000          38.9365183254702     
   54.6250000000000          62.7741778685627     
   54.8150000000000          81.8473458503347     
   55.0050000000000          89.5694190685364     
   55.1950000000000          82.3716217369015     
   55.3850000000000          60.9820706639777     
   55.5750000000000          30.0724636497004     
   55.7650000000000         -3.48936119244697     
   55.9550000000000         -32.9395555639552     
   56.1450000000000         -53.5369635420704     
   56.3350000000000         -63.5317665091259     
   56.5250000000000         -64.1045983222094     
   56.7150000000000         -58.5148227604568     
   56.9050000000000         -50.7855651713004     
   57.0950000000000         -44.2518668220151     
   57.2850000000000         -40.3528739163211     
   57.4750000000000         -38.1233150425269     
   57.6650000000000         -34.7255521059245     
   57.8550000000000         -26.9383426451644     
   58.0450000000000         -12.9726101373403     
   58.2350000000000          6.28841972691613     
   58.4250000000000          27.2830509520870     
   58.6150000000000          45.0194567151844     
   58.8050000000000          54.9642269473747     
   58.9950000000000          54.7069128272678     
   59.1850000000000          44.7704233505084     
   59.3750000000000          28.4126967892326     
   59.5650000000000          10.6310033258296     
   59.7550000000000         -3.30137993315851     
   59.9450000000000         -9.42972529456051     
   60.1350000000000         -6.44978582906749     
   60.3250000000000          3.69095883848235     
   60.5150000000000          16.2991421592654     
   60.7050000000000          25.5531696234526     
   60.8950000000000          26.7011798639828     
   61.0850000000000          17.9294395301180     
   61.2750000000000          1.07446587212689     
   61.4650000000000         -19.1006060110109     
   61.6550000000000         -36.6787274786117     
   61.8450000000000         -46.6436103134301     
   62.0350000000000         -46.4915727321507     
   62.2250000000000         -36.9745827678047     
   62.4150000000000         -21.8552534480494     
   62.6050000000000         -6.75161577103619     
   62.7950000000000          2.70170486079820     
   62.9850000000000          2.93268312187553     
   63.1750000000000         -5.94729736250077     
   63.3650000000000         -19.7394311367887     
   63.5550000000000         -31.3680732786027     
   63.7450000000000         -33.4003139991690     
   63.9350000000000         -20.9153306843669     
   64.1250000000000          6.43259284000527     
   64.3150000000000          43.9400602947332     
   64.5050000000000          83.0517808803162     
   64.6950000000000          113.697299024229     
   64.8850000000000          126.992756439707     
   65.0750000000000          117.625568710612     
   65.2650000000000          85.4186661371834     
   65.4550000000000          35.6846991801997     
   65.6450000000000         -21.8734018273735     
   65.8350000000000         -75.6125079147931     
   66.0250000000000         -115.125700038443     
   66.2150000000000         -134.095439513320     
   66.4050000000000         -131.768784502253     
   66.5950000000000         -112.527073525870     
   66.7850000000000         -83.8388464678479     
   66.9750000000000         -53.5229397404175     
   67.1650000000000         -27.3709962753671     
   67.3550000000000         -7.82961936257034     
   67.5450000000000          6.05891435066651     
   67.7350000000000          17.6357252645681     
   67.9250000000000          30.9009849273251     
   68.1150000000000          48.5782685584012     
   68.3050000000000          70.5620866930378     
   68.4950000000000          93.3617376708322     
   68.6850000000000          110.924679506088     
   68.8750000000000          116.691903397275     
   69.0650000000000          106.131391393234     
   69.2550000000000          78.6986168082715     
   69.4450000000000          38.4049210589927     
   69.6350000000000         -7.19917393335288     
   69.8250000000000         -49.1663319981666     
   70.0150000000000         -79.6115119490079     
   70.2050000000000         -93.7237158490125     
   70.3950000000000         -90.8474657121357     
   70.5850000000000         -74.4378058931918     
   70.7750000000000         -50.9034861654293     
   70.9650000000000         -27.5822902576756     
   71.1550000000000         -10.4010645226841     
   71.3450000000000         -2.02024426672251     
   71.5350000000000         -1.20750067695126     
   71.7250000000000         -3.73361567907706     
   71.9150000000000         -4.41714357513725     
   72.1050000000000         0.572770360227531     
   72.2950000000000          12.1087216293606     
   72.4850000000000          27.7420122763529     
   72.6750000000000          42.5615281490301     
   72.8650000000000          50.8571883839950     
   73.0550000000000          48.0596834899186     
   73.2450000000000          32.4610046566571     
   73.4350000000000          6.24752103903475     
   73.6250000000000         -24.5807469703647     
   73.8150000000000         -51.6284269929155     
   74.0050000000000         -66.6343271943449     
   74.1950000000000         -64.3242120458645     
   74.3850000000000         -44.4700847861372     
   74.5750000000000         -12.2448199825733     
   74.7650000000000          23.3355959373349     
   74.9550000000000          52.2806806017710     
   75.1450000000000          66.7314400058902     
   75.3350000000000          63.2734136160581     
   75.5250000000000          43.8393994968829     
   75.7150000000000          15.0746527380060     
   75.9050000000000         -13.6029508306121     
   76.0950000000000         -32.7871379399494     
   76.2850000000000         -36.0402515643134     
   76.4750000000000         -22.1531133617388     
   76.6650000000000          4.15551905303533     
   76.8550000000000          33.5559176096145     
   77.0450000000000          55.1502272774128     
   77.2350000000000          60.2087988057835     
   77.4250000000000          45.2323194949943     
   77.6150000000000          13.2344623289322     
   77.8050000000000         -27.1462640558693     
   77.9950000000000         -64.3141881068221     
   78.1850000000000         -87.2645129519662     
   78.3750000000000         -88.9661173936007     
   78.5650000000000         -68.6335887875211     
   78.7550000000000         -32.1953313500564     
   78.9450000000000          9.31182736283721     
   79.1350000000000          43.0853548197254     
   79.3250000000000          58.6534901755994     
   79.5150000000000          51.3404848486537     
   79.7050000000000          23.8356717851877     
   79.8950000000000         -14.7133878677033     
   80.0850000000000         -51.7098517295354     
   80.2750000000000         -75.0996841775791     
   80.4650000000000         -77.0113577762169     
   80.6550000000000         -55.9916353639718     
   80.8450000000000         -17.3135468295755     
   81.0350000000000          28.6345591035910     
   81.2250000000000          69.4255015119028     
   81.4150000000000          94.3185385717917     
   81.6050000000000          97.5552480737079     
   81.7950000000000          80.1251458515875     
   81.9850000000000          49.2901472446148     
   82.1750000000000          15.9462589085577     
   82.3650000000000         -9.23233718699957     
   82.5550000000000         -19.4300743382091     
   82.7450000000000         -13.8104933717943     
   82.9350000000000          2.51335280178039     
   83.1250000000000          20.4719785241073     
   83.3150000000000          30.2077409180488     
   83.5050000000000          24.4107602746353     
   83.6950000000000         0.889600385678766     
   83.8850000000000         -36.3497812580711     
   84.0750000000000         -77.9356784490740     
   84.2650000000000         -111.803352395313     
   84.4550000000000         -126.997096769195     
   84.6450000000000         -117.345842205626     
   84.8350000000000         -83.6491627093347     
   85.0250000000000         -33.5059589319454     
   85.2150000000000          21.1542387936438     
   85.4050000000000          67.8681867868787     
   85.5950000000000          97.3599794438955     
   85.7850000000000          105.971775213368     
   85.9750000000000          96.1836235063898     
   86.1650000000000          75.2491905313373     
   86.3550000000000          52.4655730127212     
   86.5450000000000          35.9069214917776     
   86.7350000000000          29.6086565576750     
   86.9250000000000          32.1495210690760     
   87.1150000000000          37.2421766405364     
   87.3050000000000          36.2793493318194     
   87.4950000000000          21.9803948963749     
   87.6850000000000         -8.26524039833350     
   87.8750000000000         -50.7145201365454     
   88.0650000000000         -95.9495446524387     
   88.2550000000000         -131.690216438407     
   88.4450000000000         -146.741163532103     
   88.6350000000000         -134.742416969375     
   88.8250000000000         -96.5315059379760     
   89.0150000000000         -40.3756506380825     
   89.2050000000000          20.0822615745509     
   89.3950000000000          69.6920805705549     
   89.5850000000000          96.4018508117657     
   89.7750000000000          95.1204681548313     
   89.9650000000000          69.4264132465891     
   90.1550000000000          30.3789606331294     
   90.3450000000000         -7.24375957816424     
   90.5350000000000         -29.9515186288075     
   90.7250000000000         -29.9994643128806     
   90.9150000000000         -7.78098847058917     
   91.1050000000000          28.5218791597543     
   91.2950000000000          65.7507615829590     
   91.4850000000000          90.0658020218610     
   91.6750000000000          91.4185925067088     
   91.8650000000000          66.8924908888284     
   92.0550000000000          21.8681741686343     
   92.2450000000000         -31.4689850225499     
   92.4350000000000         -77.9532041430811     
   92.6250000000000         -104.412493408411     
   92.8150000000000         -104.069729686311     
   93.0050000000000         -78.7552517650499     
   93.1950000000000         -38.1221077545446     
   93.3850000000000          3.78964020309470     
   93.5750000000000          33.3381107837749     
   93.7650000000000          41.7457494860641     
   93.9550000000000          27.8339332335407     
   94.1450000000000         -1.73535931309596     
   94.3350000000000         -34.7097695311114     
   94.5250000000000         -57.3055591089505     
   94.7150000000000         -58.8750301373150     
   94.9050000000000         -35.7075366051548     
   95.0950000000000          7.38896560700066     
   95.2850000000000          58.4322507764955     
   95.4750000000000          102.189118015807     
   95.6650000000000          125.298627211205     
   95.8550000000000          120.714167372003     
   96.0450000000000          89.8729322427093     
   96.2350000000000          41.9352885268914     
   96.4250000000000         -9.44926804029005     
   96.6150000000000         -50.5987284099572     
   96.8050000000000         -71.9981360971510     
   96.9950000000000         -71.0121970184967     
   97.1850000000000         -52.3817143842178     
   97.3750000000000         -26.3804000432484     
   97.5650000000000         -5.16468050688469     
   97.7550000000000          1.54906366104830     
   97.9450000000000         -9.98654436474211     
   98.1350000000000         -36.1185320106408     
   98.3250000000000         -67.0507887344810     
   98.5150000000000         -90.3530992400334     
   98.7050000000000         -95.4073879866965     
   98.8950000000000         -77.1677058042674     
   99.0850000000000         -37.9635242474187     
   99.2750000000000          13.1602268275321     
   99.4650000000000          63.2581671389316     
   99.6550000000000          99.5286805945412     
   99.8450000000000          113.336781706560     
   100.035000000000          102.952645179997     
   100.225000000000          74.0587396489120     
   100.415000000000          37.7316006414693     
   100.605000000000          6.49103296563059     
   100.795000000000         -10.1838295202208     
   100.985000000000         -9.16760626087929     
   101.175000000000          5.44291696833768     
   101.365000000000          24.1828231507862     
   101.555000000000          35.9916975780480     
   101.745000000000          32.4273956738986     
   101.935000000000          10.8164360482174     
   102.125000000000         -24.6491248496789     
   102.315000000000         -64.1232848495724     
   102.505000000000         -95.2097349356148     
   102.695000000000         -107.036578015463     
   102.885000000000         -94.0584994750382     
   103.075000000000         -58.2932454742500     
   103.265000000000         -9.07131767838111     
   103.455000000000          39.8116233837580     
   103.645000000000          74.6475292950561     
   103.835000000000          86.4313895967953     
   104.025000000000          73.8056101335130     
   104.215000000000          43.2629292936603     
   104.405000000000          6.63203692538369     
   104.595000000000         -23.1423589539177     
   104.785000000000         -36.4236355716068     
   104.975000000000         -30.0767849807846     
   105.165000000000         -8.45414741566219     
   105.355000000000          18.1445826351094     
   105.545000000000          37.1240124386242     
   105.735000000000          38.2509442053466     
   105.925000000000          17.7422226585270     
   106.115000000000         -19.7897072347566     
   106.305000000000         -62.4543110476909     
   106.495000000000         -95.0279718047983     
   106.685000000000         -104.326258995524     
   106.875000000000         -84.0023483272767     
   107.065000000000         -37.0147124152607     
   107.255000000000          25.0596203871698     
   107.445000000000          85.5279188893618     
   107.635000000000          127.659876229040     
   107.825000000000          139.724780905032     
   108.015000000000          118.501550009079     
   108.205000000000          70.2492788692846     
   108.395000000000          8.82120842163670     
   108.585000000000         -48.5672278697357     
   108.775000000000         -86.6298109023342     
   108.965000000000         -96.6452684409403     
   109.155000000000         -78.8855714866492     
   109.345000000000         -42.0511258790846     
   109.535000000000        -1.078530525627444E-002
   109.725000000000          32.9217681856849     
   109.915000000000          46.5489801870809     
   110.105000000000          37.7810561555529     