  -1.42500000000000         3.389682223238820E-002
  -1.23500000000000         0.132635375153057     
  -1.04500000000000         0.467960717203298     
 -0.855000000000000          1.36946170354314     
 -0.665000000000000          3.12920396348074     
 -0.475000000000000          5.24984527521771     
 -0.285000000000000          5.43357329885965     
 -9.499999999999975E-002   -0.153205930358298     
  9.500000000000020E-002    -13.7277208602617     
  0.285000000000000         -31.2828669890850     
  0.475000000000000         -41.6686405861727     
  0.665000000000000         -32.8517973256518     
  0.855000000000000         -1.29963325251652     
   1.04500000000000          44.3480864707685     
   1.23500000000000          89.2309946465020     
   1.42500000000000          122.109852394589     
   1.61500000000000          139.893525343456     
   1.80500000000000          143.825170635848     
   1.99500000000000          132.993056823185     
   2.18500000000000          103.025413801306     
   2.37500000000000          51.8052211421073     
   2.56500000000000         -13.8031488141995     
   2.75500000000000         -77.9770367166578     
   2.94500000000000         -124.202429936013     
   3.13500000000000         -145.050270265915     
   3.32500000000000         -144.893741104495     
   3.51500000000000         -133.628259149984     
   3.70500000000000         -117.887785957844     
   3.89500000000000         -98.0202425756064     
   4.08500000000000         -72.7066186796952     
   4.27500000000000         -45.2323711643593     
   4.46500000000000         -23.8872101000658     
   4.65500000000000         -15.2618458209048     
   4.84500000000000         -17.0884709262936     
   5.03500000000000         -18.6356565686780     
   5.22500000000000         -9.63814581919004     
   5.41500000000000          9.94114952003955     
   5.60500000000000          28.5684598485808     
   5.79500000000000          32.0939538120288     
   5.98500000000000          15.5436579799552     
   6.17500000000000         -12.3385675182433     
   6.36500000000000         -35.4975275272895     
   6.55500000000000         -42.0698195139920     
   6.74500000000000         -31.0826298489136     
   6.93500000000000         -9.52031404419496     
   7.12500000000000          15.8854409010849     
   7.31500000000000          43.4514384224893     
   7.50500000000000          73.6976196960741     
   7.69500000000000          102.981254485476     
   7.88500000000000          121.491427669681     
   8.07500000000000          119.055067643486     
   8.26500000000000          94.0048259253844     
   8.45500000000000          56.4876414393788     
   8.64500000000000          22.2140734337966     
   8.83500000000000          1.65546661151250     
   9.02500000000000         -5.78893230079767     
   9.21500000000000         -7.85127059786798     
   9.40500000000000         -10.2381825508164     
   9.59500000000000         -11.5078843591749     
   9.78500000000000         -6.74428413171900     
   9.97500000000000          4.30372868965885     
   10.1650000000000          13.6927120662667     
   10.3550000000000          11.0382746299921     
   10.5450000000000         -6.27851096132994     
   10.7350000000000         -28.5146503990356     
   10.9250000000000         -40.0080486713490     
   11.1150000000000         -31.7641283983580     
   11.3050000000000         -9.28119833266232     
   11.4950000000000          11.2275722739407     
   11.6850000000000          14.8843418550042     
   11.8750000000000         -1.74884149773580     
   12.0650000000000         -30.3530530168234     
   12.2550000000000         -59.0901069965750     
   12.4450000000000         -80.9437871248709     
   12.6350000000000         -94.9475188217664     
   12.8250000000000         -101.033326232464     
   13.0150000000000         -95.6190618979164     
   13.2050000000000         -73.5839097068034     
   13.3950000000000         -34.9349405182788     
   13.5850000000000          11.0575366516092     
   13.7750000000000          49.6054402087798     
   13.9650000000000          69.8262705306660     
   14.1550000000000          71.7093283860741     
   14.3450000000000          64.2570908674523     
   14.5350000000000          56.6205491869805     
   14.7250000000000          50.6945312753463     
   14.9150000000000          41.9802213599758     
   15.1050000000000          27.1480177303923     
   15.2950000000000          10.0414490580763     
   15.4850000000000        -0.507835933225291     
   15.6750000000000         0.692614479518747     
   15.8650000000000          8.83346144276386     
   16.0550000000000          12.1943815979870     
   16.2450000000000          2.83057972928666     
   16.4350000000000         -14.9332034265585     
   16.6250000000000         -26.6819859556220     
   16.8150000000000         -19.5459096192375     
   17.0050000000000          6.74725043424582     
   17.1950000000000          38.9989433486697     
   17.3850000000000          60.3267601692674     
   17.5750000000000          61.8625650530491     
   17.7650000000000          46.6044251660676     
   17.9550000000000          23.4681971284893     
   18.1450000000000         -1.40777030585661     
   18.3350000000000         -27.4559943569783     
   18.5250000000000         -54.8895329854714     
   18.7150000000000         -78.7565692895806     
   18.9050000000000         -89.3069533954244     
   19.0950000000000         -79.3743039487929     
   19.2850000000000         -51.8895124797306     
   19.4750000000000         -19.7633286487335     
   19.6650000000000          2.76784503368615     
   19.8550000000000          10.0601193347227     
   20.0450000000000          7.47119742139157     
   20.2350000000000          4.45028253246426     
   20.4250000000000          5.26856781594374     
   20.6150000000000          6.27952760980888     
   20.8050000000000          1.85808780433475     
   20.9950000000000         -7.50765713310462     
   21.1850000000000         -13.6521490542201     
   21.3750000000000         -7.91644470508402     
   21.5650000000000          9.62528330172242     
   21.7550000000000          28.2547243142863     
   21.9450000000000          34.7490381595903     
   22.1350000000000          24.5679675151392     
   22.3250000000000          5.84935890506295     
   22.5150000000000         -7.44030739476660     
   22.7050000000000         -6.86571234143321     
   22.8950000000000          4.77030183132566     
   23.0850000000000          17.8514684760056     
   23.2750000000000          25.4523626651203     
   23.4650000000000          28.5595891576798     
   23.6550000000000          32.5144203481653     
   23.8450000000000          39.2392446248861     
   24.0350000000000          43.8934619578702     
   24.2250000000000          39.6626679758949     
   24.4150000000000          25.6896897144468     
   24.6050000000000          9.67661455673305     
   24.7950000000000          1.86123156929839     
   24.9850000000000          5.70365511381793     
   25.1750000000000          14.2467871296566     
   25.3650000000000          16.0433749407933     
   25.5550000000000          5.39835348229871     
   25.7450000000000         -12.6882135000067     
   25.9350000000000         -27.5510403017722     
   26.1250000000000         -32.9462532769353     
   26.3150000000000         -32.4464060423433     
   26.5050000000000         -35.0202444378326     
   26.6950000000000         -45.2153661395328     
   26.8850000000000         -57.6748990890180     
   27.0750000000000         -61.6967916394764     
   27.2650000000000         -51.8245083416376     
   27.4550000000000         -34.2737712730534     
   27.6450000000000         -22.5812127685432     
   27.8350000000000         -26.0447290675324     
   28.0250000000000         -41.4671189109327     
   28.2150000000000         -55.6739996169882     
   28.4050000000000         -56.3073045052495     
   28.5950000000000         -41.0505921271797     
   28.7850000000000         -17.4414590860641     
   28.9750000000000          5.43655892447892     
   29.1650000000000          24.6536756478818     
   29.3550000000000          43.1704577288883     
   29.5450000000000          62.8600738274409     
   29.7350000000000          79.0340115716001     
   29.9250000000000          82.9241050686147     
   30.1150000000000          70.0795105510668     
   30.3050000000000          46.2103452384976     
   30.4950000000000          24.1145162843246     
   30.6850000000000          13.8898508957423     
   30.8750000000000          15.3350507161181     
   31.0650000000000          19.6525902203797     
   31.2550000000000          18.7560693385019     
   31.4450000000000          13.1492659246113     
   31.6350000000000          10.7993850534582     
   31.8250000000000          18.3030061338473     
   32.0150000000000          33.1716115208248     
   32.2050000000000          44.9417070400908     
   32.3950000000000          44.2517685733622     
   32.5850000000000          31.2583824511892     
   32.7750000000000          15.2161298737894     
   32.9650000000000          5.45433677708374     
   33.1550000000000          2.39366203493568     
   33.3450000000000         -2.62533597069982     
   33.5350000000000         -18.4095043792931     
   33.7250000000000         -44.4166780303581     
   33.9150000000000         -69.8070226726883     
   34.1050000000000         -82.0242510860132     
   34.2950000000000         -76.9403472590018     
   34.4850000000000         -61.2889136704952     
   34.6750000000000         -45.5951353708516     
   34.8650000000000         -34.8663942826168     
   35.0550000000000         -26.0993449304438     
   35.2450000000000         -14.4390678565336     
   35.4350000000000        -0.946192942564609     
   35.6250000000000          6.58315421360892     
   35.8150000000000          1.02612077408679     
   36.0050000000000         -15.7668648987094     
   36.1950000000000         -32.4699262474978     
   36.3850000000000         -36.9313554716591     
   36.5750000000000         -26.3153219004125     
   36.7650000000000         -9.20864319703131     
   36.9550000000000          2.43345055160020     
   37.1450000000000          3.97748490935273     
   37.3350000000000          1.47148678029035     
   37.5250000000000          4.85092382704714     
   37.7150000000000          17.8387287979881     
   37.9050000000000          34.2956885447977     
   38.0950000000000          44.3588054983183     
   38.2850000000000          44.2110626104165     
   38.4750000000000          39.8122679855026     
   38.6650000000000          40.8104384787339     
   38.8550000000000          50.5220377183509     
   39.0450000000000          61.8355092988017     
   39.2350000000000          63.1975616977768     
   39.4250000000000          49.1076030093682     
   39.6150000000000          25.2663115433743     
   39.8050000000000          3.67834684270477     
   39.9950000000000         -7.49215773617677     
   40.1850000000000         -9.73226835287074     
   40.3750000000000         -10.5308027799658     
   40.5650000000000         -14.4950295928922     
   40.7550000000000         -18.4774513467611     
   40.9450000000000         -15.6087308135865     
   41.1350000000000         -3.86617290260138     
   41.3250000000000          9.93245295798772     
   41.5150000000000          15.2799348434032     
   41.7050000000000          7.60899076669199     
   41.8950000000000         -7.05086025682514     
   42.0850000000000         -17.3556010876539     
   42.2750000000000         -17.2202786918131     
   42.4650000000000         -11.6259587475462     
   42.6550000000000         -11.9394794134171     
   42.8450000000000         -25.0799474175153     
   43.0350000000000         -46.7804351541227     
   43.2250000000000         -65.1943807962693     
   43.4150000000000         -71.2024997386415     
   43.6050000000000         -65.5655640954204     
   43.7950000000000         -56.3506387577319     
   43.9850000000000         -49.5766569852261     
   44.1750000000000         -42.6213181943177     
   44.3650000000000         -27.1603129117558     
   44.5550000000000          1.11441397117809     
   44.7450000000000          35.6558295700615     
   44.9350000000000          62.1929499586778     
   45.1250000000000          69.4200025233949     
   45.3150000000000          57.6336683848626     
   45.5050000000000          37.6168906161064     
   45.6950000000000          21.1466227498763     
   45.8850000000000          12.1298889297515     
   46.0750000000000          6.32316876827083     
   46.2650000000000         -1.06683209076990     
   46.4550000000000         -8.31261822326464     
   46.6450000000000         -8.13349716711527     
   46.8350000000000          4.27822731706213     
   47.0250000000000          24.5747096987412     
   47.2150000000000          41.2402119043140     
   47.4050000000000          45.0649540141100     
   47.5950000000000          37.2904359689189     
   47.7850000000000          28.4097351516216     
   47.9750000000000          28.3555473509109     
   48.1650000000000          37.1649528053978     
   48.3550000000000          44.8983559510695     
   48.5450000000000          40.7707267325916     
   48.7350000000000          22.7529762748063     
   48.9250000000000         -1.25931936299635     
   49.1150000000000         -21.3078442425267     
   49.3050000000000         -34.2585406644553     
   49.4950000000000         -45.0236661438696     
   49.6850000000000         -59.2151520817115     
   49.8750000000000         -74.9694692949015     
   50.0650000000000         -82.6277289848394     
   50.2550000000000         -73.1527790549421     
   50.4450000000000         -47.3367108445685     
   50.6350000000000         -16.7748370993639     
   50.8250000000000          4.70605002289257     
   51.0150000000000          11.4908035825377     
   51.2050000000000          9.11481280800778     
   51.3950000000000          7.44039719704531     
   51.5850000000000          10.9517156409049     
   51.7750000000000          15.4599640277082     
   51.9650000000000          13.8861955896831     
   52.1550000000000          4.72396177475842     
   52.3450000000000         -5.68221531158984     
   52.5350000000000         -9.42411890213387     
   52.7250000000000         -5.44432572413104     
   52.9150000000000         -1.27326492685273     
   53.1050000000000         -5.73878149292527     
   53.2950000000000         -19.3623480582455     
   53.4850000000000         -31.9493902465036     
   53.6750000000000         -30.3672726470551     
   53.8650000000000         -9.75179874988421     
   54.0550000000000          22.0799338049800     
   54.2450000000000          50.9188748286117     
   54.4350000000000          67.1182564943165     
   54.6250000000000          71.1827290955869     
   54.8150000000000          69.5397594972071     
   55.0050000000000          65.6108287499379     
   55.1950000000000          55.6218905793538     
   55.3850000000000          33.5303135722724     
   55.5750000000000        -1.801412616294051E-002
   55.7650000000000         -34.2239049649257     
   55.9550000000000         -54.5457317784039     
   56.1450000000000         -53.6816421725211     
   56.3350000000000         -37.1404511316267     
   56.5250000000000         -18.2843045778455     
   56.7150000000000         -7.40590033690783     
   56.9050000000000         -4.70864724056077     
   57.0950000000000         -3.05975793152575     
   57.2850000000000          3.01125941371742     
   57.4750000000000          11.3046839846221     
   57.6650000000000          14.6862576002994     
   57.8550000000000          9.26634665448227     
   58.0450000000000        -0.756681867713605     
   58.2350000000000         -6.87107010808777     
   58.4250000000000         -5.07927956214331     
   58.6150000000000        -0.834034538211650     
   58.8050000000000         -4.59605210227051     
   58.9950000000000         -21.6381352659984     
   59.1850000000000         -45.6836505755042     
   59.3750000000000         -62.7520203811100     
   59.5650000000000         -62.0459129001805     
   59.7550000000000         -44.0797565731235     
   59.9450000000000         -18.9696656031278     
   60.1350000000000          2.87045862930085     
   60.3250000000000          18.5167937293289     
   60.5150000000000          31.7424282669716     
   60.7050000000000          45.3396164426926     
   60.8950000000000          55.1352748072972     
   61.0850000000000          52.4889094982519     
   61.2750000000000          33.2896558845572     
   61.4650000000000          4.45368249390308     
   61.6550000000000         -19.1874613471011     
   61.8450000000000         -25.6401023621337     
   62.0350000000000         -14.7571217581409     
   62.2250000000000          2.48822790098550     
   62.4150000000000          13.5988646761636     
   62.6050000000000          14.2119210275273     
   62.7950000000000          9.41703307853459     
   62.9850000000000          6.57838537163203     
   63.1750000000000          7.51342171993293     
   63.3650000000000          7.85763007333270     
   63.5550000000000          3.65771124711208     
   63.7450000000000         -2.31328999588367     
   63.9350000000000         -1.77388498635330     
   64.1250000000000          10.7793604685026     
   64.3150000000000          30.7027705295226     
   64.5050000000000          44.5650379994120     
   64.6950000000000          40.0427091345901     
   64.8850000000000          15.8808997294595     
   65.0750000000000         -16.9848542595858     
   65.2650000000000         -44.0193945053122     
   65.4550000000000         -57.4763256991385     
   65.6450000000000         -59.5265414604593     
   65.8350000000000         -56.4099970513863     
   66.0250000000000         -50.4255968399953     
   66.2150000000000         -38.1194529171238     
   66.4050000000000         -16.2845393476485     
   66.5950000000000          10.9190118460271     
   66.7850000000000          31.9383413885534     
   66.9750000000000          36.1474145292755     
   67.1650000000000          23.1543022186984     
   67.3550000000000          4.13783975812305     
   67.5450000000000         -6.60234814796036     
   67.7350000000000         -2.65583159172081     
   67.9250000000000          10.4936425649629     
   68.1150000000000          21.5189042090797     
   68.3050000000000          23.2421816779039     
   68.4950000000000          17.3082061522482     
   68.6850000000000          10.0109676736427     
   68.8750000000000          4.56410235059498     
   69.0650000000000         -1.77503628244436     
   69.2550000000000         -12.8242987405630     
   69.4450000000000         -26.3030279902172     
   69.6350000000000         -32.5719562666131     
   69.8250000000000         -21.8187221191483     
   70.0150000000000          6.37823460800329     
   70.2050000000000          40.2449540970986     
   70.3950000000000          63.1467845958304     
   70.5850000000000          65.1236627551583     
   70.7750000000000          48.7676270082208     
   70.9650000000000          24.9003446198324     
   71.1550000000000          2.87472161651225     
   71.3450000000000         -15.2675976960571     
   71.5350000000000         -32.0704669650132     
   71.7250000000000         -47.4169521823549     
   71.9150000000000         -55.2064760176596     
   72.1050000000000         -48.1605342093142     
   72.2950000000000         -26.2821947696110     
   72.4850000000000        -9.548542515452885E-002
   72.6750000000000          15.6816046566530     
   72.8650000000000          13.1801003995364     
   73.0550000000000         -2.56677789446421     
   73.2450000000000         -17.9966142447213     
   73.4350000000000         -21.9021200410061     
   73.6250000000000         -13.2722112238809     
   73.8150000000000         0.221922168093153     
   74.0050000000000          10.5214378787873     
   74.1950000000000          15.7125261781226     
   74.3850000000000          18.8481037017254     
   74.5750000000000          21.4045690563370     
   74.7650000000000          19.2258530373042     
   74.9550000000000          6.02582553589739     
   75.1450000000000         -18.6084364463794     
   75.3350000000000         -45.0125044188025     
   75.5250000000000         -58.3378256124676     
   75.7150000000000         -49.2689666811007     
   75.9050000000000         -21.3622559252199     
   76.0950000000000          11.5609610934558     
   76.2850000000000          35.6193965859440     
   76.4750000000000          45.6426147082093     
   76.6650000000000          45.3820211377745     
   76.8550000000000          40.4549854981786     
   77.0450000000000          31.9466010143525     
   77.2350000000000          17.1596612917061     
   77.4250000000000         -3.82012064120796     
   77.6150000000000         -23.4417512410919     
   77.8050000000000         -30.0502815222624     
   77.9950000000000         -17.3260875455964     
   78.1850000000000          8.85226782286775     
   78.3750000000000          33.1626272035665     
   78.5650000000000          41.6210996369522     
   78.7550000000000          31.3860077384598     
   78.9450000000000          11.4294862312359     
   79.1350000000000         -5.83410725341460     
   79.3250000000000         -14.0073169615956     
   79.5150000000000         -15.0777020506513     
   79.7050000000000         -13.8769830821769     
   79.8950000000000         -11.4302399764683     
   80.0850000000000         -4.41361894894319     
   80.2750000000000          8.99267170048144     
   80.4650000000000          23.6198382727500     
   80.6550000000000          28.9302109615560     
   80.8450000000000          17.3819697197617     
   81.0350000000000         -7.95426487835882     
   81.2250000000000         -34.0738162905340     
   81.4150000000000         -47.1862984140326     
   81.6050000000000         -42.6158355481619     
   81.7950000000000         -26.9625680065644     
   81.9850000000000         -11.2248679805098     
   82.1750000000000         -1.78066896268023     
   82.3650000000000          2.53324873988709     
   82.5550000000000          5.53532147551163     
   82.7450000000000          7.08121655618414     
   82.9350000000000          2.21125769607984     
   83.1250000000000         -12.6749801007023     
   83.3150000000000         -33.0326564867432     
   83.5050000000000         -46.5309397204435     
   83.6950000000000         -41.6602872169653     
   83.8850000000000         -17.4180383539203     
   84.0750000000000          14.7700266397629     
   84.2650000000000          38.9846629153737     
   84.4550000000000          45.8987658786681     
   84.6450000000000          37.7256392702173     
   84.8350000000000          23.6452986239411     
   85.0250000000000          11.0010929364271     
   85.2150000000000         0.796077897039506     
   85.4050000000000         -9.06533903847751     
   85.5950000000000         -17.4736558041475     
   85.7850000000000         -18.3879233360129     
   85.9750000000000         -6.24087222081530     
   86.1650000000000          16.7895425141171     
   86.3550000000000          39.4781943090215     
   86.5450000000000          48.6903459972328     
   86.7350000000000          39.2513233983858     
   86.9250000000000          17.8035671662854     
   87.1150000000000         -2.84883395854197     
   87.3050000000000         -13.7357362858673     
   87.4950000000000         -15.1164307317658     
   87.6850000000000         -13.0861423259297     
   87.8750000000000         -11.7175681903189     
   88.0650000000000         -8.99339735682826     
   88.2550000000000        -0.478999022797120     
   88.4450000000000          13.4376049321524     
   88.6350000000000          24.8003131529873     
   88.8250000000000          23.6253707384188     
   89.0150000000000          7.12501824570162     
   89.2050000000000         -16.2274689564145     
   89.3950000000000         -32.2815949299709     
   89.5850000000000         -31.9912532706589     
   89.7750000000000         -18.0217142144639     
   89.9650000000000         -1.61726900439740     
   90.1550000000000          6.99551758406494     
   90.3450000000000          5.87107921187551     
   90.5350000000000         0.293793482216082     
   90.7250000000000         -4.35300128749975     
   90.9150000000000         -7.99385364168904     
   91.1050000000000         -14.1683641973549     
   91.2950000000000         -23.6230477217224     
   91.4850000000000         -30.6545222197083     
   91.6750000000000         -26.9011158426731     
   91.8650000000000         -9.51035472417565     
   92.0550000000000          14.3145726348007     
   92.2450000000000          31.4549657802036     
   92.4350000000000          32.6454990503438     
   92.6250000000000          19.3023758783864     
   92.8150000000000          1.40746545081451     
   93.0050000000000         -11.2439560526923     
   93.1950000000000         -16.1199313306239     
   93.3850000000000         -17.1533324791716     
   93.5750000000000         -17.8537801020190     
   93.7650000000000         -16.0284741901960     
   93.9550000000000         -5.91706396362549     
   94.1450000000000          14.2100080273249     
   94.3350000000000          36.9164953948893     
   94.5250000000000          49.0244756419961     
   94.7150000000000          41.5444456657824     
   94.9050000000000          17.4240069192285     
   95.0950000000000         -10.0781434934963     
   95.2850000000000         -27.2108358775133     
   95.4750000000000         -29.2462899099849     
   95.6650000000000         -21.7845913854943     
   95.8550000000000         -13.6707396497481     
   96.0450000000000         -8.83097078996410     
   96.2350000000000         -4.60389502520672     
   96.4250000000000          2.79187661016301     
   96.6150000000000          12.1760469563326     
   96.8050000000000          17.5044870086647     
   96.9950000000000          14.1991075155432     
   97.1850000000000          5.00627074067769     
   97.3750000000000         -1.16796209368944     
   97.5650000000000          2.94228599871881     
   97.7550000000000          15.7509854773810     
   97.9450000000000          27.3253598246738     
   98.1350000000000          27.5829611703769     
   98.3250000000000          14.7622178805449     
   98.5150000000000         -3.60869621781876     
   98.7050000000000         -17.8570037940891     
   98.8950000000000         -24.3500326736576     
   99.0850000000000         -26.9583320706698     
   99.2750000000000         -30.8879358552403     
   99.4650000000000         -35.5402528998680     
   99.6550000000000         -33.9683720640485     
   99.8450000000000         -19.8852100501675     
   100.035000000000          4.54756314620612     
   100.225000000000          28.1499504565298     
   100.415000000000          38.6882171578066     
   100.605000000000          32.4698095798648     
   100.795000000000          16.9244268282326     
   100.985000000000          3.96074359216017     
   101.175000000000         0.285510302632479     
   101.365000000000          3.31162685453968     
   101.555000000000          5.67423705372776     
   101.745000000000          3.22518640636177     
   101.935000000000         -1.51179559101976     
   102.125000000000         -3.40943759082543     
   102.315000000000         -1.49498873494703     
   102.505000000000        -0.877633804463653     
   102.695000000000         -7.45590538868285     
   102.885000000000         -20.6843462719101     
   103.075000000000         -32.0715736068351     
   103.265000000000         -31.6957368478545     
   103.455000000000         -17.0570283421248     
   103.645000000000          4.11997491131378     
   103.835000000000          20.0691374804764     
   104.025000000000          24.5477708164867     
   104.215000000000          20.9090291599065     
   104.405000000000          17.1423555569777     
   104.595000000000          17.0877193955037     
   104.785000000000          16.6012909033901     
   104.975000000000          8.42963208541910     
   105.165000000000         -9.10233979000564     
   105.355000000000         -28.3782772156766     
   105.545000000000         -37.8739946306278     
   105.735000000000         -31.9438579361551     
   105.925000000000         -15.8745777417643     
   106.115000000000         -1.40023779355260     
   106.305000000000          3.19159188857499     
   106.495000000000        -0.670189330273574     
   106.685000000000         -4.54086991841756     
   106.875000000000         -1.49096140337157     
   107.065000000000          7.81370891841938     
   107.255000000000          16.8804653652496     
   107.445000000000          20.5276138527097     
   107.635000000000          19.7996333468403     
   107.825000000000          19.7119544635073     
   108.015000000000          22.5092680477201     
   108.205000000000          23.9057317385366     
   108.395000000000          16.7935557977729     
   108.585000000000        -0.842248805283704     
   108.775000000000         -21.7754632543303     
   108.965000000000         -33.9657469779068     
   109.155000000000         -30.1723171921735     
   109.345000000000         -14.0233640597781     
   109.535000000000          3.23999137383181     
   109.725000000000          12.4195291567647     
   109.915000000000          13.4238089672596     
   110.105000000000          13.3372289933033     