  -1.42500000000000         3.220198112076879E-003
  -1.23500000000000         1.904075686369416E-002
  -1.04500000000000         7.609738563754789E-002
 -0.855000000000000         0.250652515608460     
 -0.665000000000000         0.678025753975729     
 -0.475000000000000          1.47403543165208     
 -0.285000000000000          2.48896019618943     
 -9.499999999999975E-002     2.99059509619706     
  9.500000000000020E-002     1.67190705108816     
  0.285000000000000         -2.60409879459977     
  0.475000000000000         -9.53449201424926     
  0.665000000000000         -16.6139336158726     
  0.855000000000000         -19.8583195207986     
   1.04500000000000         -15.7687164650646     
   1.23500000000000         -3.07870375892394     
   1.42500000000000          16.9986767099797     
   1.61500000000000          41.8889975950940     
   1.80500000000000          68.8422737131280     
   1.99500000000000          95.1400053217361     
   2.18500000000000          117.561760031063     
   2.37500000000000          132.270670350687     
   2.56500000000000          135.880867221838     
   2.75500000000000          127.161749596407     
   2.94500000000000          107.954700264403     
   3.13500000000000          82.3756937452200     
   3.32500000000000          54.8310126650311     
   3.51500000000000          28.3714226408556     
   3.70500000000000          4.47739835561199     
   3.89500000000000         -16.0338643550658     
   4.08500000000000         -32.2529161743194     
   4.27500000000000         -43.4571202095046     
   4.46500000000000         -50.0234804296250     
   4.65500000000000         -53.7426407421172     
   4.84500000000000         -56.8159208331010     
   5.03500000000000         -60.2097129451233     
   5.22500000000000         -62.8957241719708     
   5.41500000000000         -62.8669388203901     
   5.60500000000000         -59.2085259303712     
   5.79500000000000         -53.4455966326132     
   5.98500000000000         -48.9200235123748     
   6.17500000000000         -48.6155399185121     
   6.36500000000000         -53.1599689478378     
   6.55500000000000         -60.5288669167595     
   6.74500000000000         -67.4783496062355     
   6.93500000000000         -71.3356292760809     
   7.12500000000000         -70.7309422246763     
   7.31500000000000         -65.0939386889368     
   7.50500000000000         -53.9647781676732     
   7.69500000000000         -37.1802851204260     
   7.88500000000000         -15.8553803156861     
   8.07500000000000          6.99653673906481     
   8.26500000000000          27.2372266281075     
   8.45500000000000          41.5340110277600     
   8.64500000000000          49.0106739407117     
   8.83500000000000          51.2782802450160     
   9.02500000000000          50.8856010045339     
   9.21500000000000          49.5897817291607     
   9.40500000000000          47.8712836800357     
   9.59500000000000          45.8054073235865     
   9.78500000000000          44.0714513169516     
   9.97500000000000          43.8395985499559     
   10.1650000000000          45.5492604217688     
   10.3550000000000          47.8987041579134     
   10.5450000000000          48.3508817064363     
   10.7350000000000          45.0455313772016     
   10.9250000000000          38.5358749655151     
   11.1150000000000          31.7175181438929     
   11.3050000000000          27.8182121044460     
   11.4950000000000          28.0031176288674     
   11.6850000000000          30.4837494711172     
   11.8750000000000          31.7316220050577     
   12.0650000000000          28.6819420261745     
   12.2550000000000          20.1848418249017     
   12.4450000000000          6.88162188336434     
   12.6350000000000         -9.82805218156621     
   12.8250000000000         -28.4462324617181     
   13.0150000000000         -47.1282093341043     
   13.2050000000000         -63.2024916365526     
   13.3950000000000         -73.5117824079355     
   13.5850000000000         -75.7801357752691     
   13.7750000000000         -70.0171529735321     
   13.9650000000000         -58.6711404532848     
   14.1550000000000         -45.2252585561945     
   14.3450000000000         -32.3084487271095     
   14.5350000000000         -20.8250729219383     
   14.7250000000000         -10.6301402780173     
   14.9150000000000         -1.82603877766167     
   15.1050000000000          4.74114393592331     
   15.2950000000000          8.27414328082783     
   15.4850000000000          9.17983652768868     
   15.6750000000000          9.19739048958656     
   15.8650000000000          10.1023677022034     
   16.0550000000000          12.1000127910747     
   16.2450000000000          13.5273841171657     
   16.4350000000000          12.3776348659249     
   16.6250000000000          8.42419187461777     
   16.8150000000000          4.03254179500613     
   17.0050000000000          2.81666917243193     
   17.1950000000000          7.16255758180891     
   17.3850000000000          16.5984994160129     
   17.5750000000000          28.2064853121330     
   17.7650000000000          38.5108493829491     
   17.9550000000000          45.1677485009320     
   18.1450000000000          47.2634890490821     
   18.3350000000000          44.5214314061128     
   18.5250000000000          36.6986063085801     
   18.7150000000000          24.0022265924501     
   18.9050000000000          8.03619193737466     
   19.0950000000000         -7.98852751032598     
   19.2850000000000         -20.4585900710357     
   19.4750000000000         -27.2656099782398     
   19.6650000000000         -28.8801809216693     
   19.8550000000000         -27.6615243066705     
   20.0450000000000         -25.9960492148396     
   20.2350000000000         -24.8635086192233     
   20.4250000000000         -23.9402178361245     
   20.6150000000000         -22.8431487706780     
   20.8050000000000         -22.0700753063344     
   20.9950000000000         -22.6067843925675     
   21.1850000000000         -24.6169659803634     
   21.3750000000000         -26.6659823874973     
   21.5650000000000         -26.5036427208166     
   21.7550000000000         -22.9050419972958     
   21.9450000000000         -16.9196845622775     
   22.1350000000000         -11.2845690231782     
   22.3250000000000         -8.39492301325900     
   22.5150000000000         -8.54606311978085     
   22.7050000000000         -9.90513499471983     
   22.8950000000000         -10.1041989931800     
   23.0850000000000         -7.95513081398358     
   23.2750000000000         -3.84126685557661     
   23.4650000000000          1.28986856758941     
   23.6550000000000          7.09189947064470     
   23.8450000000000          13.9084976430846     
   24.0350000000000          21.8061047684464     
   24.2250000000000          29.7439371121541     
   24.4150000000000          35.9524110927366     
   24.6050000000000          39.3122099984986     
   24.7950000000000          40.4083053804716     
   24.9850000000000          41.1269696153677     
   25.1750000000000          43.0222616284977     
   25.3650000000000          45.8998270251905     
   25.5550000000000          47.9367912253842     
   25.7450000000000          47.2442545237020     
   25.9350000000000          43.4215254125330     
   26.1250000000000          37.6742825225557     
   26.3150000000000          31.4619798872243     
   26.5050000000000          25.0526480916076     
   26.6950000000000          17.4302650867578     
   26.8850000000000          7.65568989004553     
   27.0750000000000         -3.68462072916144     
   27.2650000000000         -14.4691442273673     
   27.4550000000000         -22.6484807907629     
   27.6450000000000         -28.0497042747146     
   27.8350000000000         -32.6691687491418     
   28.0250000000000         -39.0827943070959     
   28.2150000000000         -48.3112005672484     
   28.4050000000000         -58.9494244588610     
   28.5950000000000         -68.1984246389418     
   28.7850000000000         -73.7551695041999     
   28.9750000000000         -74.8956350195505     
   29.1650000000000         -72.0370627351763     
   29.3550000000000         -65.5937700643831     
   29.5450000000000         -55.5208695665319     
   29.7350000000000         -42.0409314536230     
   29.9250000000000         -26.6549103728026     
   30.1150000000000         -12.1195668889328     
   30.3050000000000         -1.07203058892420     
   30.4950000000000          5.60883125574390     
   30.6850000000000          9.21924613785026     
   30.8750000000000          11.9956117909770     
   31.0650000000000          15.3194376799443     
   31.2550000000000          18.9682603380380     
   31.4450000000000          21.9992671880338     
   31.6350000000000          24.2743890309504     
   31.8250000000000          27.0391161937444     
   32.0150000000000          31.9292048709383     
   32.2050000000000          39.3499701342252     
   32.3950000000000          47.8233503175033     
   32.5850000000000          54.9968146648357     
   32.7750000000000          59.4118933357086     
   32.9650000000000          61.3755876675416     
   33.1550000000000          62.1211475546834     
   33.3450000000000          62.0991385307858     
   33.5350000000000          60.1008286975365     
   33.7250000000000          54.1323413686196     
   33.9150000000000          43.2810898018302     
   34.1050000000000          28.8571187947536     
   34.2950000000000          13.7554819519772     
   34.4850000000000         0.623702163674941     
   34.6750000000000         -9.53028249525300     
   34.8650000000000         -17.1741278123325     
   35.0550000000000         -22.9658730375732     
   35.2450000000000         -26.8170222523361     
   35.4350000000000         -28.2786220282504     
   35.6250000000000         -27.7431107075012     
   35.8150000000000         -27.0202295836701     
   36.0050000000000         -28.4206002755093     
   36.1950000000000         -33.0030954343990     
   36.3850000000000         -39.5962171977189     
   36.5750000000000         -45.6046515480657     
   36.7650000000000         -48.9794282323228     
   36.9550000000000         -49.6230715336388     
   37.1450000000000         -49.0140326648483     
   37.3350000000000         -48.4963803543322     
   37.5250000000000         -47.8957513466351     
   37.7150000000000         -45.7402343472567     
   37.9050000000000         -40.7874646996921     
   38.0950000000000         -33.3152877655961     
   38.2850000000000         -24.9011502952663     
   38.4750000000000         -16.9189338886540     
   38.6650000000000         -9.25977677455150     
   38.8550000000000        -0.583191535828454     
   39.0450000000000          10.0907754308010     
   39.2350000000000          21.9689171754760     
   39.4250000000000          32.6379078226548     
   39.6150000000000          39.7034297051653     
   39.8050000000000          42.4531722518428     
   39.9950000000000          42.0908602169630     
   40.1850000000000          40.4545397385035     
   40.3750000000000          38.5295479808840     
   40.5650000000000          36.1520939054625     
   40.7550000000000          33.0197082161954     
   40.9450000000000          29.7815209109624     
   41.1350000000000          27.9314050579245     
   41.3250000000000          28.5077016631862     
   41.5150000000000          30.9028785043184     
   41.7050000000000          33.0773264372774     
   41.8950000000000          33.1303488357148     
   42.0850000000000          30.8117350079893     
   42.2750000000000          27.5270264289399     
   42.4650000000000          24.7866338722007     
   42.6550000000000          22.5479172469092     
   42.8450000000000          19.0310716979707     
   43.0350000000000          12.2043353536650     
   43.2250000000000          1.56672783837780     
   43.4150000000000         -11.3909758124387     
   43.6050000000000         -24.3839418766746     
   43.7950000000000         -35.9659811477241     
   43.9850000000000         -46.0290742433051     
   44.1750000000000         -54.7878818853617     
   44.3650000000000         -61.4171368404387     
   44.5550000000000         -63.8914972397936     
   44.7450000000000         -60.3983241033758     
   44.9350000000000         -51.1026900481456     
   45.1250000000000         -38.5994595623487     
   45.3150000000000         -26.5293608260642     
   45.5050000000000         -17.4805577209722     
   45.6950000000000         -11.8980239512038     
   45.8850000000000         -8.73675534163919     
   46.0750000000000         -6.98371486032707     
   46.2650000000000         -6.48436287596449     
   46.4550000000000         -7.37541065579777     
   46.6450000000000         -8.93779161788386     
   46.8350000000000         -9.30404225363891     
   47.0250000000000         -6.56301323713760     
   47.2150000000000        -0.310595684847352     
   47.4050000000000          7.88839507740293     
   47.5950000000000          15.7121571257907     
   47.7850000000000          21.9536733822420     
   47.9750000000000          27.3463752199826     
   48.1650000000000          33.5708227348319     
   48.3550000000000          41.3668370666963     
   48.5450000000000          49.5053999216441     
   48.7350000000000          55.5401517073469     
   48.9250000000000          57.5820491139689     
   49.1150000000000          55.4381685714442     
   49.3050000000000          50.1593620052809     
   49.4950000000000          42.6275523584900     
   49.6850000000000          32.7248646270598     
   49.8750000000000          19.9773255962816     
   50.0650000000000          5.00559175970618     
   50.2550000000000         -9.79355650407306     
   50.4450000000000         -21.2400580445266     
   50.6350000000000         -27.3306550992002     
   50.8250000000000         -28.4771898714649     
   51.0150000000000         -26.9384887789491     
   51.2050000000000         -24.9809552218472     
   51.3950000000000         -23.4082102713672     
   51.5850000000000         -21.6609595517619     
   51.7750000000000         -19.1518499832437     
   51.9650000000000         -16.3639648195915     
   52.1550000000000         -14.5959998699696     
   52.3450000000000         -14.6870339559686     
   52.5350000000000         -16.1221357062723     
   52.7250000000000         -17.5346379457675     
   52.9150000000000         -18.1728090576109     
   53.1050000000000         -18.8389534674898     
   53.2950000000000         -21.2235607748511     
   53.4850000000000         -26.0981759138022     
   53.6750000000000         -32.0182588886903     
   53.8650000000000         -35.8295706713995     
   54.0550000000000         -34.6583978411654     
   54.2450000000000         -27.7235110209742     
   54.4350000000000         -16.5099835452961     
   54.6250000000000         -3.37138991425522     
   54.8150000000000          9.99724650206021     
   55.0050000000000          22.8365523855390     
   55.1950000000000          34.3536607218217     
   55.3850000000000          42.8231201162262     
   55.5750000000000          46.0067885636066     
   55.7650000000000          42.7538062499532     
   55.9550000000000          34.3206907593369     
   56.1450000000000          24.0390902339990     
   56.3350000000000          15.4109913701049     
   56.5250000000000          10.1456395777051     
   56.7150000000000          7.70507011080350     
   56.9050000000000          6.55418809094399     
   57.0950000000000          5.81618959959577     
   57.2850000000000          5.81158224040398     
   57.4750000000000          7.17159686324623     
   57.6650000000000          9.64073631381377     
   57.8550000000000          11.9162337180180     
   58.0450000000000          12.7246518727611     
   58.2350000000000          12.0000154350599     
   58.4250000000000          10.8647322163880     
   58.6150000000000          10.3029673768542     
   58.8050000000000          9.78710914600845     
   58.9950000000000          7.29486134602290     
   59.1850000000000         0.899291691080150     
   59.3750000000000         -9.40209704979820     
   59.5650000000000         -21.2579007115208     
   59.7550000000000         -31.3398393114847     
   59.9450000000000         -37.3295344182285     
   60.1350000000000         -38.8589590807421     
   60.3250000000000         -36.8271701066723     
   60.5150000000000         -32.0525440170237     
   60.7050000000000         -24.7297497696056     
   60.8950000000000         -15.1846351008566     
   61.0850000000000         -4.96033759182943     
   61.2750000000000          3.18862611953743     
   61.4650000000000          6.77424326549116     
   61.6550000000000          5.37453427443735     
   61.8450000000000          1.11591572206004     
   62.0350000000000         -2.72182056936604     
   62.2250000000000         -3.88736548579580     
   62.4150000000000         -2.35909169096664     
   62.6050000000000         0.282932950884006     
   62.7950000000000          2.52768359095989     
   62.9850000000000          4.04724834372572     
   63.1750000000000          5.38597001742439     
   63.3650000000000          6.84621993778463     
   63.5550000000000          7.94017736322688     
   63.7450000000000          8.06789738209358     
   63.9350000000000          7.67961575878107     
   64.1250000000000          8.53513592958525     
   64.3150000000000          12.4759383743976     
   64.5050000000000          19.6263801846464     
   64.6950000000000          27.6641161623766     
   64.8850000000000          32.9768590044613     
   65.0750000000000          32.8719833240993     
   65.2650000000000          27.0765796914340     
   65.4550000000000          17.4344862720112     
   65.6450000000000          6.31921389184942     
   65.8350000000000         -4.69475726677591     
   66.0250000000000         -14.8441386864572     
   66.2150000000000         -23.2559184133835     
   66.4050000000000         -28.4242976785369     
   66.5950000000000         -28.9340227911909     
   66.7850000000000         -24.8625742339057     
   66.9750000000000         -18.3944274217120     
   67.1650000000000         -12.7607643306545     
   67.3550000000000         -10.1680108428564     
   67.5450000000000         -10.4021391398910     
   67.7350000000000         -11.2816662151607     
   67.9250000000000         -10.5370741727027     
   68.1150000000000         -7.49588222916864     
   68.3050000000000         -3.24357906990519     
   68.4950000000000         0.608707773959260     
   68.6850000000000          3.20402928741890     
   68.8750000000000          4.58866093972148     
   69.0650000000000          4.85362221619579     
   69.2550000000000          3.46668538901009     
   69.4450000000000        -0.250410650414034     
   69.6350000000000         -5.84353415481291     
   69.8250000000000         -11.0106486014602     
   70.0150000000000         -12.4774949150190     
   70.2050000000000         -8.04829198803434     
   70.3950000000000          1.77392318779392     
   70.5850000000000          13.9596156861378     
   70.7750000000000          24.7792882136589     
   70.9650000000000          31.7777455183239     
   71.1550000000000          34.4163768107766     
   71.3450000000000          33.2390535832199     
   71.5350000000000          28.7419374404182     
   71.7250000000000          21.1906326214182     
   71.9150000000000          11.4414069424168     
   72.1050000000000          1.62154097085435     
   72.2950000000000         -5.45051828214355     
   72.4850000000000         -7.95639790064628     
   72.6750000000000         -6.47571657365392     
   72.8650000000000         -3.73385459331593     
   73.0550000000000         -2.72558895533407     
   73.2450000000000         -4.67911120855669     
   73.4350000000000         -8.46949096570079     
   73.6250000000000         -11.8110524358650     
   73.8150000000000         -13.0508298961649     
   74.0050000000000         -12.0302106917112     
   74.1950000000000         -9.53798410630479     
   74.3850000000000         -6.25472426771923     
   74.5750000000000         -2.43072035570330     
   74.7650000000000          1.42916974319263     
   74.9550000000000          3.82807920764678     
   75.1450000000000          2.63273117115099     
   75.3350000000000         -3.41125821104128     
   75.5250000000000         -13.2295395640119     
   75.7150000000000         -23.4521848319009     
   75.9050000000000         -30.1621509795014     
   76.0950000000000         -31.0932739885190     
   76.2850000000000         -26.6111400089760     
   76.4750000000000         -18.8912489360315     
   76.6650000000000         -10.2439085306630     
   76.8550000000000         -2.08939290024745     
   77.0450000000000          4.78875781844301     
   77.2350000000000          9.45385273751857     
   77.4250000000000          10.7211090993159     
   77.6150000000000          8.13123127049741     
   77.8050000000000          3.04948815797875     
   77.9950000000000         -1.45126690346784     
   78.1850000000000         -2.25627977712706     
   78.3750000000000          1.73513525038419     
   78.5650000000000          8.83958930023346     
   78.7550000000000          15.7752645008976     
   78.9450000000000          19.8427364280187     
   79.1350000000000          20.3742974309117     
   79.3250000000000          18.4893621304857     
   79.5150000000000          15.7262853243223     
   79.7050000000000          12.9755902367036     
   79.8950000000000          10.5714040461323     
   80.0850000000000          9.06623744821824     
   80.2750000000000          9.50124745961437     
   80.4650000000000          12.5994359070714     
   80.6550000000000          17.5916905843304     
   80.8450000000000          21.9913477490556     
   81.0350000000000          22.8869797089889     
   81.2250000000000          18.8943119979441     
   81.4150000000000          11.1746011010102     
   81.6050000000000          2.64339837460178     
   81.7950000000000         -3.96654996309722     
   81.9850000000000         -7.59435638186927     
   82.1750000000000         -8.82988239147232     
   82.3650000000000         -8.75838731263767     
   82.5550000000000         -7.99187314217479     
   82.7450000000000         -6.79330202916369     
   82.9350000000000         -5.91051697519861     
   83.1250000000000         -6.90457060363775     
   83.3150000000000         -11.2467960794451     
   83.5050000000000         -18.8053377191278     
   83.6950000000000         -27.1835042781816     
   83.8850000000000         -32.7959452074158     
   84.0750000000000         -33.0475063202607     
   84.2650000000000         -27.9408108125228     
   84.4550000000000         -19.8768850770888     
   84.6450000000000         -11.9325665879447     
   84.8350000000000         -6.10232748799964     
   85.0250000000000         -2.81092028976466     
   85.2150000000000         -1.69018906058533     
   85.4050000000000         -2.47576886902194     
   85.5950000000000         -4.99697337907132     
   85.7850000000000         -8.40382339738655     
   85.9750000000000         -10.7435589752852     
   86.1650000000000         -9.74143529742156     
   86.3550000000000         -4.39600029922340     
   86.5450000000000          3.98001102987075     
   86.7350000000000          12.3344696224545     
   86.9250000000000          17.7546842260983     
   87.1150000000000          19.1753838808339     
   87.3050000000000          17.5998497076150     
   87.4950000000000          14.8588938409399     
   87.6850000000000          12.1796494004588     
   87.8750000000000          9.82329690141520     
   88.0650000000000          7.85575517443622     
   88.2550000000000          6.95587751837181     
   88.4450000000000          8.18694507976056     
   88.6350000000000          11.8195472978488     
   88.8250000000000          16.4199872675324     
   89.0150000000000          19.3412742210238     
   89.2050000000000          18.4765414035061     
   89.3950000000000          13.8681803342995     
   89.5850000000000          7.76225975523969     
   89.7750000000000          3.01102784415302     
   89.9650000000000          1.14532443836119     
   90.1550000000000          1.65625805342961     
   90.3450000000000          2.87858474904395     
   90.5350000000000          3.46424765498265     
   90.7250000000000          3.07862291348071     
   90.9150000000000          1.90567169520777     
   91.1050000000000        -0.199738999501408     
   91.2950000000000         -3.78992313181376     
   91.4850000000000         -8.94629227624968     
   91.6750000000000         -14.4140778921759     
   91.8650000000000         -17.8731675960265     
   92.0550000000000         -17.4167668945172     
   92.2450000000000         -13.0686607450917     
   92.4350000000000         -6.97911658618974     
   92.6250000000000         -2.04406846796036     
   92.8150000000000        -7.663354168627134E-002
   93.0050000000000         -1.01110014886466     
   93.1950000000000         -3.61066945027969     
   93.3850000000000         -6.77162951221027     
   93.5750000000000         -10.0973052074234     
   93.7650000000000         -13.3161193651838     
   93.9550000000000         -15.4009454897969     
   94.1450000000000         -14.6131158037454     
   94.3350000000000         -9.75609797863505     
   94.5250000000000         -1.59170573013094     
   94.7150000000000          7.01234179410803     
   94.9050000000000          12.6143447896841     
   95.0950000000000          13.3122018151286     
   95.2850000000000          9.76974877488271     
   95.4750000000000          4.40632182507039     
   95.6650000000000        -0.441611898000143     
   95.8550000000000         -3.80986834634817     
   96.0450000000000         -5.94753083812083     
   96.2350000000000         -7.22384309056206     
   96.4250000000000         -7.39598483999121     
   96.6150000000000         -5.97403210117413     
   96.8050000000000         -3.15438137449938     
   96.9950000000000        -0.142539894699637     
   97.1850000000000          1.68197103964134     
   97.3750000000000          2.04661036110523     
   97.5650000000000          2.21517113208302     
   97.7550000000000          3.99103192231250     
   97.9450000000000          8.08328472600770     
   98.1350000000000          13.2995752205375     
   98.3250000000000          17.3223672303751     
   98.5150000000000          18.3819517883341     
   98.7050000000000          16.3427102872028     
   98.8950000000000          12.3330418227669     
   99.0850000000000          7.45874717205579     
   99.2750000000000          1.96335171909433     
   99.4650000000000         -4.34732621264096     
   99.6550000000000         -10.9506455842130     
   99.8450000000000         -16.0667358850635     
   100.035000000000         -17.5238123409399     
   100.225000000000         -14.4175485486800     
   100.415000000000         -8.06792262531800     
   100.605000000000         -1.30791008523922     
   100.795000000000          3.38454237353004     
   100.985000000000          5.36863356346735     
   101.175000000000          5.77202768347265     
   101.365000000000          6.11375571340401     
   101.555000000000          6.96741278468942     
   101.745000000000          7.81285801339792     
   101.935000000000          7.97563014085541     
   102.125000000000          7.50811298858012     
   102.315000000000          7.04219248763174     
   102.505000000000          6.81679334638772     
   102.695000000000          6.02510712303880     
   102.885000000000          3.35178321528248     
   103.075000000000         -1.66002917319832     
   103.265000000000         -7.71792366639384     
   103.455000000000         -12.3494363594419     
   103.645000000000         -13.5784564353689     
   103.835000000000         -11.2804907581488     
   104.025000000000         -7.04188446993735     
   104.215000000000         -2.72348847217999     
   104.405000000000         0.891393075924014     
   104.595000000000          4.14325019640974     
   104.785000000000          7.34370617480465     
   104.975000000000          9.72164385874152     
   105.165000000000          9.65773662680580     
   105.355000000000          6.09707801126599     
   105.545000000000        -0.196887814132930     
   105.735000000000         -6.82958380797730     
   105.925000000000         -11.3723351973797     
   106.115000000000         -13.0134426732348     
   106.305000000000         -12.8432640342076     
   106.495000000000         -12.6037307911690     
   106.685000000000         -13.0987814197947     
   106.875000000000         -13.6718053953646     
   107.065000000000         -13.0711443814351     
   107.255000000000         -10.7251978244865     
   107.445000000000         -7.17143029878039     
   107.635000000000         -3.34034181482314     
   107.825000000000         0.413259027159881     
   108.015000000000          4.42427516572649     
   108.205000000000          8.83370014542087     
   108.395000000000          12.7001324613703     
   108.585000000000          14.2155066256567     
   108.775000000000          12.0668239799934     
   108.965000000000          6.77140900793090     
   109.155000000000         0.678292911773277     
   109.345000000000         -3.52029680716213     
   109.535000000000         -4.54471721232703     
   109.725000000000         -3.05706276192036     
   109.915000000000        -0.601945640138045     
   110.105000000000          1.94035296611543     