  -1.42500000000000         4.916434062006141E-003
  -1.23500000000000         2.221010248471020E-002
  -1.04500000000000         8.516100204490221E-002
 -0.855000000000000         0.269344449593938     
 -0.665000000000000         0.690371771291061     
 -0.475000000000000          1.41350244676963     
 -0.285000000000000          2.25172806771175     
 -9.499999999999975E-002     2.59883932706178     
  9.500000000000020E-002     1.58995988951660     
  0.285000000000000         -1.30282837073748     
  0.475000000000000         -5.61011363395328     
  0.665000000000000         -9.73475596356172     
  0.855000000000000         -11.5687320714558     
   1.04500000000000         -9.49083170243896     
   1.23500000000000         -3.17039559521768     
   1.42500000000000          6.18152551742647     
   1.61500000000000          16.1558234244050     
   1.80500000000000          23.9129334534139     
   1.99500000000000          27.0969035649041     
   2.18500000000000          24.5922199495247     
   2.37500000000000          16.8784286272899     
   2.56500000000000          5.87363387916694     
   2.75500000000000         -5.67154763039395     
   2.94500000000000         -15.0226863531803     
   3.13500000000000         -20.2740099777477     
   3.32500000000000         -20.8664494851728     
   3.51500000000000         -17.6551563558115     
   3.70500000000000         -12.5195935544450     
   3.89500000000000         -7.65856929267455     
   4.08500000000000         -4.81407094056127     
   4.27500000000000         -4.68747807929688     
   4.46500000000000         -6.74231177489882     
   4.65500000000000         -9.45241862330127     
   4.84500000000000         -10.9002521099335     
   5.03500000000000         -9.51084320369846     
   5.22500000000000         -4.66430921020432     
   5.41500000000000          3.02404231099541     
   5.60500000000000          11.8506328865662     
   5.79500000000000          19.5466342177938     
   5.98500000000000          23.9998305856665     
   6.17500000000000          23.9323584166719     
   6.36500000000000          19.3080005686663     
   6.55500000000000          11.3359342386679     
   6.74500000000000          2.07573485032330     
   6.93500000000000         -6.21660978593420     
   7.12500000000000         -11.7773633796512     
   7.31500000000000         -13.8297254939163     
   7.50500000000000         -12.7312667520210     
   7.69500000000000         -9.74522089481733     
   7.88500000000000         -6.53328563766223     
   8.07500000000000         -4.55318218269933     
   8.26500000000000         -4.56427267878840     
   8.45500000000000         -6.39833365885781     
   8.64500000000000         -9.05981273348951     
   8.83500000000000         -11.1113406238261     
   9.02500000000000         -11.2081826674263     
   9.21500000000000         -8.59700674735810     
   9.40500000000000         -3.40670656417129     
   9.59500000000000          3.36877410532010     
   9.78500000000000          10.1866825065431     
   9.97500000000000          15.4556922134052     
   10.1650000000000          18.0421957370418     
   10.3550000000000          17.6086657872943     
   10.5450000000000          14.6770109077485     
   10.7350000000000          10.4106371038139     
   10.9250000000000          6.20374332717184     
   11.1150000000000          3.22310775842424     
   11.3050000000000          2.05274660953409     
   11.4950000000000          2.54989591519019     
   11.6850000000000          3.94830192106647     
   11.8750000000000          5.16452681599954     
   12.0650000000000          5.19869463088971     
   12.2550000000000          3.49230972934189     
   12.4450000000000         0.122482474197287     
   12.6350000000000         -4.22976036114205     
   12.8250000000000         -8.51886939883902     
   13.0150000000000         -11.6908716543606     
   13.2050000000000         -13.0278873125855     
   13.3950000000000         -12.3636272815892     
   13.5850000000000         -10.1043006898592     
   13.7750000000000         -7.06028795162614     
   13.9650000000000         -4.15725512536391     
   14.1550000000000         -2.13030843139806     
   14.3450000000000         -1.30309021854731     
   14.5350000000000         -1.51972096747426     
   14.7250000000000         -2.24369244398657     
   14.9150000000000         -2.78113587443582     
   15.1050000000000         -2.54482539967828     
   15.2950000000000         -1.26456107485500     
   15.4850000000000         0.926768641905776     
   15.6750000000000          3.55373762444604     
   15.8650000000000          5.97407746711342     
   16.0550000000000          7.59973768106842     
   16.2450000000000          8.08386637867341     
   16.4350000000000          7.41344261442309     
   16.6250000000000          5.88436904484542     
   16.8150000000000          3.97624103360422     
   17.0050000000000          2.17575854721305     
   17.1950000000000         0.812714598746152     
   17.3850000000000        -3.377328874484237E-002
   17.5750000000000        -0.527628410673636     
   17.7650000000000        -0.974143765809628     
   17.9550000000000         -1.66810249152093     
   18.1450000000000         -2.75473326774514     
   18.3350000000000         -4.15919789508454     
   18.5250000000000         -5.60919912153357     
   18.7150000000000         -6.73548199719786     
   18.9050000000000         -7.20539252773826     
   19.0950000000000         -6.83697382979297     
   19.2850000000000         -5.65482671502457     
   19.4750000000000         -3.87446400047282     
   19.6650000000000         -1.82715371187672     
   19.8550000000000         0.145884941976253     
   20.0450000000000          1.79462505175185     
   20.2350000000000          3.02400427133281     
   20.4250000000000          3.89860185696491     
   20.6150000000000          4.58573478128460     
   20.8050000000000          5.25803811128808     
   20.9950000000000          5.99504930338287     
   21.1850000000000          6.72645122936134     
   21.3750000000000          7.24350413919083     
   21.5650000000000          7.27593001049827     
   21.7550000000000          6.60303224663406     
   21.9450000000000          5.15413297147605     
   22.1350000000000          3.05981525880031     
   22.3250000000000         0.636090091265245     
   22.5150000000000         -1.69266962595620     
   22.7050000000000         -3.50785191254198     
   22.8950000000000         -4.51385785398176     
   23.0850000000000         -4.62359426343313     
   23.2750000000000         -3.98485770131188     
   23.4650000000000         -2.93586955638120     
   23.6550000000000         -1.89981803454290     
   23.8450000000000         -1.25003758982739     
   24.0350000000000         -1.19031020438123     
   24.2250000000000         -1.69132985744575     
   24.4150000000000         -2.50483939945539     
   24.6050000000000         -3.24964263446108     
   24.7950000000000         -3.53982615203813     
   24.9850000000000         -3.11342368238449     
   25.1750000000000         -1.92203228461091     
   25.3650000000000        -0.155615381662396     
   25.5550000000000          1.80392346185296     
   25.7450000000000          3.48711830337744     
   25.9350000000000          4.46966537702803     
   26.1250000000000          4.49470476497817     
   26.3150000000000          3.54782136822359     
   26.5050000000000          1.86210027394020     
   26.6950000000000        -0.147380663839096     
   26.8850000000000         -1.99850687510874     
   27.0750000000000         -3.27184812315747     
   27.2650000000000         -3.71887975507960     
   27.4550000000000         -3.32121454822173     
   27.6450000000000         -2.28731209721589     
   27.8350000000000        -0.987915645249261     
   28.0250000000000         0.154161423879921     
   28.2150000000000         0.791068285751639     
   28.4050000000000         0.756707665293173     
   28.5950000000000         0.118665946121986     
   28.7850000000000        -0.843730666343429     
   28.9750000000000         -1.72969430116356     
   29.1650000000000         -2.14636595066856     
   29.3550000000000         -1.83565050414989     
   29.5450000000000        -0.760256247896010     
   29.7350000000000         0.873969412077669     
   29.9250000000000          2.66378076665623     
   30.1150000000000          4.11119197878569     
   30.3050000000000          4.76007339622512     
   30.4950000000000          4.33423470070044     
   30.6850000000000          2.83867557943950     
   30.8750000000000         0.588192146128853     
   31.0650000000000         -1.85670761034345     
   31.2550000000000         -3.83806291967283     
   31.4450000000000         -4.79227682134592     
   31.6350000000000         -4.42418365443512     
   31.8250000000000         -2.80420418963690     
   32.0150000000000        -0.354541363372049     
   32.2050000000000          2.27233407214875     
   32.3950000000000          4.38500504405681     
   32.5850000000000          5.45583907422069     
   32.7750000000000          5.27478421474033     
   32.9650000000000          4.00836682489223     
   33.1550000000000          2.14400205128861     
   33.3450000000000         0.332161812329667     
   33.5350000000000        -0.828540922896456     
   33.7250000000000        -0.995522916984839     
   33.9150000000000        -0.205504486667101     
   34.1050000000000          1.13026475342990     
   34.2950000000000          2.36331456824346     
   34.4850000000000          2.83496057400110     
   34.6750000000000          2.11641375936660     
   34.8650000000000         0.178566796914065     
   35.0550000000000         -2.56943628588028     
   35.2450000000000         -5.39053191995461     
   35.4350000000000         -7.44744017446937     
   35.6250000000000         -8.07613399253476     
   35.8150000000000         -7.01508059851565     
   36.0050000000000         -4.51083366045959     
   36.1950000000000         -1.25871597160286     
   36.3850000000000          1.80820814941401     
   36.5750000000000          3.81610268662631     
   36.7650000000000          4.23574128089980     
   36.9550000000000          3.06021626327165     
   37.1450000000000         0.813654564071806     
   37.3350000000000         -1.61498006564987     
   37.5250000000000         -3.26218838591673     
   37.7150000000000         -3.41315577275325     
   37.9050000000000         -1.85396004268921     
   38.0950000000000          1.03252646879692     
   38.2850000000000          4.36628598901591     
   38.4750000000000          7.04276926242800     
   38.6650000000000          8.09609071263719     
   38.8550000000000          7.03317117669915     
   39.0450000000000          4.02131363475731     
   39.2350000000000        -0.142488823003403     
   39.4250000000000         -4.27674285067214     
   39.6150000000000         -7.19479034274125     
   39.8050000000000         -8.09019731715847     
   39.9950000000000         -6.79870433413194     
   40.1850000000000         -3.85060823635731     
   40.3750000000000        -0.297606264244205     
   40.5650000000000          2.62989529710877     
   40.7550000000000          3.92684321861346     
   40.9450000000000          3.15124335799691     
   41.1350000000000         0.585179233225808     
   41.3250000000000         -2.83976615473875     
   41.5150000000000         -5.83786130978273     
   41.7050000000000         -7.19571525384565     
   41.8950000000000         -6.19034718660108     
   42.0850000000000         -2.85515111719699     
   42.2750000000000          2.00251812256102     
   42.4650000000000          7.04400314604654     
   42.6550000000000          10.8235016955710     
   42.8450000000000          12.2521360985712     
   43.0350000000000          10.9474726382402     
   43.2250000000000          7.35367831554757     
   43.4150000000000          2.59421579283973     
   43.6050000000000         -1.89348372373554     
   43.7950000000000         -4.82169286649162     
   43.9850000000000         -5.46342944325715     
   44.1750000000000         -3.87693062306453     
   44.3650000000000        -0.870118787094666     
   44.5550000000000          2.28279590748756     
   44.7450000000000          4.27765072066581     
   44.9350000000000          4.22344640354340     
   45.1250000000000          1.94461336806472     
   45.3150000000000         -1.95682420370520     
   45.5050000000000         -6.29764746644958     
   45.6950000000000         -9.70143333459116     
   45.8850000000000         -11.0492660238918     
   46.0750000000000         -9.84523918696375     
   46.2650000000000         -6.37756614667051     
   46.4550000000000         -1.62316093552738     
   46.6450000000000          3.07181922467897     
   46.8350000000000          6.42789958886513     
   47.0250000000000          7.63775317930068     
   47.2150000000000          6.60583410685808     
   47.4050000000000          3.94580631072176     
   47.5950000000000         0.744081580805452     
   47.7850000000000         -1.82309975970516     
   47.9750000000000         -2.88609318092487     
   48.1650000000000         -2.16069455827524     
   48.3550000000000        -2.294695254604795E-002
   48.5450000000000          2.63753053056209     
   48.7350000000000          4.73252152370285     
   48.9250000000000          5.35317478698975     
   49.1150000000000          4.08611639047348     
   49.3050000000000          1.16229713384223     
   49.4950000000000         -2.61262547106607     
   49.6850000000000         -6.12409975811682     
   49.8750000000000         -8.31984733967630     
   50.0650000000000         -8.55740644251125     
   50.2550000000000         -6.80763932735592     
   50.4450000000000         -3.64696140705241     
   50.6350000000000        -4.771651659344012E-002
   50.8250000000000          2.95394448610497     
   51.0150000000000          4.59546626512394     
   51.2050000000000          4.61826031777142     
   51.3950000000000          3.32056475543956     
   51.5850000000000          1.42367013529647     
   51.7750000000000        -0.197450706110044     
   51.9650000000000        -0.826325545219597     
   52.1550000000000        -0.154843409862768     
   52.3450000000000          1.61334015494233     
   52.5350000000000          3.84055637261260     
   52.7250000000000          5.68598276279354     
   52.9150000000000          6.40735902234669     
   53.1050000000000          5.62609735916049     
   53.2950000000000          3.46225165970533     
   53.4850000000000         0.493808455148135     
   53.6750000000000         -2.44185037308917     
   53.8650000000000         -4.53179251613320     
   54.0550000000000         -5.25718796525393     
   54.2450000000000         -4.55725541258895     
   54.4350000000000         -2.83422973200927     
   54.6250000000000        -0.801066413690126     
   54.8150000000000         0.772895662958892     
   55.0050000000000          1.32890785249170     
   55.1950000000000         0.705846319551385     
   55.3850000000000        -0.816082967803863     
   55.5750000000000         -2.62686511846098     
   55.7650000000000         -4.01023183025338     
   55.9550000000000         -4.39795822847634     
   56.1450000000000         -3.56605267694418     
   56.3350000000000         -1.70782919395923     
   56.5250000000000         0.636675257877412     
   56.7150000000000          2.76681514332615     
   56.9050000000000          4.05782847080578     
   57.0950000000000          4.16786923186964     
   57.2850000000000          3.14681371686929     
   57.4750000000000          1.41109019653490     
   57.6650000000000        -0.405977918470684     
   57.8550000000000         -1.67553640257778     
   58.0450000000000         -1.98779155908898     
   58.2350000000000         -1.28421462198445     
   58.4250000000000         0.136912000327841     
   58.6150000000000          1.73850275686587     
   58.8050000000000          2.93893140398014     
   58.9950000000000          3.31123057141818     
   59.1850000000000          2.71940177687991     
   59.3750000000000          1.35043339536720     
   59.5650000000000        -0.362387913289760     
   59.7550000000000         -1.89469559389268     
   59.9450000000000         -2.81136487082932     
   60.1350000000000         -2.91151925530601     
   60.3250000000000         -2.28909178872500     
   60.5150000000000         -1.28760402999827     
   60.7050000000000        -0.364820920465457     
   60.8950000000000         8.329004479199381E-002
   61.0850000000000        -0.126924331984490     
   61.2750000000000        -0.899136819643541     
   61.4650000000000         -1.89715262186109     
   61.6550000000000         -2.67539353453136     
   61.8450000000000         -2.84831348411538     
   62.0350000000000         -2.23497665949448     
   62.2250000000000        -0.927279039958790     
   62.4150000000000         0.739967543359954     
   62.6050000000000          2.30401333313475     
   62.7950000000000          3.33314261160620     
   62.9850000000000          3.57510585178367     
   63.1750000000000          3.04419983545069     
   63.3650000000000          2.01589780221314     
   63.5550000000000         0.928763526362511     
   63.7450000000000         0.226182795213995     
   63.9350000000000         0.193456717471711     
   64.1250000000000         0.849410138108829     
   64.3150000000000          1.93325814505672     
   64.5050000000000          2.99326132512186     
   64.6950000000000          3.54660994753560     
   64.8850000000000          3.25420992422053     
   65.0750000000000          2.04880808952905     
   65.2650000000000         0.171074801183040     
   65.4550000000000         -1.90044649921065     
   65.6450000000000         -3.60350189839276     
   65.8350000000000         -4.47899010012375     
   66.0250000000000         -4.32653726222569     
   66.2150000000000         -3.27423255096623     
   66.4050000000000         -1.73705010340023     
   66.5950000000000        -0.277317822231419     
   66.7850000000000         0.585008814850719     
   66.9750000000000         0.547529051392775     
   67.1650000000000        -0.372365805090712     
   67.3550000000000         -1.84072213390929     
   67.5450000000000         -3.31344568367290     
   67.7350000000000         -4.21163419964071     
   67.9250000000000         -4.11099856617413     
   68.1150000000000         -2.88608826417209     
   68.3050000000000        -0.762568768681325     
   68.4950000000000          1.74226038433485     
   68.6850000000000          3.97546627332625     
   68.8750000000000          5.35270137519102     
   69.0650000000000          5.54340901993877     
   69.2550000000000          4.57413447661276     
   69.4450000000000          2.81492378563826     
   69.6350000000000         0.854770920099914     
   69.8250000000000        -0.690122472198634     
   70.0150000000000         -1.37107575657669     
   70.2050000000000         -1.04323126933474     
   70.3950000000000         9.591761619491757E-002
   70.5850000000000          1.57382857814497     
   70.7750000000000          2.79379927383201     
   70.9650000000000          3.22457465487877     
   71.1550000000000          2.57262125211539     
   71.3450000000000         0.884076628003261     
   71.5350000000000         -1.45799702400610     
   71.7250000000000         -3.84409636499878     
   71.9150000000000         -5.62411192512605     
   72.1050000000000         -6.30916463123379     
   72.2950000000000         -5.72296334714090     
   72.4850000000000         -4.05297144464274     
   72.6750000000000         -1.78611730804471     
   72.8650000000000         0.447617895100328     
   73.0550000000000          2.07158979287815     
   73.2450000000000          2.73631170469000     
   73.4350000000000          2.41766584843196     
   73.6250000000000          1.41135082935216     
   73.8150000000000         0.227484033886948     
   74.0050000000000        -0.580715679784881     
   74.1950000000000        -0.600520118615892     
   74.3850000000000         0.301791520766555     
   74.5750000000000          1.93093788079204     
   74.7650000000000          3.81706438423003     
   74.9550000000000          5.35810475981289     
   75.1450000000000          6.00658630265414     
   75.3350000000000          5.44375721938869     
   75.5250000000000          3.68731869417390     
   75.7150000000000          1.09840353047735     
   75.9050000000000         -1.71660674686798     
   76.0950000000000         -4.08159349370609     
   76.2850000000000         -5.45055558702435     
   76.4750000000000         -5.56918628101797     
   76.6650000000000         -4.54618181942517     
   76.8550000000000         -2.81114709035567     
   77.0450000000000        -0.973385122462158     
   77.2350000000000         0.371871888620846     
   77.4250000000000         0.827645379404666     
   77.6150000000000         0.313173017437282     
   77.8050000000000        -0.918172022309644     
   77.9950000000000         -2.36390367862986     
   78.1850000000000         -3.43397067833019     
   78.3750000000000         -3.64138396449173     
   78.5650000000000         -2.76532935020721     
   78.7550000000000        -0.935252989462339     
   78.9450000000000          1.39518282857849     
   79.1350000000000          3.58243900867455     
   79.3250000000000          4.99721801515896     
   79.5150000000000          5.23259762489487     
   79.7050000000000          4.24479937745814     
   79.8950000000000          2.37585220311457     
   80.0850000000000         0.247664632087104     
   80.2750000000000         -1.43858581800156     
   80.4650000000000         -2.13198329507978     
   80.6550000000000         -1.61564683185824     
   80.8450000000000        -8.529733800296052E-002
   81.0350000000000          1.90381978432722     
   81.2250000000000          3.60773856587256     
   81.4150000000000          4.33191681616239     
   81.6050000000000          3.66358552709405     
   81.7950000000000          1.62324813285825     
   81.9850000000000         -1.31811829205815     
   82.1750000000000         -4.36863240843095     
   82.3650000000000         -6.65592522709430     
   82.5550000000000         -7.50324436707841     
   82.7450000000000         -6.65076004669478     
   82.9350000000000         -4.34688281279369     
   83.1250000000000         -1.27601722864318     
   83.3150000000000          1.65684913363550     
   83.5050000000000          3.61635715770006     
   83.6950000000000          4.10747336698885     
   83.8850000000000          3.13695567898946     
   84.0750000000000          1.21004343240857     
   84.2650000000000        -0.839624209174233     
   84.4550000000000         -2.13303697843332     
   84.6450000000000         -2.04883640424451     
   84.8350000000000        -0.444945469730047     
   85.0250000000000          2.27679151901761     
   85.2150000000000          5.28703450607576     
   85.4050000000000          7.59077708166893     
   85.5950000000000          8.35099555300412     
   85.7850000000000          7.16968750678410     
   85.9750000000000          4.23400857988831     
   86.1650000000000         0.276422257505557     
   86.3550000000000         -3.64376056260605     
   86.5450000000000         -6.47148237128824     
   86.7350000000000         -7.49371003523468     
   86.9250000000000         -6.57128014172004     
   87.1150000000000         -4.18390470243252     
   87.3050000000000         -1.26898960121064     
   87.4950000000000          1.09418943461646     
   87.6850000000000          2.04899649296062     
   87.8750000000000          1.25121459618677     
   88.0650000000000         -1.01359957220623     
   88.2550000000000         -3.92408449735759     
   88.4450000000000         -6.39666193536319     
   88.6350000000000         -7.44837015125947     
   88.8250000000000         -6.53004753069691     
   89.0150000000000         -3.72043149594232     
   89.2050000000000         0.284333454664217     
   89.3950000000000          4.38584973900678     
   89.5850000000000          7.43580444163240     
   89.7750000000000          8.61005475794898     
   89.9650000000000          7.67833664302559     
   90.1550000000000          5.07629275083558     
   90.3450000000000          1.75332995587346     
   90.5350000000000         -1.15245268353530     
   90.7250000000000         -2.70059958123422     
   90.9150000000000         -2.46328851522892     
   91.1050000000000        -0.662044472867757     
   91.2950000000000          1.91868350421042     
   91.4850000000000          4.20992577329408     
   91.6750000000000          5.23310846743552     
   91.8650000000000          4.44403804975727     
   92.0550000000000          1.92890362138366     
   92.2450000000000         -1.61525145227711     
   92.4350000000000         -5.11039744022912     
   92.6250000000000         -7.46051111973658     
   92.8150000000000         -7.92381479765311     
   93.0050000000000         -6.36603324536637     
   93.1950000000000         -3.30688823079216     
   93.3850000000000         0.256563605377144     
   93.5750000000000          3.18904923409907     
   93.7650000000000          4.60207216355604     
   93.9550000000000          4.15253764733560     
   94.1450000000000          2.15241174702169     
   94.3350000000000        -0.548377553650624     
   94.5250000000000         -2.86552782621268     
   94.7150000000000         -3.86530952012653     
   94.9050000000000         -3.09651874204907     
   95.0950000000000        -0.752492282753111     
   95.2850000000000          2.39459812059071     
   95.4750000000000          5.26440845585388     
   95.6650000000000          6.84843855715610     
   95.8550000000000          6.56526820323886     
   96.0450000000000          4.46632082920395     
   96.2350000000000          1.22072556903954     
   96.4250000000000         -2.11479830866428     
   96.6150000000000         -4.46106372512442     
   96.8050000000000         -5.09072750861457     
   96.9950000000000         -3.88268805763949     
   97.1850000000000         -1.36729166140331     
   97.3750000000000          1.45648171791270     
   97.5650000000000          3.47194082815503     
   97.7550000000000          3.84322764200432     
   97.9450000000000          2.32084656492961     
   98.1350000000000        -0.656784917219266     
   98.3250000000000         -4.10572546107056     
   98.5150000000000         -6.83535684839009     
   98.7050000000000         -7.86485349092862     
   98.8950000000000         -6.77015100347704     
   99.0850000000000         -3.83914076132306     
   99.2750000000000         1.941344970076956E-002
   99.4650000000000          3.58210000266863     
   99.6550000000000          5.72729726240981     
   99.8450000000000          5.81929144580127     
   100.035000000000          3.92794222899755     
   100.225000000000         0.806603991038427     
   100.415000000000         -2.36718246708402     
   100.605000000000         -4.40148534839290     
   100.795000000000         -4.50908791678321     
   100.985000000000         -2.58859732971373     
   101.175000000000         0.733395306431337     
   101.365000000000          4.31649668226622     
   101.555000000000          6.90343198234741     
   101.745000000000          7.56075647300864     
   101.935000000000          6.00854922884659     
   102.125000000000          2.72340617967488     
   102.315000000000         -1.22145994575176     
   102.505000000000         -4.52384726876627     
   102.695000000000         -6.10104370465576     
   102.885000000000         -5.46426249754612     
   103.075000000000         -2.88917481528963     
   103.265000000000         0.677487950607370     
   103.455000000000          3.94423240809133     
   103.645000000000          5.72195601096991     
   103.835000000000          5.33726567797061     
   104.025000000000          2.86841432535326     
   104.215000000000        -0.878268763663947     
   104.405000000000         -4.64356184909556     
   104.595000000000         -7.14743390866056     
   104.785000000000         -7.52952632722516     
   104.975000000000         -5.64648345574159     
   105.165000000000         -2.12294664485455     
   105.355000000000          1.86311100093130     
   105.545000000000          4.98836746142269     
   105.735000000000          6.24473643331717     
   105.925000000000          5.29119396313808     
   106.115000000000          2.57160693367058     
   106.305000000000        -0.844759285782469     
   106.495000000000         -3.64444657706649     
   106.685000000000         -4.73768601901165     
   106.875000000000         -3.64750487406996     
   107.065000000000        -0.683697665214366     
   107.255000000000          3.15800723966388     
   107.445000000000          6.53543545806383     
   107.635000000000          8.22067992507671     
   107.825000000000          7.52463604551928     
   108.015000000000          4.54092236580175     
   108.205000000000         0.125191884934056     
   108.395000000000         -4.38576505056511     
   108.585000000000         -7.62238597995873     
   108.775000000000         -8.64632340842932     
   108.965000000000         -7.26968316492083     
   109.155000000000         -4.11645610636787     
   109.345000000000        -0.401807220412748     
   109.535000000000          2.49555528510174     
   109.725000000000          3.51859871672119     
   109.915000000000          2.30459176445708     
   110.105000000000        -0.684998077610153     