  -1.42500000000000         0.000000000000000E+000
  -1.23500000000000        -7.658868627288157E-007
  -1.04500000000000        -1.644271120532147E-005
 -0.855000000000000        -1.013807722594206E-004
 -0.665000000000000        -4.500328698236787E-004
 -0.475000000000000        -1.651198146100585E-003
 -0.285000000000000        -5.135655495328603E-003
 -9.499999999999975E-002   -1.371768645368012E-002
  9.500000000000020E-002   -3.193482256866269E-002
  0.285000000000000        -6.587134073925280E-002
  0.475000000000000        -0.122472079938591     
  0.665000000000000        -0.208618369083372     
  0.855000000000000        -0.329965899002975     
   1.04500000000000        -0.489272718817504     
   1.23500000000000        -0.684619996038273     
   1.42500000000000        -0.908899969276194     
   1.61500000000000         -1.15147838732090     
   1.80500000000000         -1.40113457291666     
   1.99500000000000         -1.64842734589703     
   2.18500000000000         -1.88642836998561     
   2.37500000000000         -2.11007376620346     
   2.56500000000000         -2.31506878272869     
   2.75500000000000         -2.49736409745725     
   2.94500000000000         -2.65364014968573     
   3.13500000000000         -2.78208910573771     
   3.32500000000000         -2.88232471011407     
   3.51500000000000         -2.95426998389155     
   3.70500000000000         -2.99706361264080     
   3.89500000000000         -3.00899912193388     
   4.08500000000000         -2.98858640717127     
   4.27500000000000         -2.93613294955880     
   4.46500000000000         -2.85482466413578     
   4.65500000000000         -2.75029297926145     
   4.84500000000000         -2.62871389824250     
   5.03500000000000         -2.49480307156615     
   5.22500000000000         -2.35100371412576     
   5.41500000000000         -2.19790158379604     
   5.60500000000000         -2.03519066160907     
   5.79500000000000         -1.86270257853684     
   5.98500000000000         -1.68142259332782     
   6.17500000000000         -1.49428463314257     
   6.36500000000000         -1.30656588030512     
   6.55500000000000         -1.12555831800308     
   6.74500000000000        -0.959084713420630     
   6.93500000000000        -0.813140657087847     
   7.12500000000000        -0.690169991853013     
   7.31500000000000        -0.589445444735099     
   7.50500000000000        -0.509288877598367     
   7.69500000000000        -0.449375503268387     
   7.88500000000000        -0.411593823514127     
   8.07500000000000        -0.399161960977974     
   8.26500000000000        -0.414807489985021     
   8.45500000000000        -0.459380995628201     
   8.64500000000000        -0.531839712536861     
   8.83500000000000        -0.630132144966945     
   9.02500000000000        -0.751612898266129     
   9.21500000000000        -0.892408034199339     
   9.40500000000000         -1.04654233256833     
   9.59500000000000         -1.20590357925878     
   9.78500000000000         -1.36143763490755     
   9.97500000000000         -1.50525477497756     
   10.1650000000000         -1.63270641062392     
   10.3550000000000         -1.74317813089809     
   10.5450000000000         -1.83907665227747     
   10.7350000000000         -1.92385771287323     
   10.9250000000000         -2.00033285058893     
   11.1150000000000         -2.06970171023424     
   11.3050000000000         -2.13113681299625     
   11.4950000000000         -2.18187575913190     
   11.6850000000000         -2.21789642659644     
   11.8750000000000         -2.23510757287782     
   12.0650000000000         -2.23088625112677     
   12.2550000000000         -2.20544081020776     
   12.4450000000000         -2.16196563227547     
   12.6350000000000         -2.10500778401303     
   12.8250000000000         -2.03805230964425     
   13.0150000000000         -1.96225456855476     
   13.2050000000000         -1.87713628859846     
   13.3950000000000         -1.78245968609289     
   13.5850000000000         -1.67979114855135     
   13.7750000000000         -1.57274804701444     
   13.9650000000000         -1.46592551204016     
   14.1550000000000         -1.36356214441473     
   14.3450000000000         -1.26917902803719     
   14.5350000000000         -1.18624576652850     
   14.7250000000000         -1.11859522867311     
   14.9150000000000         -1.06978979068684     
   15.1050000000000         -1.04186972923112     
   15.2950000000000         -1.03450531274861     
   15.4850000000000         -1.04515588496630     
   15.6750000000000         -1.07026980101391     
   15.8650000000000         -1.10696183456614     
   16.0550000000000         -1.15410522680375     
   16.2450000000000         -1.21217842515133     
   16.4350000000000         -1.28228504826302     
   16.6250000000000         -1.36516248480139     
   16.8150000000000         -1.46040580852156     
   17.0050000000000         -1.56576993484698     
   17.1950000000000         -1.67674260339094     
   17.3850000000000         -1.78674535104719     
   17.5750000000000         -1.88821367759102     
   17.7650000000000         -1.97448807855018     
   17.9550000000000         -2.04204438752254     
   18.1450000000000         -2.09167921899475     
   18.3350000000000         -2.12745350833249     
   18.5250000000000         -2.15381845225768     
   18.7150000000000         -2.17289271601970     
   18.9050000000000         -2.18357574468748     
   19.0950000000000         -2.18264702071700     
   19.2850000000000         -2.16678325763503     
   19.4750000000000         -2.13403433081836     
   19.6650000000000         -2.08390534603303     
   19.8550000000000         -2.01657428655242     
   20.0450000000000         -1.93263237016238     
   20.2350000000000         -1.83388330184195     
   20.4250000000000         -1.72420368404690     
   20.6150000000000         -1.60927292880649     
   20.8050000000000         -1.49513526394310     
   20.9950000000000         -1.38647080012239     
   21.1850000000000         -1.28552727470822     
   21.3750000000000         -1.19228042040017     
   21.5650000000000         -1.10570094361364     
   21.7550000000000         -1.02514074239027     
   21.9450000000000        -0.951055057377910     
   22.1350000000000        -0.885091227120117     
   22.3250000000000        -0.830060653233808     
   22.5150000000000        -0.789733844874051     
   22.7050000000000        -0.768091863333019     
   22.8950000000000        -0.768118983733358     
   23.0850000000000        -0.790660651074844     
   23.2750000000000        -0.833925866660561     
   23.4650000000000        -0.894146298769280     
   23.6550000000000        -0.967409086720531     
   23.8450000000000         -1.05157951843759     
   24.0350000000000         -1.14676798103654     
   24.2250000000000         -1.25393963759828     
   24.4150000000000         -1.37286423395089     
   24.6050000000000         -1.50094604513362     
   24.7950000000000         -1.63359785971873     
   24.9850000000000         -1.76573163805463     
   25.1750000000000         -1.89317339318507     
   25.3650000000000         -2.01288805491515     
   25.5550000000000         -2.12211626923359     
   25.7450000000000         -2.21776728400207     
   25.9350000000000         -2.29701363507218     
   26.1250000000000         -2.35848431050135     
   26.3150000000000         -2.40277768522929     
   26.5050000000000         -2.43175282015679     
   26.6950000000000         -2.44708401834883     
   26.8850000000000         -2.44898425827029     
   27.0750000000000         -2.43592843680746     
   27.2650000000000         -2.40548669886651     
   27.4550000000000         -2.35544726379003     
   27.6450000000000         -2.28441110145062     
   27.8350000000000         -2.19201029908342     
   28.0250000000000         -2.07937987801963     
   28.2150000000000         -1.94986187274546     
   28.4050000000000         -1.80914808715880     
   28.5950000000000         -1.66441855038923     
   28.7850000000000         -1.52259595570561     
   28.9750000000000         -1.38844721011278     
   29.1650000000000         -1.26365234566861     
   29.3550000000000         -1.14765556991330     
   29.5450000000000         -1.03976867282460     
   29.7350000000000        -0.940880766343846     
   29.9250000000000        -0.853617194778908     
   30.1150000000000        -0.781231243664350     
   30.3050000000000        -0.726329896715944     
   30.4950000000000        -0.690367361999838     
   30.6850000000000        -0.674156041708469     
   30.8750000000000        -0.678727304543328     
   31.0650000000000        -0.705389194258136     
   31.2550000000000        -0.754644408364859     
   31.4450000000000        -0.825024636211933     
   31.6350000000000        -0.913080113670330     
   31.8250000000000         -1.01451891913520     
   32.0150000000000         -1.12548023589106     
   32.2050000000000         -1.24308056114938     
   32.3950000000000         -1.36507494678757     
   32.5850000000000         -1.48911597190827     
   32.7750000000000         -1.61241277867816     
   32.9650000000000         -1.73214689084584     
   33.1550000000000         -1.84602317465835     
   33.3450000000000         -1.95215633632357     
   33.5350000000000         -2.04845856811829     
   33.7250000000000         -2.13248702645029     
   33.9150000000000         -2.20208931013306     
   34.1050000000000         -2.25626814061113     
   34.2950000000000         -2.29545421712284     
   34.4850000000000         -2.32079240537173     
   34.6750000000000         -2.33273767224065     
   34.8650000000000         -2.33004080317191     
   35.0550000000000         -2.31021229457523     
   35.2450000000000         -2.27133494313182     
   35.4350000000000         -2.21374656574614     
   35.6250000000000         -2.14025871727583     
   35.8150000000000         -2.05490163180635     
   36.0050000000000         -1.96120106092492     
   36.1950000000000         -1.86115948290495     
   36.3850000000000         -1.75561837133103     
   36.5750000000000         -1.64558938750082     
   36.7650000000000         -1.53329927410858     
   36.9550000000000         -1.42195064056013     
   37.1450000000000         -1.31478436250186     
   37.3350000000000         -1.21452570072603     
   37.5250000000000         -1.12367937804073     
   37.7150000000000         -1.04510922678536     
   37.9050000000000        -0.982164977501648     
   38.0950000000000        -0.938019605927335     
   38.2850000000000        -0.914557132406413     
   38.4750000000000        -0.911729713656083     
   38.6650000000000        -0.928043606312150     
   38.8550000000000        -0.961633892450063     
   39.0450000000000         -1.01077011719027     
   39.2350000000000         -1.07346044745736     
   39.4250000000000         -1.14692712988388     
   39.6150000000000         -1.22773245685417     
   39.8050000000000         -1.31255163064852     
   39.9950000000000         -1.39897883259466     
   40.1850000000000         -1.48562312200283     
   40.3750000000000         -1.57121936900561     
   40.5650000000000         -1.65349028241250     
   40.7550000000000         -1.72904766009578     
   40.9450000000000         -1.79472169100907     
   41.1350000000000         -1.84924177656633     
   41.3250000000000         -1.89387462798137     
   41.5150000000000         -1.93155984625935     
   41.7050000000000         -1.96514273111522     
   41.8950000000000         -1.99580310158279     
   42.0850000000000         -2.02266077891894     
   42.2750000000000         -2.04364885328936     
   42.4650000000000         -2.05665872743652     
   42.6550000000000         -2.05993769446298     
   42.8450000000000         -2.05183010980892     
   43.0350000000000         -2.03071706530636     
   43.2250000000000         -1.99558254429226     
   43.4150000000000         -1.94682097722244     
   43.6050000000000         -1.88660108065128     
   43.7950000000000         -1.81828623867843     
   43.9850000000000         -1.74510236529468     
   44.1750000000000         -1.66899722570482     
   44.3650000000000         -1.59071383895902     
   44.5550000000000         -1.51086841172845     
   44.7450000000000         -1.43085713715372     
   44.9350000000000         -1.35282651140970     
   45.1250000000000         -1.27907455544057     
   45.3150000000000         -1.21169610260511     
   45.5050000000000         -1.15285025851480     
   45.6950000000000         -1.10533322978235     
   45.8850000000000         -1.07261251529150     
   46.0750000000000         -1.05766777938226     
   46.2650000000000         -1.06114628850007     
   46.4550000000000         -1.08037472659884     
   46.6450000000000         -1.11028685883828     
   46.8350000000000         -1.14569304033798     
   47.0250000000000         -1.18339029800697     
   47.2150000000000         -1.22294266087107     
   47.4050000000000         -1.26594737772042     
   47.5950000000000         -1.31450414221372     
   47.7850000000000         -1.37002443290640     
   47.9750000000000         -1.43298544530161     
   48.1650000000000         -1.50313219774706     
   48.3550000000000         -1.57930622821622     
   48.5450000000000         -1.65892181226316     
   48.7350000000000         -1.73786327738475     
   48.9250000000000         -1.81130814943574     
   49.1150000000000         -1.87519895444299     
   49.3050000000000         -1.92757758432570     
   49.4950000000000         -1.96890339614564     
   49.6850000000000         -2.00103561123491     
   49.8750000000000         -2.02564247499080     
   50.0650000000000         -2.04329132748370     
   50.2550000000000         -2.05364857593524     
   50.4450000000000         -2.05607769431903     
   50.6350000000000         -2.04984691955425     
   50.8250000000000         -2.03395124221585     
   51.0150000000000         -2.00709524060531     
   51.2050000000000         -1.96830321996157     
   51.3950000000000         -1.91802774315029     
   51.5850000000000         -1.85893641476393     
   51.7750000000000         -1.79532145634175     
   51.9650000000000         -1.73114633658129     
   52.1550000000000         -1.66813694050989     
   52.3450000000000         -1.60541846625513     
   52.5350000000000         -1.54086921230013     
   52.7250000000000         -1.47310552212996     
   52.9150000000000         -1.40279858434152     
   53.1050000000000         -1.33264601111248     
   53.2950000000000         -1.26629723138364     
   53.4850000000000         -1.20728259457801     
   53.6750000000000         -1.15870072377052     
   53.8650000000000         -1.12333885686919     
   54.0550000000000         -1.10337188201297     
   54.2450000000000         -1.09949565078957     
   54.4350000000000         -1.11024357725678     
   54.6250000000000         -1.13224176476923     
   54.8150000000000         -1.16149943010275     
   55.0050000000000         -1.19511226204058     
   55.1950000000000         -1.23231927119777     
   55.3850000000000         -1.27415285621698     
   55.5750000000000         -1.32204558610239     
   55.7650000000000         -1.37659584556806     
   55.9550000000000         -1.43725217885369     
   56.1450000000000         -1.50258004606985     
   56.3350000000000         -1.57041342189507     
   56.5250000000000         -1.63769331190122     
   56.7150000000000         -1.70037844525696     
   56.9050000000000         -1.75401272517167     
   57.0950000000000         -1.79517414008935     
   57.2850000000000         -1.82311389027566     
   57.4750000000000         -1.84024205799440     
   57.6650000000000         -1.85079249998808     
   57.8550000000000         -1.85852717449480     
   58.0450000000000         -1.86508014848166     
   58.2350000000000         -1.86980814747806     
   58.4250000000000         -1.87084235337718     
   58.6150000000000         -1.86634950983125     
   58.8050000000000         -1.85510974102815     
   58.9950000000000         -1.83629337962631     
   59.1850000000000         -1.80919651919033     
   59.3750000000000         -1.77367707318171     
   59.5650000000000         -1.73099483629332     
   59.7550000000000         -1.68403737411145     
   59.9450000000000         -1.63646036852845     
   60.1350000000000         -1.59128341337091     
   60.3250000000000         -1.54993083684756     
   60.5150000000000         -1.51235743187596     
   60.7050000000000         -1.47816186595891     
   60.8950000000000         -1.44777916213199     
   61.0850000000000         -1.42272620938822     
   61.2750000000000         -1.40480766337752     
   61.4650000000000         -1.39518866850411     
   61.6550000000000         -1.39413262182762     
   61.8450000000000         -1.40129071344180     
   62.0350000000000         -1.41592987579689     
   62.2250000000000         -1.43674911205089     
   62.4150000000000         -1.46148069844170     
   62.6050000000000         -1.48690831583713     
   62.7950000000000         -1.50985833855756     
   62.9850000000000         -1.52884169961524     
   63.1750000000000         -1.54504299946590     
   63.3650000000000         -1.56165008783425     
   63.5550000000000         -1.58185052320069     
   63.7450000000000         -1.60690110570584     
   63.9350000000000         -1.63544963406014     
   64.1250000000000         -1.66430905228261     
   64.3150000000000         -1.68994585694048     
   64.5050000000000         -1.70957858803863     
   64.6950000000000         -1.72133539708425     
   64.8850000000000         -1.72397721234289     
   65.0750000000000         -1.71704722232935     
   65.2650000000000         -1.70149001996076     
   65.4550000000000         -1.67989999257502     
   65.6450000000000         -1.65576744980061     
   65.8350000000000         -1.63198193285498     
   66.0250000000000         -1.60950664805525     
   66.2150000000000         -1.58714785556732     
   66.4050000000000         -1.56268593274067     
   66.5950000000000         -1.53459462731744     
   66.7850000000000         -1.50306397514516     
   66.9750000000000         -1.46981036636357     
   67.1650000000000         -1.43722139394292     
   67.3550000000000         -1.40774828387558     
   67.5450000000000         -1.38372547202544     
   67.7350000000000         -1.36725341592539     
   67.9250000000000         -1.35975259532606     
   68.1150000000000         -1.36120406015772     
   68.3050000000000         -1.36966263007839     
   68.4950000000000         -1.38184051150986     
   68.6850000000000         -1.39480070291796     
   68.8750000000000         -1.40764053049291     
   69.0650000000000         -1.42183789119082     
   69.2550000000000         -1.44002972598211     
   69.4450000000000         -1.46418099213355     
   69.6350000000000         -1.49438083727943     
   69.8250000000000         -1.52891631563961     
   70.0150000000000         -1.56532873851875     
   70.2050000000000         -1.60145322527519     
   70.3950000000000         -1.63566219344992     
   70.5850000000000         -1.66657353474222     
   70.7750000000000         -1.69308412824250     
   70.9650000000000         -1.71501117681179     
   71.1550000000000         -1.73367896727265     
   71.3450000000000         -1.75164814644041     
   71.5350000000000         -1.77143913743136     
   71.7250000000000         -1.79390699341826     
   71.9150000000000         -1.81732883714196     
   72.1050000000000         -1.83796623965309     
   72.2950000000000         -1.85174236700955     
   72.4850000000000         -1.85585962712934     
   72.6750000000000         -1.84944593304700     
   72.8650000000000         -1.83338402152846     
   73.0550000000000         -1.80993576800578     
   73.2450000000000         -1.78241894475915     
   73.4350000000000         -1.75473148321572     
   73.6250000000000         -1.73039290493553     
   73.8150000000000         -1.71109042117495     
   74.0050000000000         -1.69543285426464     
   74.1950000000000         -1.67902849692206     
   74.3850000000000         -1.65635113590747     
   74.5750000000000         -1.62343683009043     
   74.7650000000000         -1.57975585988326     
   74.9550000000000         -1.52828525038787     
   75.1450000000000         -1.47406009917694     
   75.3350000000000         -1.42227108509913     
   75.5250000000000         -1.37697343749230     
   75.7150000000000         -1.34075881309466     
   75.9050000000000         -1.31484632048538     
   76.0950000000000         -1.29891516220477     
   76.2850000000000         -1.29082027471159     
   76.4750000000000         -1.28699042823883     
   76.6650000000000         -1.28385771346554     
   76.8550000000000         -1.27965672118886     
   77.0450000000000         -1.27546823250886     
   77.2350000000000         -1.27477536111513     
   77.4250000000000         -1.28166941481540     
   77.6150000000000         -1.29876368852689     
   77.8050000000000         -1.32608655711722     
   77.9950000000000         -1.36137813946761     
   78.1850000000000         -1.40113311972995     
   78.3750000000000         -1.44157011740308     
   78.5650000000000         -1.47934830386693     
   78.7550000000000         -1.51226715236867     
   78.9450000000000         -1.53998939231431     
   79.1350000000000         -1.56443376191879     
   79.3250000000000         -1.58931766025153     
   79.5150000000000         -1.61854921252519     
   79.7050000000000         -1.65406677268760     
   79.8950000000000         -1.69448130563043     
   80.0850000000000         -1.73559723691406     
   80.2750000000000         -1.77249016812042     
   80.4650000000000         -1.80172530586868     
   80.6550000000000         -1.82243233806331     
   80.8450000000000         -1.83590813576035     
   81.0350000000000         -1.84437004695256     
   81.2250000000000         -1.84987984191251     
   81.4150000000000         -1.85400220775010     
   81.6050000000000         -1.85781440180256     
   81.7950000000000         -1.86153310473013     
   81.9850000000000         -1.86377440516063     
   82.1750000000000         -1.86129401423473     
   82.3650000000000         -1.84991435797747     
   82.5550000000000         -1.82637715656390     
   82.7450000000000         -1.79014591781427     
   82.9350000000000         -1.74406067365501     
   83.1250000000000         -1.69339102298238     
   83.3150000000000         -1.64388606050640     
   83.5050000000000         -1.60004520906390     
   83.6950000000000         -1.56435254173396     
   83.8850000000000         -1.53724449805284     
   84.0750000000000         -1.51728002434135     
   84.2650000000000         -1.50144663951957     
   84.4550000000000         -1.48589921222420     
   84.6450000000000         -1.46726090752163     
   84.8350000000000         -1.44415040992902     
   85.0250000000000         -1.41812674492972     
   85.2150000000000         -1.39320517233935     
   85.4050000000000         -1.37393117066174     
   85.5950000000000         -1.36317100461382     
   85.7850000000000         -1.36105997255115     
   85.9750000000000         -1.36555330558848     
   86.1650000000000         -1.37384656423906     
   86.3550000000000         -1.38357489650993     
   86.5450000000000         -1.39316261300185     
   86.7350000000000         -1.40150653714765     
   86.9250000000000         -1.40777065675729     
   87.1150000000000         -1.41183342715573     
   87.3050000000000         -1.41495624195780     
   87.4950000000000         -1.41969555997575     
   87.6850000000000         -1.42873692258317     
   87.8750000000000         -1.44341112781250     
   88.0650000000000         -1.46296719000684     
   88.2550000000000         -1.48508823767297     
   88.4450000000000         -1.50726249817664     
   88.6350000000000         -1.52806681898356     
   88.8250000000000         -1.54750937609566     
   89.0150000000000         -1.56645159032704     
   89.2050000000000         -1.58588684090251     
   89.3950000000000         -1.60662857087674     
   89.5850000000000         -1.62918904648589     
   89.7750000000000         -1.65341068666559     
   89.9650000000000         -1.67792455656197     
   90.1550000000000         -1.69998337105008     
   90.3450000000000         -1.71616788404152     
   90.5350000000000         -1.72394746253524     
   90.7250000000000         -1.72330503305308     
   90.9150000000000         -1.71720303201517     
   91.1050000000000         -1.71030044388532     
   91.2950000000000         -1.70669626922490     
   91.4850000000000         -1.70820013530118     
   91.6750000000000         -1.71405800912061     
   91.8650000000000         -1.72193302335971     
   92.0550000000000         -1.72923986233523     
   92.2450000000000         -1.73392987072807     
   92.4350000000000         -1.73448375082960     
   92.6250000000000         -1.72970523371250     
   92.8150000000000         -1.71905051676186     
   93.0050000000000         -1.70336745549656     
   93.1950000000000         -1.68514351919730     
   93.3850000000000         -1.66766440054941     
   93.5750000000000         -1.65347754979959     
   93.7650000000000         -1.64314617603804     
   93.9550000000000         -1.63509063470320     
   94.1450000000000         -1.62660254240388     
   94.3350000000000         -1.61529757403865     
   94.5250000000000         -1.60000571959627     
   94.7150000000000         -1.58077454728389     
   94.9050000000000         -1.55852891254849     
   95.0950000000000         -1.53491545315589     
   95.2850000000000         -1.51216463144051     
   95.4750000000000         -1.49252141979965     
   95.6650000000000         -1.47723775103808     
   95.8550000000000         -1.46572289051126     
   96.0450000000000         -1.45555556030226     
   96.2350000000000         -1.44376705436692     
   96.4250000000000         -1.42877841354611     
   96.6150000000000         -1.41165047738824     
   96.8050000000000         -1.39561627631223     
   96.9950000000000         -1.38424485272057     
   97.1850000000000         -1.37960368909978     
   97.3750000000000         -1.38157373457191     
   97.5650000000000         -1.38850256335434     
   97.7550000000000         -1.39850167220275     
   97.9450000000000         -1.41035991631966     
   98.1350000000000         -1.42350251045207     
   98.3250000000000         -1.43743073963794     
   98.5150000000000         -1.45156651764330     
   98.7050000000000         -1.46578192250428     
   98.8950000000000         -1.48095997991015     
   99.0850000000000         -1.49884044966250     
   99.2750000000000         -1.52108561727159     
   99.4650000000000         -1.54815611742103     
   99.6550000000000         -1.57878501260772     
   99.8450000000000         -1.61046986945604     
   100.035000000000         -1.64058263162364     
   100.225000000000         -1.66718478040526     
   100.415000000000         -1.68911396804212     
   100.605000000000         -1.70581404144087     
   100.795000000000         -1.71749029152440     
   100.985000000000         -1.72545344276775     
   101.175000000000         -1.73201709530513     
   101.365000000000         -1.73958337895668     
   101.555000000000         -1.74922986862709     
   101.745000000000         -1.75970711407527     
   101.935000000000         -1.76780656500690     
   102.125000000000         -1.77010224503038     
   102.315000000000         -1.76487988054773     
   102.505000000000         -1.75282931141862     
   102.695000000000         -1.73620189922193     
   102.885000000000         -1.71732699185975     
   103.075000000000         -1.69759958122930     
   103.265000000000         -1.67746632554468     
   103.455000000000         -1.65712916055038     
   103.645000000000         -1.63712477252010     
   103.835000000000         -1.61812388737755     
   104.025000000000         -1.60022439618476     
   104.215000000000         -1.58265306291602     
   104.405000000000         -1.56431549532106     
   104.595000000000         -1.54474423337430     
   104.785000000000         -1.52462422523788     
   104.975000000000         -1.50553204191968     
   105.165000000000         -1.48907744094195     
   105.355000000000         -1.47608421149484     
   105.545000000000         -1.46644095217307     
   105.735000000000         -1.45958113768654     
   105.925000000000         -1.45489390353400     
   106.115000000000         -1.45163217229442     
   106.305000000000         -1.44874637639299     
   106.495000000000         -1.44528389310434     
   106.685000000000         -1.44129181328246     
   106.875000000000         -1.43848032472575     
   107.065000000000         -1.43983866277832     
   107.255000000000         -1.44809058086887     
   107.445000000000         -1.46380145678868     
   107.635000000000         -1.48460734228079     
   107.825000000000         -1.50633472222784     
   108.015000000000         -1.52521028377548     
   108.205000000000         -1.53950201199511     
   108.395000000000         -1.54961805067676     
   108.585000000000         -1.55699623174694     
   108.775000000000         -1.56281423182846     
   108.965000000000         -1.56742883366290     
   109.155000000000         -1.57074770917045     
   109.345000000000         -1.57291090659082     
   109.535000000000         -1.57443566959494     
   109.725000000000         -1.57578397298767     
   109.915000000000         -1.57702498593143     
   110.105000000000         -1.57807957764096     