  -1.42500000000000         0.000000000000000E+000
  -1.23500000000000        -3.291821626616055E-020
  -1.04500000000000         3.679023150749686E-020
 -0.855000000000000         8.198160276773440E-019
 -0.665000000000000         3.688876032560266E-018
 -0.475000000000000         1.821551103258153E-017
 -0.285000000000000         6.448470151541459E-017
 -9.499999999999975E-002    2.038981877830631E-016
  9.500000000000020E-002    6.488198467021197E-016
  0.285000000000000         1.714721623734318E-015
  0.475000000000000         3.843381166162807E-015
  0.665000000000000         7.971138359128761E-015
  0.855000000000000         1.423653306114543E-014
   1.04500000000000         2.367594989749993E-014
   1.23500000000000         3.793301342014742E-014
   1.42500000000000         6.138751636978742E-014
   1.61500000000000         9.227190040092471E-014
   1.80500000000000         1.319546851051616E-013
   1.99500000000000         1.821627119040348E-013
   2.18500000000000         2.449279995913293E-013
   2.37500000000000         3.223807285886742E-013
   2.56500000000000         4.166681400061496E-013
   2.75500000000000         5.298390638590233E-013
   2.94500000000000         6.638800268204260E-013
   3.13500000000000         8.207260739978261E-013
   3.32500000000000         1.002058730123357E-012
   3.51500000000000         1.208101430937907E-012
   3.70500000000000         1.439538762884285E-012
   3.89500000000000         1.696641015595912E-012
   4.08500000000000         1.979687987649715E-012
   4.27500000000000         2.288869948773219E-012
   4.46500000000000         2.624337052039395E-012
   4.65500000000000         2.986114383525733E-012
   4.84500000000000         3.373826084686841E-012
   5.03500000000000         3.786709688309270E-012
   5.22500000000000         4.223888417085107E-012
   5.41500000000000         4.685345339579209E-012
   5.60500000000000         5.170078569620413E-012
   5.79500000000000         5.676586520015800E-012
   5.98500000000000         6.203640841622741E-012
   6.17500000000000         6.749821523015299E-012
   6.36500000000000         7.312896420570520E-012
   6.55500000000000         7.888632528203531E-012
   6.74500000000000         8.476894282802303E-012
   6.93500000000000         9.076761361764073E-012
   7.12500000000000         9.685285114039294E-012
   7.31500000000000         1.030148953423633E-011
   7.50500000000000         1.092425249052087E-011
   7.69500000000000         1.155283091385459E-011
   7.88500000000000         1.218760991486105E-011
   8.07500000000000         1.282919587528955E-011
   8.26500000000000         1.347852034282194E-011
   8.45500000000000         1.413521623149455E-011
   8.64500000000000         1.479983076781573E-011
   8.83500000000000         1.547335792615803E-011
   9.02500000000000         1.615701030802763E-011
   9.21500000000000         1.685476661564965E-011
   9.40500000000000         1.756754342209550E-011
   9.59500000000000         1.829536609294126E-011
   9.78500000000000         1.903828878626922E-011
   9.97500000000000         1.979830905701059E-011
   10.1650000000000         2.057655366762244E-011
   10.3550000000000         2.137217511062495E-011
   10.5450000000000         2.218533450024235E-011
   10.7350000000000         2.301644969800742E-011
   10.9250000000000         2.386586861113870E-011
   11.1150000000000         2.473394128457997E-011
   11.3050000000000         2.562090287337468E-011
   11.4950000000000         2.652688833988752E-011
   11.6850000000000         2.745210721563158E-011
   11.8750000000000         2.839685123263856E-011
   12.0650000000000         2.936144462999435E-011
   12.2550000000000         3.034614984478912E-011
   12.4450000000000         3.135106731062519E-011
   12.6350000000000         3.237604781742720E-011
   12.8250000000000         3.342096504800999E-011
   13.0150000000000         3.448549423168378E-011
   13.2050000000000         3.556851155398748E-011
   13.3950000000000         3.666931194947751E-011
   13.5850000000000         3.778662293657733E-011
   13.7750000000000         3.891888809701369E-011
   13.9650000000000         4.006419620112533E-011
   14.1550000000000         4.122080203930763E-011
   14.3450000000000         4.238762451195643E-011
   14.5350000000000         4.356385288160896E-011
   14.7250000000000         4.474888948836049E-011
   14.9150000000000         4.594228456727660E-011
   15.1050000000000         4.714395364678094E-011
   15.2950000000000         4.835401009658295E-011
   15.4850000000000         4.957365492112750E-011
   15.6750000000000         5.080531714291030E-011
   15.8650000000000         5.204907675623231E-011
   16.0550000000000         5.330611215287378E-011
   16.2450000000000         5.457840461555096E-011
   16.4350000000000         5.586648224457701E-011
   16.6250000000000         5.717146804426914E-011
   16.8150000000000         5.849461171473828E-011
   17.0050000000000         5.983712619951382E-011
   17.1950000000000         6.119931538676300E-011
   17.3850000000000         6.258170955272443E-011
   17.5750000000000         6.398463721061698E-011
   17.7650000000000         6.540887861332272E-011
   17.9550000000000         6.685482156136083E-011
   18.1450000000000         6.832301437440005E-011
   18.3350000000000         6.981383305918680E-011
   18.5250000000000         7.132756357317421E-011
   18.7150000000000         7.286448533832382E-011
   18.9050000000000         7.442488062566131E-011
   19.0950000000000         7.600842358079373E-011
   19.2850000000000         7.761441923415648E-011
   19.4750000000000         7.924172994800555E-011
   19.6650000000000         8.088892230810519E-011
   19.8550000000000         8.255420504528397E-011
   20.0450000000000         8.423565359842983E-011
   20.2350000000000         8.593124453812116E-011
   20.4250000000000         8.763903284774747E-011
   20.6150000000000         8.935728210020720E-011
   20.8050000000000         9.108436043425403E-011
   20.9950000000000         9.281882772099142E-011
   21.1850000000000         9.455953331691400E-011
   21.3750000000000         9.630556170468653E-011
   21.5650000000000         9.805613064037212E-011
   21.7550000000000         9.981090857770672E-011
   21.9450000000000         1.015697663263114E-010
   22.1350000000000         1.033321603185868E-010
   22.3250000000000         1.050977675025915E-010
   22.5150000000000         1.068673894531047E-010
   22.7050000000000         1.086420525141908E-010
   22.8950000000000         1.104230872563543E-010
   23.0850000000000         1.122118539400067E-010
   23.2750000000000         1.140093992569747E-010
   23.4650000000000         1.158182985034901E-010
   23.6550000000000         1.176367828679281E-010
   23.8450000000000         1.194669659149242E-010
   24.0350000000000         1.213113385048656E-010
   24.2250000000000         1.231717655763910E-010
   24.4150000000000         1.250508562454613E-010
   24.6050000000000         1.269513168446152E-010
   24.7950000000000         1.288785868869034E-010
   24.9850000000000         1.308304274027975E-010
   25.1750000000000         1.328095286986989E-010
   25.3650000000000         1.348151613672956E-010
   25.5550000000000         1.368477993380919E-010
   25.7450000000000         1.389075697337603E-010
   25.9350000000000         1.409943567052045E-010
   26.1250000000000         1.431078871030036E-010
   26.3150000000000         1.452476633591718E-010
   26.5050000000000         1.474129901249299E-010
   26.6950000000000         1.496032878691297E-010
   26.8850000000000         1.518179592485161E-010
   27.0750000000000         1.540562645576732E-010
   27.2650000000000         1.563170642891620E-010
   27.4550000000000         1.585991768389495E-010
   27.6450000000000         1.609014040045805E-010
   27.8350000000000         1.632223588691523E-010
   28.0250000000000         1.655613930188976E-010
   28.2150000000000         1.679169439136007E-010
   28.4050000000000         1.702877730619664E-010
   28.5950000000000         1.726723707720400E-010
   28.7850000000000         1.750667094710068E-010
   28.9750000000000         1.774697087579973E-010
   29.1650000000000         1.798804403492994E-010
   29.3550000000000         1.822984761099609E-010
   29.5450000000000         1.847220193893873E-010
   29.7350000000000         1.871494841534188E-010
   29.9250000000000         1.895801914387469E-010
   30.1150000000000         1.920134912155844E-010
   30.3050000000000         1.944492551659743E-010
   30.4950000000000         1.968870191479499E-010
   30.6850000000000         1.993286847814508E-010
   30.8750000000000         2.017737161274066E-010
   31.0650000000000         2.042247325135624E-010
   31.2550000000000         2.066810594950858E-010
   31.4450000000000         2.091458368676520E-010
   31.6350000000000         2.116230427836718E-010
   31.8250000000000         2.141159069294249E-010
   32.0150000000000         2.166269158279706E-010
   32.2050000000000         2.191572438576823E-010
   32.3950000000000         2.217098536698939E-010
   32.5850000000000         2.242887735667297E-010
   32.7750000000000         2.268949331292538E-010
   32.9650000000000         2.295278582886903E-010
   33.1550000000000         2.321885306074715E-010
   33.3450000000000         2.348777790587263E-010
   33.5350000000000         2.375958199217204E-010
   33.7250000000000         2.403433360079471E-010
   33.9150000000000         2.431207053116162E-010
   34.1050000000000         2.459280135783836E-010
   34.2950000000000         2.487648136679573E-010
   34.4850000000000         2.516300019629120E-010
   34.6750000000000         2.545220537451613E-010
   34.8650000000000         2.574393893611689E-010
   35.0550000000000         2.603805910144961E-010
   35.2450000000000         2.633440701625369E-010
   35.4350000000000         2.663279981308183E-010
   35.6250000000000         2.693291231922143E-010
   35.8150000000000         2.723453880898477E-010
   36.0050000000000         2.753750941234452E-010
   36.1950000000000         2.784177102962181E-010
   36.3850000000000         2.814722185769528E-010
   36.5750000000000         2.845373749192811E-010
   36.7650000000000         2.876128744332950E-010
   36.9550000000000         2.906981124846574E-010
   37.1450000000000         2.937926004557415E-010
   37.3350000000000         2.968955796375759E-010
   37.5250000000000         3.000066971986032E-010
   37.7150000000000         3.031256959998454E-010
   37.9050000000000         3.062523421897375E-010
   38.0950000000000         3.093864779762966E-010
   38.2850000000000         3.125280943793647E-010
   38.4750000000000         3.156774960634192E-010
   38.6650000000000         3.188376771180446E-010
   38.8550000000000         3.220102869629064E-010
   39.0450000000000         3.251962791525761E-010
   39.2350000000000         3.283973038573156E-010
   39.4250000000000         3.316144316900858E-010
   39.6150000000000         3.348510782014099E-010
   39.8050000000000         3.381078895321224E-010
   39.9950000000000         3.413874882710527E-010
   40.1850000000000         3.446893605537839E-010
   40.3750000000000         3.480138746310615E-010
   40.5650000000000         3.513610597017240E-010
   40.7550000000000         3.547310101528879E-010
   40.9450000000000         3.581237814047331E-010
   41.1350000000000         3.615392079270321E-010
   41.3250000000000         3.649766118056202E-010
   41.5150000000000         3.684341876943844E-010
   41.7050000000000         3.719105326944065E-010
   41.8950000000000         3.754051067439648E-010
   42.0850000000000         3.789179698415711E-010
   42.2750000000000         3.824492460647020E-010
   42.4650000000000         3.859991778001040E-010
   42.6550000000000         3.895671439552481E-010
   42.8450000000000         3.931526301858583E-010
   43.0350000000000         3.967549538234564E-010
   43.2250000000000         4.003734046021250E-010
   43.4150000000000         4.040080492623218E-010
   43.6050000000000         4.076582608714063E-010
   43.7950000000000         4.113232363968807E-010
   43.9850000000000         4.150025627412072E-010
   44.1750000000000         4.186956924166099E-010
   44.3650000000000         4.224021966931533E-010
   44.5550000000000         4.261216600952135E-010
   44.7450000000000         4.298538588899392E-010
   44.9350000000000         4.335998652598569E-010
   45.1250000000000         4.373605121637307E-010
   45.3150000000000         4.411369737832935E-010
   45.5050000000000         4.449304081629290E-010
   45.6950000000000         4.487424313001626E-010
   45.8850000000000         4.525746686551142E-010
   46.0750000000000         4.564300815618433E-010
   46.2650000000000         4.603072981193177E-010
   46.4550000000000         4.642066763998914E-010
   46.6450000000000         4.681288205833311E-010
   46.8350000000000         4.720742341996902E-010
   47.0250000000000         4.760427633274054E-010
   47.2150000000000         4.800327475988661E-010
   47.4050000000000         4.840451282154543E-010
   47.5950000000000         4.880788325759429E-010
   47.7850000000000         4.921316567050600E-010
   47.9750000000000         4.962024839133626E-010
   48.1650000000000         5.002879694025655E-010
   48.3550000000000         5.043874763407004E-010
   48.5450000000000         5.084992390167817E-010
   48.7350000000000         5.126239966343435E-010
   48.9250000000000         5.167609381437887E-010
   49.1150000000000         5.209088499074569E-010
   49.3050000000000         5.250670593332149E-010
   49.4950000000000         5.292345855762986E-010
   49.6850000000000         5.334096975168456E-010
   49.8750000000000         5.375911306517787E-010
   50.0650000000000         5.417784681517607E-010
   50.2550000000000         5.459711179745948E-010
   50.4450000000000         5.501691286322615E-010
   50.6350000000000         5.543731440675522E-010
   50.8250000000000         5.585829428944886E-010
   51.0150000000000         5.627988549165727E-010
   51.2050000000000         5.670207012457057E-010
   51.3950000000000         5.712484693844755E-010
   51.5850000000000         5.754834546746884E-010
   51.7750000000000         5.797285279764753E-010
   51.9650000000000         5.839872060693416E-010
   52.1550000000000         5.882573886115287E-010
   52.3450000000000         5.925415912718114E-010
   52.5350000000000         5.968424869054024E-010
   52.7250000000000         6.011657089691722E-010
   52.9150000000000         6.055116808722802E-010
   53.1050000000000         6.098813863346267E-010
   53.2950000000000         6.142750427262019E-010
   53.4850000000000         6.186935133061504E-010
   53.6750000000000         6.231392091684510E-010
   53.8650000000000         6.276147041950132E-010
   54.0550000000000         6.321215847074966E-010
   54.2450000000000         6.366601288831151E-010
   54.4350000000000         6.412305468912543E-010
   54.6250000000000         6.458328099165670E-010
   54.8150000000000         6.504669769518343E-010
   55.0050000000000         6.551327745231475E-010
   55.1950000000000         6.598301030249140E-010
   55.3850000000000         6.645594111481600E-010
   55.5750000000000         6.693202390975982E-010
   55.7650000000000         6.741118664384633E-010
   55.9550000000000         6.789332721441722E-010
   56.1450000000000         6.837834465500435E-010
   56.3350000000000         6.886590003736828E-010
   56.5250000000000         6.935563168958456E-010
   56.7150000000000         6.984712703605433E-010
   56.9050000000000         7.034019974438978E-010
   57.0950000000000         7.083468217132335E-010
   57.2850000000000         7.133013617489269E-010
   57.4750000000000         7.182670631346737E-010
   57.6650000000000         7.232428858085641E-010
   57.8550000000000         7.282270245202809E-010
   58.0450000000000         7.332178713339229E-010
   58.2350000000000         7.382136158119772E-010
   58.4250000000000         7.432134897775861E-010
   58.6150000000000         7.482169065632979E-010
   58.8050000000000         7.532235181518935E-010
   58.9950000000000         7.582330601203328E-010
   59.1850000000000         7.632451840826219E-010
   59.3750000000000         7.682596793706464E-010
   59.5650000000000         7.732764231261236E-010
   59.7550000000000         7.782952657785839E-010
   59.9450000000000         7.833159881109839E-010
   60.1350000000000         7.883384191088426E-010
   60.3250000000000         7.933626459368293E-010
   60.5150000000000         7.983892751009109E-010
   60.7050000000000         8.034191543240586E-010
   60.8950000000000         8.084535233842336E-010
   61.0850000000000         8.134964294056925E-010
   61.2750000000000         8.185518406347449E-010
   61.4650000000000         8.236208767278969E-010
   61.6550000000000         8.287065897417959E-010
   61.8450000000000         8.338115366106866E-010
   62.0350000000000         8.389379952100468E-010
   62.2250000000000         8.440891030065317E-010
   62.4150000000000         8.492651212732349E-010
   62.6050000000000         8.544661651946947E-010
   62.7950000000000         8.596933842038237E-010
   62.9850000000000         8.649480161885591E-010
   63.1750000000000         8.702305770133597E-010
   63.3650000000000         8.755419865049165E-010
   63.5550000000000         8.808827008969626E-010
   63.7450000000000         8.862527783089214E-010
   63.9350000000000         8.916519954471641E-010
   64.1250000000000         8.970795160391631E-010
   64.3150000000000         9.025339847877989E-010
   64.5050000000000         9.080136985672972E-010
   64.6950000000000         9.135171456147838E-010
   64.8850000000000         9.190385325479980E-010
   65.0750000000000         9.245802265472562E-010
   65.2650000000000         9.301399708794334E-010
   65.4550000000000         9.357159020658336E-010
   65.6450000000000         9.413067638770673E-010
   65.8350000000000         9.469108485502595E-010
   66.0250000000000         9.525265967350393E-010
   66.2150000000000         9.581526158139279E-010
   66.4050000000000         9.637875093581812E-010
   66.5950000000000         9.694302371024265E-010
   66.7850000000000         9.750807400834777E-010
   66.9750000000000         9.807384674332384E-010
   67.1650000000000         9.864030012234609E-010
   67.3550000000000         9.920739000148918E-010
   67.5450000000000         9.977508956222815E-010
   67.7350000000000         1.003434003090428E-009
   67.9250000000000         1.009123629446389E-009
   68.1150000000000         1.014820314528002E-009
   68.3050000000000         1.020524845941111E-009
   68.4950000000000         1.026238442726292E-009
   68.6850000000000         1.031963094709264E-009
   68.8750000000000         1.037701129044414E-009
   69.0650000000000         1.043454766414744E-009
   69.2550000000000         1.049225976122302E-009
   69.4450000000000         1.055016578201809E-009
   69.6350000000000         1.060827949630705E-009
   69.8250000000000         1.066661043807150E-009
   70.0150000000000         1.072516518503939E-009
   70.2050000000000         1.078394715140248E-009
   70.3950000000000         1.084295752962898E-009
   70.5850000000000         1.090219655952891E-009
   70.7750000000000         1.096166373717165E-009
   70.9650000000000         1.102135855293091E-009
   71.1550000000000         1.108128073643852E-009
   71.3450000000000         1.114141573770578E-009
   71.5350000000000         1.120177950205763E-009
   71.7250000000000         1.126236636805620E-009
   71.9150000000000         1.132318485046692E-009
   72.1050000000000         1.138423449118381E-009
   72.2950000000000         1.144551455482924E-009
   72.4850000000000         1.150702503883653E-009
   72.6750000000000         1.156876326695369E-009
   72.8650000000000         1.163072457810176E-009
   73.0550000000000         1.169290268013322E-009
   73.2450000000000         1.175529205723023E-009
   73.4350000000000         1.181788941003312E-009
   73.6250000000000         1.188069313096534E-009
   73.8150000000000         1.194370168118669E-009
   74.0050000000000         1.200691617549640E-009
   74.1950000000000         1.207034293969185E-009
   74.3850000000000         1.213397787213425E-009
   74.5750000000000         1.219782352583220E-009
   74.7650000000000         1.226187703317195E-009
   74.9550000000000         1.232613775313631E-009
   75.1450000000000         1.239059985376558E-009
   75.3350000000000         1.245526138174791E-009
   75.5250000000000         1.252012045205512E-009
   75.7150000000000         1.258517206364433E-009
   75.9050000000000         1.265040843328692E-009
   76.0950000000000         1.271582697078263E-009
   76.2850000000000         1.278142409441121E-009
   76.4750000000000         1.284719905000108E-009
   76.6650000000000         1.291315392330018E-009
   76.8550000000000         1.297929124484934E-009
   77.0450000000000         1.304561138314237E-009
   77.2350000000000         1.311211452773689E-009
   77.4250000000000         1.317879649280927E-009
   77.6150000000000         1.324564310696068E-009
   77.8050000000000         1.331263266755500E-009
   77.9950000000000         1.337975492906237E-009
   78.1850000000000         1.344699963040501E-009
   78.3750000000000         1.351436087604709E-009
   78.5650000000000         1.358182382270459E-009
   78.7550000000000         1.364938448562168E-009
   78.9450000000000         1.371704223225980E-009
   79.1350000000000         1.378479475676289E-009
   79.3250000000000         1.385264419711011E-009
   79.5150000000000         1.392059351332572E-009
   79.7050000000000         1.398864473984202E-009
   79.8950000000000         1.405679703270996E-009
   80.0850000000000         1.412504944074951E-009
   80.2750000000000         1.419341362682684E-009
   80.4650000000000         1.426190803044324E-009
   80.6550000000000         1.433052845158375E-009
   80.8450000000000         1.439928419712655E-009
   81.0350000000000         1.446819117878984E-009
   81.2250000000000         1.453726427051602E-009
   81.4150000000000         1.460653140015125E-009
   81.6050000000000         1.467602491892982E-009
   81.7950000000000         1.474574982052902E-009
   81.9850000000000         1.481569644690838E-009
   82.1750000000000         1.488587296267172E-009
   82.3650000000000         1.495629320438621E-009
   82.5550000000000         1.502696519158780E-009
   82.7450000000000         1.509790114025438E-009
   82.9350000000000         1.516911662664418E-009
   83.1250000000000         1.524060515240878E-009
   83.3150000000000         1.531236270700349E-009
   83.5050000000000         1.538439173597143E-009
   83.6950000000000         1.545668627982908E-009
   83.8850000000000         1.552924666481865E-009
   84.0750000000000         1.560207839852721E-009
   84.2650000000000         1.567518365367204E-009
   84.4550000000000         1.574856476547357E-009
   84.6450000000000         1.582222400946617E-009
   84.8350000000000         1.589616468697979E-009
   85.0250000000000         1.597039113038552E-009
   85.2150000000000         1.604490610608983E-009
   85.4050000000000         1.611970648714061E-009
   85.5950000000000         1.619478508250127E-009
   85.7850000000000         1.627013037179884E-009
   85.9750000000000         1.634569440230556E-009
   86.1650000000000         1.642145491198583E-009
   86.3550000000000         1.649738789777270E-009
   86.5450000000000         1.657346049243051E-009
   86.7350000000000         1.664964764089764E-009
   86.9250000000000         1.672592626412760E-009
   87.1150000000000         1.680228180767551E-009
   87.3050000000000         1.687871775662369E-009
   87.4950000000000         1.695522492734530E-009
   87.6850000000000         1.703180100395596E-009
   87.8750000000000         1.710844128588839E-009
   88.0650000000000         1.718513129911631E-009
   88.2550000000000         1.726185832251744E-009
   88.4450000000000         1.733861850292670E-009
   88.6350000000000         1.741541025243064E-009
   88.8250000000000         1.749223326838169E-009
   89.0150000000000         1.756908880650698E-009
   89.2050000000000         1.764598468745814E-009
   89.3950000000000         1.772292995755758E-009
   89.5850000000000         1.779996292953585E-009
   89.7750000000000         1.787712722519879E-009
   89.9650000000000         1.795444497038943E-009
   90.1550000000000         1.803194614460947E-009
   90.3450000000000         1.810965230735485E-009
   90.5350000000000         1.818756451170464E-009
   90.7250000000000         1.826570183051212E-009
   90.9150000000000         1.834407517849141E-009
   91.1050000000000         1.842270319737742E-009
   91.2950000000000         1.850159978659261E-009
   91.4850000000000         1.858077837006717E-009
   91.6750000000000         1.866025727640294E-009
   91.8650000000000         1.874005750733206E-009
   92.0550000000000         1.882018478735252E-009
   92.2450000000000         1.890064440443987E-009
   92.4350000000000         1.898144279625246E-009
   92.6250000000000         1.906258458342045E-009
   92.8150000000000         1.914406877504716E-009
   93.0050000000000         1.922589231883291E-009
   93.1950000000000         1.930805199900913E-009
   93.3850000000000         1.939054168376535E-009
   93.5750000000000         1.947334686294646E-009
   93.7650000000000         1.955639617566391E-009
   93.9550000000000         1.963966208951712E-009
   94.1450000000000         1.972310166964507E-009
   94.3350000000000         1.980670295254233E-009
   94.5250000000000         1.989045820915674E-009
   94.7150000000000         1.997435875796439E-009
   94.9050000000000         2.005838417251076E-009
   95.0950000000000         2.014250905105449E-009
   95.2850000000000         2.022674914719034E-009
   95.4750000000000         2.031109556167075E-009
   95.6650000000000         2.039554012329320E-009
   95.8550000000000         2.048007297857109E-009
   96.0450000000000         2.056468512186464E-009
   96.2350000000000         2.064937110887633E-009
   96.4250000000000         2.073411970446774E-009
   96.6150000000000         2.081892165302602E-009
   96.8050000000000         2.090377219654627E-009
   96.9950000000000         2.098866914017406E-009
   97.1850000000000         2.107361160825349E-009
   97.3750000000000         2.115860041653643E-009
   97.5650000000000         2.124364035471082E-009
   97.7550000000000         2.132873970839518E-009
   97.9450000000000         2.141391014752307E-009
   98.1350000000000         2.149916803587797E-009
   98.3250000000000         2.158453039172468E-009
   98.5150000000000         2.167001618164783E-009
   98.7050000000000         2.175564756524041E-009
   98.8950000000000         2.184144657523246E-009
   99.0850000000000         2.192743444969361E-009
   99.2750000000000         2.201363197447480E-009
   99.4650000000000         2.210006347909145E-009
   99.6550000000000         2.218676072686404E-009
   99.8450000000000         2.227372406192869E-009
   100.035000000000         2.236096866094594E-009
   100.225000000000         2.244850314679520E-009
   100.415000000000         2.253631939822218E-009
   100.605000000000         2.262441659304842E-009
   100.795000000000         2.271278966449269E-009
   100.985000000000         2.280143277354796E-009
   101.175000000000         2.289034323257310E-009
   101.365000000000         2.297952514254382E-009
   101.555000000000         2.306897864222078E-009
   101.745000000000         2.315870214724363E-009
   101.935000000000         2.324869109878270E-009
   102.125000000000         2.333893511813676E-009
   102.315000000000         2.342942269776521E-009
   102.505000000000         2.352015349392872E-009
   102.695000000000         2.361112539072804E-009
   102.885000000000         2.370233816796234E-009
   103.075000000000         2.379377837245556E-009
   103.265000000000         2.388544168390308E-009
   103.455000000000         2.397730413881897E-009
   103.645000000000         2.406935834356737E-009
   103.835000000000         2.416160088898673E-009
   104.025000000000         2.425403145667473E-009
   104.215000000000         2.434664919140664E-009
   104.405000000000         2.443943916863740E-009
   104.595000000000         2.453239697961749E-009
   104.785000000000         2.462551647726163E-009
   104.975000000000         2.471879409209579E-009
   105.165000000000         2.481222484470425E-009
   105.355000000000         2.490580049610701E-009
   105.545000000000         2.499951379689802E-009
   105.735000000000         2.509336265118694E-009
   105.925000000000         2.518735081597566E-009
   106.115000000000         2.528148485027537E-009
   106.305000000000         2.537576937959104E-009
   106.495000000000         2.547020440980217E-009
   106.685000000000         2.556478800206312E-009
   106.875000000000         2.565951825880339E-009
   107.065000000000         2.575439678351655E-009
   107.255000000000         2.584942641919108E-009
   107.445000000000         2.594460757261161E-009
   107.635000000000         2.603993835619971E-009
   107.825000000000         2.613541427305836E-009
   108.015000000000         2.623103189217591E-009
   108.205000000000         2.632679224646138E-009
   108.395000000000         2.642270138864499E-009
   108.585000000000         2.651876806185764E-009
   108.775000000000         2.661499968548293E-009
   108.965000000000         2.671139896639239E-009
   109.155000000000         2.680796908476687E-009
   109.345000000000         2.690471300363069E-009
   109.535000000000         2.700163969329848E-009
   109.725000000000         2.709875594117090E-009
   109.915000000000         2.719606398318500E-009
   110.105000000000         2.729355961156310E-009