  -1.42500000000000         0.000000000000000E+000
  -1.23500000000000        -8.547792355632320E-021
  -1.04500000000000        -1.010888143190084E-020
 -0.855000000000000         6.134224882673581E-020
 -0.665000000000000         4.814430031421625E-019
 -0.475000000000000         2.168789143605613E-018
 -0.285000000000000         7.635910837534784E-018
 -9.499999999999975E-002    2.319604897775649E-017
  9.500000000000020E-002    6.235800345337815E-017
  0.285000000000000         1.494813673891097E-016
  0.475000000000000         3.268279913367065E-016
  0.665000000000000         6.560560859085671E-016
  0.855000000000000         1.214964091942787E-015
   1.04500000000000         2.088142843147624E-015
   1.23500000000000         3.395644795959157E-015
   1.42500000000000         5.271696483973290E-015
   1.61500000000000         7.769404882021014E-015
   1.80500000000000         1.097788211268758E-014
   1.99500000000000         1.501200694773568E-014
   2.18500000000000         1.998201283948875E-014
   2.37500000000000         2.600584442853517E-014
   2.56500000000000         3.320358114486958E-014
   2.75500000000000         4.168615586794343E-014
   2.94500000000000         5.155185393126669E-014
   3.13500000000000         6.288429214256763E-014
   3.32500000000000         7.573894067367979E-014
   3.51500000000000         9.013502442287889E-014
   3.70500000000000         1.061102554300476E-013
   3.89500000000000         1.236779985159384E-013
   4.08500000000000         1.428519244498306E-013
   4.27500000000000         1.636424232420503E-013
   4.46500000000000         1.860590907419587E-013
   4.65500000000000         2.101123232016963E-013
   4.84500000000000         2.358095269753262E-013
   5.03500000000000         2.631502838031034E-013
   5.22500000000000         2.921213875060869E-013
   5.41500000000000         3.227182597790290E-013
   5.60500000000000         3.549125913554689E-013
   5.79500000000000         3.886725697643068E-013
   5.98500000000000         4.239646605338937E-013
   6.17500000000000         4.607653094798217E-013
   6.36500000000000         4.990746549623701E-013
   6.55500000000000         5.389267920396323E-013
   6.74500000000000         5.803810412428434E-013
   6.93500000000000         6.235083134716586E-013
   7.12500000000000         6.683976717081444E-013
   7.31500000000000         7.151783683116808E-013
   7.50500000000000         7.639755981805717E-013
   7.69500000000000         8.148847087122920E-013
   7.88500000000000         8.679647583021218E-013
   8.07500000000000         9.232372740873573E-013
   8.26500000000000         9.806937840019625E-013
   8.45500000000000         1.040316351039487E-012
   8.64500000000000         1.102065549407627E-012
   8.83500000000000         1.165883682807885E-012
   9.02500000000000         1.231700798621767E-012
   9.21500000000000         1.299369017513577E-012
   9.40500000000000         1.368614286482645E-012
   9.59500000000000         1.439105489866248E-012
   9.78500000000000         1.510573077284740E-012
   9.97500000000000         1.582803899327127E-012
   10.1650000000000         1.655632810331626E-012
   10.3550000000000         1.728965145277221E-012
   10.5450000000000         1.802747210286228E-012
   10.7350000000000         1.876925542804690E-012
   10.9250000000000         1.951492305883440E-012
   11.1150000000000         2.026443110690037E-012
   11.3050000000000         2.101769899456179E-012
   11.4950000000000         2.177460371846337E-012
   11.6850000000000         2.253504034045316E-012
   11.8750000000000         2.329901648056396E-012
   12.0650000000000         2.406675791359268E-012
   12.2550000000000         2.483872977013302E-012
   12.4450000000000         2.561554561235692E-012
   12.6350000000000         2.639810491033697E-012
   12.8250000000000         2.718664165427035E-012
   13.0150000000000         2.798206373218625E-012
   13.2050000000000         2.878519632170077E-012
   13.3950000000000         2.959681700698900E-012
   13.5850000000000         3.041788971043896E-012
   13.7750000000000         3.124930293877051E-012
   13.9650000000000         3.209166911309811E-012
   14.1550000000000         3.294537660546833E-012
   14.3450000000000         3.381049324720560E-012
   14.5350000000000         3.468723706290069E-012
   14.7250000000000         3.557566148157716E-012
   14.9150000000000         3.647588588169205E-012
   15.1050000000000         3.738819831444674E-012
   15.2950000000000         3.831328246192399E-012
   15.4850000000000         3.925241233491288E-012
   15.6750000000000         4.020726949743634E-012
   15.8650000000000         4.117944764970347E-012
   16.0550000000000         4.217055376390471E-012
   16.2450000000000         4.318222063710397E-012
   16.4350000000000         4.421570143129024E-012
   16.6250000000000         4.527183977301548E-012
   16.8150000000000         4.635116375202795E-012
   17.0050000000000         4.745401403573676E-012
   17.1950000000000         4.858046285463555E-012
   17.3850000000000         4.973059119859846E-012
   17.5750000000000         5.090440402045711E-012
   17.7650000000000         5.210177982787809E-012
   17.9550000000000         5.332265779429153E-012
   18.1450000000000         5.456692020342274E-012
   18.3350000000000         5.583446249544951E-012
   18.5250000000000         5.712517435880376E-012
   18.7150000000000         5.843890014606220E-012
   18.9050000000000         5.977523633694288E-012
   19.0950000000000         6.113347686730452E-012
   19.2850000000000         6.251257251907524E-012
   19.4750000000000         6.391115702903828E-012
   19.6650000000000         6.532777590664163E-012
   19.8550000000000         6.676099658961451E-012
   20.0450000000000         6.820934621179092E-012
   20.2350000000000         6.967150783577012E-012
   20.4250000000000         7.114638217752569E-012
   20.6150000000000         7.263298792252613E-012
   20.8050000000000         7.413029078290413E-012
   20.9950000000000         7.563722636002979E-012
   21.1850000000000         7.715272675253399E-012
   21.3750000000000         7.867655072681686E-012
   21.5650000000000         8.020749143161683E-012
   21.7550000000000         8.174533212864496E-012
   21.9450000000000         8.328955641640018E-012
   22.1350000000000         8.483928622029092E-012
   22.3250000000000         8.639344582971353E-012
   22.5150000000000         8.795069550694253E-012
   22.7050000000000         8.951041367959953E-012
   22.8950000000000         9.107287008844644E-012
   23.0850000000000         9.263913786915238E-012
   23.2750000000000         9.421071636996056E-012
   23.4650000000000         9.578922045983318E-012
   23.6550000000000         9.737622897919102E-012
   23.8450000000000         9.897377697745204E-012
   24.0350000000000         1.005841278960392E-011
   24.2250000000000         1.022094768885392E-011
   24.4150000000000         1.038520033413059E-011
   24.6050000000000         1.055137375386255E-011
   24.7950000000000         1.071967790385713E-011
   24.9850000000000         1.089022984255464E-011
   25.1750000000000         1.106313033970654E-011
   25.3650000000000         1.123841730601149E-011
   25.5550000000000         1.141610448548960E-011
   25.7450000000000         1.159617573686246E-011
   25.9350000000000         1.177858136028598E-011
   26.1250000000000         1.196325301836604E-011
   26.3150000000000         1.215012359328647E-011
   26.5050000000000         1.233914088942917E-011
   26.6950000000000         1.253024661437121E-011
   26.8850000000000         1.272339167605891E-011
   27.0750000000000         1.291852655006030E-011
   27.2650000000000         1.311559268662299E-011
   27.4550000000000         1.331453035765196E-011
   27.6450000000000         1.351530330514600E-011
   27.8350000000000         1.371789749513871E-011
   28.0250000000000         1.392231339213569E-011
   28.2150000000000         1.412855955525099E-011
   28.4050000000000         1.433665456776433E-011
   28.5950000000000         1.454663447104506E-011
   28.7850000000000         1.475854731051787E-011
   28.9750000000000         1.497241567129467E-011
   29.1650000000000         1.518819652444526E-011
   29.3550000000000         1.540578992471827E-011
   29.5450000000000         1.562502080199180E-011
   29.7350000000000         1.584564261567481E-011
   29.9250000000000         1.606740082998085E-011
   30.1150000000000         1.629004684759579E-011
   30.3050000000000         1.651335573436473E-011
   30.4950000000000         1.673713295292990E-011
   30.6850000000000         1.696120582232002E-011
   30.8750000000000         1.718553470236644E-011
   31.0650000000000         1.741000718913922E-011
   31.2550000000000         1.763444946415498E-011
   31.4450000000000         1.785874961714141E-011
   31.6350000000000         1.808290778360932E-011
   31.8250000000000         1.830699054175177E-011
   32.0150000000000         1.853109828908558E-011
   32.2050000000000         1.875532814639473E-011
   32.3950000000000         1.897980505477506E-011
   32.5850000000000         1.920467663412860E-011
   32.7750000000000         1.943004658396619E-011
   32.9650000000000         1.965597693806395E-011
   33.1550000000000         1.988254731346159E-011
   33.3450000000000         2.010978094978786E-011
   33.5350000000000         2.033771933736812E-011
   33.7250000000000         2.056642282186534E-011
   33.9150000000000         2.079598098082854E-011
   34.1050000000000         2.102653146998923E-011
   34.2950000000000         2.125824517850533E-011
   34.4850000000000         2.149128827021511E-011
   34.6750000000000         2.172577168331587E-011
   34.8650000000000         2.196181475349844E-011
   35.0550000000000         2.219953421610227E-011
   35.2450000000000         2.243904350060340E-011
   35.4350000000000         2.268046807507084E-011
   35.6250000000000         2.292391769004382E-011
   35.8150000000000         2.316946935895751E-011
   36.0050000000000         2.341716894965985E-011
   36.1950000000000         2.366702867718558E-011
   36.3850000000000         2.391903861493478E-011
   36.5750000000000         2.417319155914318E-011
   36.7650000000000         2.442946621603115E-011
   36.9550000000000         2.468785389669175E-011
   37.1450000000000         2.494833206102167E-011
   37.3350000000000         2.521087174533660E-011
   37.5250000000000         2.547544221313351E-011
   37.7150000000000         2.574201386068626E-011
   37.9050000000000         2.601055592141232E-011
   38.0950000000000         2.628103687881348E-011
   38.2850000000000         2.655343325692596E-011
   38.4750000000000         2.682770423691472E-011
   38.6650000000000         2.710378479658112E-011
   38.8550000000000         2.738161525306718E-011
   39.0450000000000         2.766116204819967E-011
   39.2350000000000         2.794239942467152E-011
   39.4250000000000         2.822530355837051E-011
   39.6150000000000         2.850983373441989E-011
   39.8050000000000         2.879593481841588E-011
   39.9950000000000         2.908352923333665E-011
   40.1850000000000         2.937258812788540E-011
   40.3750000000000         2.966306194694514E-011
   40.5650000000000         2.995494702504703E-011
   40.7550000000000         3.024822375619825E-011
   40.9450000000000         3.054284971537859E-011
   41.1350000000000         3.083873270276560E-011
   41.3250000000000         3.113569069958111E-011
   41.5150000000000         3.143345635762170E-011
   41.7050000000000         3.173177800478419E-011
   41.8950000000000         3.203048283078751E-011
   42.0850000000000         3.232946911469263E-011
   42.2750000000000         3.262870833826620E-011
   42.4650000000000         3.292822206136248E-011
   42.6550000000000         3.322807795034504E-011
   42.8450000000000         3.352837087727644E-011
   43.0350000000000         3.382922496013579E-011
   43.2250000000000         3.413076943543764E-011
   43.4150000000000         3.443311762177952E-011
   43.6050000000000         3.473641762852449E-011
   43.7950000000000         3.504070837704052E-011
   43.9850000000000         3.534604678028915E-011
   44.1750000000000         3.565247600720206E-011
   44.3650000000000         3.596005677195146E-011
   44.5550000000000         3.626888798825155E-011
   44.7450000000000         3.657913266367085E-011
   44.9350000000000         3.689100317213531E-011
   45.1250000000000         3.720467226236765E-011
   45.3150000000000         3.752020475462599E-011
   45.5050000000000         3.783757965927161E-011
   45.6950000000000         3.815674502692820E-011
   45.8850000000000         3.847765081598484E-011
   46.0750000000000         3.880025708662470E-011
   46.2650000000000         3.912455991940387E-011
   46.4550000000000         3.945054723063522E-011
   46.6450000000000         3.977820900668089E-011
   46.8350000000000         4.010752847126369E-011
   47.0250000000000         4.043849601170190E-011
   47.2150000000000         4.077113466528276E-011
   47.4050000000000         4.110550506204219E-011
   47.5950000000000         4.144165944976036E-011
   47.7850000000000         4.177963411163378E-011
   47.9750000000000         4.211944095899547E-011
   48.1650000000000         4.246107009217160E-011
   48.3550000000000         4.280448987246685E-011
   48.5450000000000         4.314966361261986E-011
   48.7350000000000         4.349655543550842E-011
   48.9250000000000         4.384510679247658E-011
   49.1150000000000         4.419528035718448E-011
   49.3050000000000         4.454703171272973E-011
   49.4950000000000         4.490027658611173E-011
   49.6850000000000         4.525488325188937E-011
   49.8750000000000         4.561073656152894E-011
   50.0650000000000         4.596778695483837E-011
   50.2550000000000         4.632606395244650E-011
   50.4450000000000         4.668565114294544E-011
   50.6350000000000         4.704665164150661E-011
   50.8250000000000         4.740910852667482E-011
   51.0150000000000         4.777312761819668E-011
   51.2050000000000         4.813873460869587E-011
   51.3950000000000         4.850596692597130E-011
   51.5850000000000         4.887487786197355E-011
   51.7750000000000         4.924553653502578E-011
   51.9650000000000         4.961796508346536E-011
   52.1550000000000         4.999205418037958E-011
   52.3450000000000         5.036760513698463E-011
   52.5350000000000         5.074436914586036E-011
   52.7250000000000         5.112207008942736E-011
   52.9150000000000         5.150047030296679E-011
   53.1050000000000         5.187945824323890E-011
   53.2950000000000         5.225887311739345E-011
   53.4850000000000         5.263856818564717E-011
   53.6750000000000         5.301840770107483E-011
   53.8650000000000         5.339824215766314E-011
   54.0550000000000         5.377803682130262E-011
   54.2450000000000         5.415785664259279E-011
   54.4350000000000         5.453785216656798E-011
   54.6250000000000         5.491824500730676E-011
   54.8150000000000         5.529928192765479E-011
   55.0050000000000         5.568121803931940E-011
   55.1950000000000         5.606429787394693E-011
   55.3850000000000         5.644872003742839E-011
   55.5750000000000         5.683473201874610E-011
   55.7650000000000         5.722247201530730E-011
   55.9550000000000         5.761208981367472E-011
   56.1450000000000         5.800375687369948E-011
   56.3350000000000         5.839769643160496E-011
   56.5250000000000         5.879410621695337E-011
   56.7150000000000         5.919305759329754E-011
   56.9050000000000         5.959452169134811E-011
   57.0950000000000         5.999840511288520E-011
   57.2850000000000         6.040459294938245E-011
   57.4750000000000         6.081299891189415E-011
   57.6650000000000         6.122350705444127E-011
   57.8550000000000         6.163599639055972E-011
   58.0450000000000         6.205037652065168E-011
   58.2350000000000         6.246660497364144E-011
   58.4250000000000         6.288464024083275E-011
   58.6150000000000         6.330443740202932E-011
   58.8050000000000         6.372596364648462E-011
   58.9950000000000         6.414919340113948E-011
   59.1850000000000         6.457410200683223E-011
   59.3750000000000         6.500067418433508E-011
   59.5650000000000         6.542889896092787E-011
   59.7550000000000         6.585876734351003E-011
   59.9450000000000         6.629026916862190E-011
   60.1350000000000         6.672339378988348E-011
   60.3250000000000         6.715813050663343E-011
   60.5150000000000         6.759446880080657E-011
   60.7050000000000         6.803239168592589E-011
   60.8950000000000         6.847186391072104E-011
   61.0850000000000         6.891282154579350E-011
   61.2750000000000         6.935517941593522E-011
   61.4650000000000         6.979884080035805E-011
   61.6550000000000         7.024370811213098E-011
   61.8450000000000         7.068969293683874E-011
   62.0350000000000         7.113670662349226E-011
   62.2250000000000         7.158466733998974E-011
   62.4150000000000         7.203351270733582E-011
   62.6050000000000         7.248316080072868E-011
   62.7950000000000         7.293353780449350E-011
   62.9850000000000         7.338461999815559E-011
   63.1750000000000         7.383637568143978E-011
   63.3650000000000         7.428876861841901E-011
   63.5550000000000         7.474175483983113E-011
   63.7450000000000         7.519527203585392E-011
   63.9350000000000         7.564923836959199E-011
   64.1250000000000         7.610357553280417E-011
   64.3150000000000         7.655821379818276E-011
   64.5050000000000         7.701310365897097E-011
   64.6950000000000         7.746822174046824E-011
   64.8850000000000         7.792358050886737E-011
   65.0750000000000         7.837921114737093E-011
   65.2650000000000         7.883517679819467E-011
   65.4550000000000         7.929158345791091E-011
   65.6450000000000         7.974855852635118E-011
   65.8350000000000         8.020625525409522E-011
   66.0250000000000         8.066484805539248E-011
   66.2150000000000         8.112450005814294E-011
   66.4050000000000         8.158536019043127E-011
   66.5950000000000         8.204757552605250E-011
   66.7850000000000         8.251119628744144E-011
   66.9750000000000         8.297632957947107E-011
   67.1650000000000         8.344302596495430E-011
   67.3550000000000         8.391134492686020E-011
   67.5450000000000         8.438135686690537E-011
   67.7350000000000         8.485315402870935E-011
   67.9250000000000         8.532685171296975E-011
   68.1150000000000         8.580257318179718E-011
   68.3050000000000         8.628041671586780E-011
   68.4950000000000         8.676044565674160E-011
   68.6850000000000         8.724267197165892E-011
   68.8750000000000         8.772706205873674E-011
   69.0650000000000         8.821355451848677E-011
   69.2550000000000         8.870207540748352E-011
   69.4450000000000         8.919254787342155E-011
   69.6350000000000         8.968490291874697E-011
   69.8250000000000         9.017908936851598E-011
   70.0150000000000         9.067507811564221E-011
   70.2050000000000         9.117283931612828E-011
   70.3950000000000         9.167235145460444E-011
   70.5850000000000         9.217360118630482E-011
   70.7750000000000         9.267658570426200E-011
   70.9650000000000         9.318131209252682E-011
   71.1550000000000         9.368779000159105E-011
   71.3450000000000         9.419602479150094E-011
   71.5350000000000         9.470601348053942E-011
   71.7250000000000         9.521773234978337E-011
   71.9150000000000         9.573117600546208E-011
   72.1050000000000         9.624630403347514E-011
   72.2950000000000         9.676310749189776E-011
   72.4850000000000         9.728156952283381E-011
   72.6750000000000         9.780166845338697E-011
   72.8650000000000         9.832338297004779E-011
   73.0550000000000         9.884666689433956E-011
   73.2450000000000         9.937146528602052E-011
   73.4350000000000         9.989770432525343E-011
   73.6250000000000         1.004252556277165E-010
   73.8150000000000         1.009539273924251E-010
   74.0050000000000         1.014835099224405E-010
   74.1950000000000         1.020137936769505E-010
   74.3850000000000         1.025446461502101E-010
   74.5750000000000         1.030760079801153E-010
   74.7650000000000         1.036078799369516E-010
   74.9550000000000         1.041402973445301E-010
   75.1450000000000         1.046733104918250E-010
   75.3350000000000         1.052069687198877E-010
   75.5250000000000         1.057412873121811E-010
   75.7150000000000         1.062763409644707E-010
   75.9050000000000         1.068121419444211E-010
   76.0950000000000         1.073487229722308E-010
   76.2850000000000         1.078861606208847E-010
   76.4750000000000         1.084245802409478E-010
   76.6650000000000         1.089641650535220E-010
   76.8550000000000         1.095051021804443E-010
   77.0450000000000         1.100475026550598E-010
   77.2350000000000         1.105914734069152E-010
   77.4250000000000         1.111371737220421E-010
   77.6150000000000         1.116848228120079E-010
   77.8050000000000         1.122346608312746E-010
   77.9950000000000         1.127868433981600E-010
   78.1850000000000         1.133414290793677E-010
   78.3750000000000         1.138984081769753E-010
   78.5650000000000         1.144577333659769E-010
   78.7550000000000         1.150193575126457E-010
   78.9450000000000         1.155832167021930E-010
   79.1350000000000         1.161492959604077E-010
   79.3250000000000         1.167175628746250E-010
   79.5150000000000         1.172880073402723E-010
   79.7050000000000         1.178605983981787E-010
   79.8950000000000         1.184352683681872E-010
   80.0850000000000         1.190118865007201E-010
   80.2750000000000         1.195902558470054E-010
   80.4650000000000         1.201701698712891E-010
   80.6550000000000         1.207514564887645E-010
   80.8450000000000         1.213340014340280E-010
   81.0350000000000         1.219177299647083E-010
   81.2250000000000         1.225025885429087E-010
   81.4150000000000         1.230885407567280E-010
   81.6050000000000         1.236755602789310E-010
   81.7950000000000         1.242636264970467E-010
   81.9850000000000         1.248527387412303E-010
   82.1750000000000         1.254428807210037E-010
   82.3650000000000         1.260340421207785E-010
   82.5550000000000         1.266261973170208E-010
   82.7450000000000         1.272192956376769E-010
   82.9350000000000         1.278132550207523E-010
   83.1250000000000         1.284079893205896E-010
   83.3150000000000         1.290034219223920E-010
   83.5050000000000         1.295995006693480E-010
   83.6950000000000         1.301961986797846E-010
   83.8850000000000         1.307935104778973E-010
   84.0750000000000         1.313914322435099E-010
   84.2650000000000         1.319899784028313E-010
   84.4550000000000         1.325891628330675E-010
   84.6450000000000         1.331889960375278E-010
   84.8350000000000         1.337894833952225E-010
   85.0250000000000         1.343906250692756E-010
   85.2150000000000         1.349924234237618E-010
   85.4050000000000         1.355948943897870E-010
   85.5950000000000         1.361980853038873E-010
   85.7850000000000         1.368020949079368E-010
   85.9750000000000         1.374070517145594E-010
   86.1650000000000         1.380130823138822E-010
   86.3550000000000         1.386202962643575E-010
   86.5450000000000         1.392287809658148E-010
   86.7350000000000         1.398386195626813E-010
   86.9250000000000         1.404498980922288E-010
   87.1150000000000         1.410627050245374E-010
   87.3050000000000         1.416771314761273E-010
   87.4950000000000         1.422932766289587E-010
   87.6850000000000         1.429112451720025E-010
   87.8750000000000         1.435311366365346E-010
   88.0650000000000         1.441530138790297E-010
   88.2550000000000         1.447769314960868E-010
   88.4450000000000         1.454029158731510E-010
   88.6350000000000         1.460309932364873E-010
   88.8250000000000         1.466611875915829E-010
   89.0150000000000         1.472935426487273E-010
   89.2050000000000         1.479281172513118E-010
   89.3950000000000         1.485649817603145E-010
   89.5850000000000         1.492041681600991E-010
   89.7750000000000         1.498456273470062E-010
   89.9650000000000         1.504892573500352E-010
   90.1550000000000         1.511349407826321E-010
   90.3450000000000         1.517825309792010E-010
   90.5350000000000         1.524318848162800E-010
   90.7250000000000         1.530828555195804E-010
   90.9150000000000         1.537353062974388E-010
   91.1050000000000         1.543891194900768E-010
   91.2950000000000         1.550442043416588E-010
   91.4850000000000         1.557004988660435E-010
   91.6750000000000         1.563579660672562E-010
   91.8650000000000         1.570165968385013E-010
   92.0550000000000         1.576764117391061E-010
   92.2450000000000         1.583374500313141E-010
   92.4350000000000         1.589997489227893E-010
   92.6250000000000         1.596633395220987E-010
   92.8150000000000         1.603282558796610E-010
   93.0050000000000         1.609945228769892E-010
   93.1950000000000         1.616621656915809E-010
   93.3850000000000         1.623312106964078E-010
   93.5750000000000         1.630016693001006E-010
   93.7650000000000         1.636734987260032E-010
   93.9550000000000         1.643465771104186E-010
   94.1450000000000         1.650207403614761E-010
   94.3350000000000         1.656958262884369E-010
   94.5250000000000         1.663716853052159E-010
   94.7150000000000         1.670481869366399E-010
   94.9050000000000         1.677252301750041E-010
   95.0950000000000         1.684027222601324E-010
   95.2850000000000         1.690806096769317E-010
   95.4750000000000         1.697588454588935E-010
   95.6650000000000         1.704374195725609E-010
   95.8550000000000         1.711163136914478E-010
   96.0450000000000         1.717955276496501E-010
   96.2350000000000         1.724750671005189E-010
   96.4250000000000         1.731549550502709E-010
   96.6150000000000         1.738352452859054E-010
   96.8050000000000         1.745160317899267E-010
   96.9950000000000         1.751974765329152E-010
   97.1850000000000         1.758797781871424E-010
   97.3750000000000         1.765631445830320E-010
   97.5650000000000         1.772477187388948E-010
   97.7550000000000         1.779336701588914E-010
   97.9450000000000         1.786211581104989E-010
   98.1350000000000         1.793103467953880E-010
   98.3250000000000         1.800014052078976E-010
   98.5150000000000         1.806944801868796E-010
   98.7050000000000         1.813896779684548E-010
   98.8950000000000         1.820870576444432E-010
   99.0850000000000         1.827866351040182E-010
   99.2750000000000         1.834883941655230E-010
   99.4650000000000         1.841922908349697E-010
   99.6550000000000         1.848982295775302E-010
   99.8450000000000         1.856060829178705E-010
   100.035000000000         1.863157021504811E-010
   100.225000000000         1.870269468093021E-010
   100.415000000000         1.877396893827767E-010
   100.605000000000         1.884538151530675E-010
   100.795000000000         1.891692228055863E-010
   100.985000000000         1.898858357220290E-010
   101.175000000000         1.906036005710972E-010
   101.365000000000         1.913225033202547E-010
   101.555000000000         1.920425131862244E-010
   101.745000000000         1.927636242047646E-010
   101.935000000000         1.934858261329508E-010
   102.125000000000         1.942090993337572E-010
   102.315000000000         1.949334264737789E-010
   102.505000000000         1.956588132330486E-010
   102.695000000000         1.963852882444442E-010
   102.885000000000         1.971128851948034E-010
   103.075000000000         1.978416344607848E-010
   103.265000000000         1.985715553311179E-010
   103.455000000000         1.993026622947165E-010
   103.645000000000         2.000349617594355E-010
   103.835000000000         2.007684442743101E-010
   104.025000000000         2.015031012899772E-010
   104.215000000000         2.022389213284334E-010
   104.405000000000         2.029758985623992E-010
   104.595000000000         2.037140267274152E-010
   104.785000000000         2.044532963095869E-010
   104.975000000000         2.051936874077897E-010
   105.165000000000         2.059351581571449E-010
   105.355000000000         2.066776399219068E-010
   105.545000000000         2.074210539116314E-010
   105.735000000000         2.081653195376403E-010
   105.925000000000         2.089103610846916E-010
   106.115000000000         2.096561216382288E-010
   106.305000000000         2.104025682831054E-010
   106.495000000000         2.111496743605116E-010
   106.685000000000         2.118974364379341E-010
   106.875000000000         2.126458516966460E-010
   107.065000000000         2.133949244646279E-010
   107.255000000000         2.141446678145045E-010
   107.445000000000         2.148951051210906E-010
   107.635000000000         2.156462730674413E-010
   107.825000000000         2.163982193877219E-010
   108.015000000000         2.171509981022023E-010
   108.205000000000         2.179046619379084E-010
   108.395000000000         2.186592702691414E-010
   108.585000000000         2.194149193233450E-010
   108.775000000000         2.201717540385263E-010
   108.965000000000         2.209299273202872E-010
   109.155000000000         2.216896206250529E-010
   109.345000000000         2.224508845383122E-010
   109.535000000000         2.232138702075732E-010
   109.725000000000         2.239786208243947E-010
   109.915000000000         2.247451887388581E-010
   110.105000000000         2.255136283881007E-010