  -1.42500000000000        -2.249419040955874E-020
  -1.23500000000000        -2.660231955763379E-020
  -1.04500000000000         1.839211610062319E-019
 -0.855000000000000         1.293557590984377E-018
 -0.665000000000000         5.545912880997047E-018
 -0.475000000000000         1.882754693261216E-017
 -0.285000000000000         5.533489430039703E-017
 -9.499999999999975E-002    1.440055068837983E-016
  9.500000000000020E-002    3.323297852930349E-016
  0.285000000000000         6.959736523245485E-016
  0.475000000000000         1.333091364524888E-015
  0.665000000000000         2.337200264752842E-015
  0.855000000000000         3.768649361155413E-015
   1.04500000000000         5.738633431622029E-015
   1.23500000000000         8.377772739014916E-015
   1.42500000000000         1.150989496332067E-014
   1.61500000000000         1.501627797030075E-014
   1.80500000000000         1.905947912030173E-014
   1.99500000000000         2.369508086000308E-014
   2.18500000000000         2.893115126526185E-014
   2.37500000000000         3.479360080363377E-014
   2.56500000000000         4.126397747212701E-014
   2.75500000000000         4.828492838525558E-014
   2.94500000000000         5.578456914374788E-014
   3.13500000000000         6.365022826950816E-014
   3.32500000000000         7.171245336924012E-014
   3.51500000000000         7.992451251675742E-014
   3.70500000000000         8.827098445541964E-014
   3.89500000000000         9.668860268363938E-014
   4.08500000000000         1.051695387529260E-013
   4.27500000000000         1.137030691898108E-013
   4.46500000000000         1.222892104201211E-013
   4.65500000000000         1.309222006141251E-013
   4.84500000000000         1.395735805300189E-013
   5.03500000000000         1.481891066598966E-013
   5.22500000000000         1.567578315155937E-013
   5.41500000000000         1.652400101299523E-013
   5.60500000000000         1.735639736454677E-013
   5.79500000000000         1.817159715221704E-013
   5.98500000000000         1.897177360934604E-013
   6.17500000000000         1.976578800749381E-013
   6.36500000000000         2.056881119995015E-013
   6.55500000000000         2.139641744222983E-013
   6.74500000000000         2.225829511369115E-013
   6.93500000000000         2.316227117507920E-013
   7.12500000000000         2.412369864211109E-013
   7.31500000000000         2.515208591379674E-013
   7.50500000000000         2.623851063173983E-013
   7.69500000000000         2.736556845303958E-013
   7.88500000000000         2.851383299343827E-013
   8.07500000000000         2.966553307890541E-013
   8.26500000000000         3.081028340845517E-013
   8.45500000000000         3.193993826464855E-013
   8.64500000000000         3.304403467589435E-013
   8.83500000000000         3.411453926687890E-013
   9.02500000000000         3.512771965939252E-013
   9.21500000000000         3.602986522654675E-013
   9.40500000000000         3.677275588228184E-013
   9.59500000000000         3.735757652686710E-013
   9.78500000000000         3.781537091075768E-013
   9.97500000000000         3.817361395970716E-013
   10.1650000000000         3.846348577634052E-013
   10.3550000000000         3.871431577752674E-013
   10.5450000000000         3.893694671775502E-013
   10.7350000000000         3.914344620979265E-013
   10.9250000000000         3.934672839088073E-013
   11.1150000000000         3.954673515072059E-013
   11.3050000000000         3.974138451481585E-013
   11.4950000000000         3.993003541819408E-013
   11.6850000000000         4.011612531843655E-013
   11.8750000000000         4.030835718788232E-013
   12.0650000000000         4.051877077813336E-013
   12.2550000000000         4.075757102011165E-013
   12.4450000000000         4.103618790010387E-013
   12.6350000000000         4.134463268193204E-013
   12.8250000000000         4.168312689077053E-013
   13.0150000000000         4.206722809027421E-013
   13.2050000000000         4.249350723165089E-013
   13.3950000000000         4.296561549310992E-013
   13.5850000000000         4.348647188898691E-013
   13.7750000000000         4.404682638576720E-013
   13.9650000000000         4.463351754467957E-013
   14.1550000000000         4.523221405546059E-013
   14.3450000000000         4.583843309032552E-013
   14.5350000000000         4.645179564135672E-013
   14.7250000000000         4.706970575766768E-013
   14.9150000000000         4.769833770709411E-013
   15.1050000000000         4.835254158505095E-013
   15.2950000000000         4.905826369647776E-013
   15.4850000000000         4.984176409243017E-013
   15.6750000000000         5.071145565238377E-013
   15.8650000000000         5.166537543337816E-013
   16.0550000000000         5.270455230001309E-013
   16.2450000000000         5.381967545751431E-013
   16.4350000000000         5.498997726082956E-013
   16.6250000000000         5.619637686151883E-013
   16.8150000000000         5.742563849266542E-013
   17.0050000000000         5.866576585809491E-013
   17.1950000000000         5.990992533846552E-013
   17.3850000000000         6.115634646898846E-013
   17.5750000000000         6.239970077051714E-013
   17.7650000000000         6.363825720616857E-013
   17.9550000000000         6.487211514591142E-013
   18.1450000000000         6.610012371468402E-013
   18.3350000000000         6.732247777318500E-013
   18.5250000000000         6.853783291086009E-013
   18.7150000000000         6.973847310892358E-013
   18.9050000000000         7.090991371690251E-013
   19.0950000000000         7.203516268769353E-013
   19.2850000000000         7.309684636141464E-013
   19.4750000000000         7.408429967279982E-013
   19.6650000000000         7.499577790990086E-013
   19.8550000000000         7.583079750392858E-013
   20.0450000000000         7.659240121462120E-013
   20.2350000000000         7.729042015091466E-013
   20.4250000000000         7.793368649357892E-013
   20.6150000000000         7.852391066785378E-013
   20.8050000000000         7.905890625009658E-013
   20.9950000000000         7.953778867447052E-013
   21.1850000000000         7.998222017860713E-013
   21.3750000000000         8.038854418639017E-013
   21.5650000000000         8.075740531126617E-013
   21.7550000000000         8.110697328377335E-013
   21.9450000000000         8.141984451699860E-013
   22.1350000000000         8.168130035035025E-013
   22.3250000000000         8.187919175398987E-013
   22.5150000000000         8.202546973384207E-013
   22.7050000000000         8.216248898694511E-013
   22.8950000000000         8.233484709349658E-013
   23.0850000000000         8.257490214510812E-013
   23.2750000000000         8.289691028107367E-013
   23.4650000000000         8.330296340080171E-013
   23.6550000000000         8.380411888470702E-013
   23.8450000000000         8.441839254863672E-013
   24.0350000000000         8.514999766018874E-013
   24.2250000000000         8.599672224386006E-013
   24.4150000000000         8.695422763385052E-013
   24.6050000000000         8.802041308593290E-013
   24.7950000000000         8.917265491896964E-013
   24.9850000000000         9.038221996036956E-013
   25.1750000000000         9.162827985706711E-013
   25.3650000000000         9.288793310080755E-013
   25.5550000000000         9.414695548709679E-013
   25.7450000000000         9.538865126220296E-013
   25.9350000000000         9.659928460620514E-013
   26.1250000000000         9.777427184223597E-013
   26.3150000000000         9.891786080608602E-013
   26.5050000000000         1.000323739696666E-012
   26.6950000000000         1.011186280604590E-012
   26.8850000000000         1.021789304444968E-012
   27.0750000000000         1.032107922537048E-012
   27.2650000000000         1.042115283135957E-012
   27.4550000000000         1.051870048744738E-012
   27.6450000000000         1.061492467070391E-012
   27.8350000000000         1.071079176288650E-012
   28.0250000000000         1.080689631874405E-012
   28.2150000000000         1.090371514812224E-012
   28.4050000000000         1.100197146826508E-012
   28.5950000000000         1.110244059877732E-012
   28.7850000000000         1.120476842762120E-012
   28.9750000000000         1.130655826124716E-012
   29.1650000000000         1.140458561641079E-012
   29.3550000000000         1.149537572490902E-012
   29.5450000000000         1.157507081464557E-012
   29.7350000000000         1.164157968392237E-012
   29.9250000000000         1.169484820844699E-012
   30.1150000000000         1.173565537852313E-012
   30.3050000000000         1.176542382458171E-012
   30.4950000000000         1.178552863040253E-012
   30.6850000000000         1.180004603780377E-012
   30.8750000000000         1.181056228471565E-012
   31.0650000000000         1.181354636285642E-012
   31.2550000000000         1.180901126321539E-012
   31.4450000000000         1.180153472248250E-012
   31.6350000000000         1.179581380553600E-012
   31.8250000000000         1.179448698621746E-012
   32.0150000000000         1.179835801691983E-012
   32.2050000000000         1.180807278130189E-012
   32.3950000000000         1.182496020352305E-012
   32.5850000000000         1.184846129450363E-012
   32.7750000000000         1.187632378777235E-012
   32.9650000000000         1.190791393408927E-012
   33.1550000000000         1.194221083483966E-012
   33.3450000000000         1.197821115543512E-012
   33.5350000000000         1.201689137045990E-012
   33.7250000000000         1.205951693316900E-012
   33.9150000000000         1.210812231904990E-012
   34.1050000000000         1.216484730728408E-012
   34.2950000000000         1.223044211120737E-012
   34.4850000000000         1.230332907396158E-012
   34.6750000000000         1.238227587587712E-012
   34.8650000000000         1.246743507332646E-012
   35.0550000000000         1.255865123960415E-012
   35.2450000000000         1.265615418338330E-012
   35.4350000000000         1.275984709053754E-012
   35.6250000000000         1.286845483912292E-012
   35.8150000000000         1.298029630568523E-012
   36.0050000000000         1.309366626915996E-012
   36.1950000000000         1.320709645460334E-012
   36.3850000000000         1.332007584098946E-012
   36.5750000000000         1.343230529200972E-012
   36.7650000000000         1.354374572496218E-012
   36.9550000000000         1.365436434185584E-012
   37.1450000000000         1.376362759591715E-012
   37.3350000000000         1.387131979241663E-012
   37.5250000000000         1.397742408814885E-012
   37.7150000000000         1.408193969154751E-012
   37.9050000000000         1.418481626650583E-012
   38.0950000000000         1.428624567141180E-012
   38.2850000000000         1.438598310792729E-012
   38.4750000000000         1.448293525408274E-012
   38.6650000000000         1.457660568822238E-012
   38.8550000000000         1.466782241101446E-012
   39.0450000000000         1.475747820011407E-012
   39.2350000000000         1.484582921502215E-012
   39.4250000000000         1.493248183548362E-012
   39.6150000000000         1.501661210645697E-012
   39.8050000000000         1.509724997149356E-012
   39.9950000000000         1.517508709130345E-012
   40.1850000000000         1.525086088443410E-012
   40.3750000000000         1.532523413583222E-012
   40.5650000000000         1.539899498034498E-012
   40.7550000000000         1.547112342977801E-012
   40.9450000000000         1.553970912019351E-012
   41.1350000000000         1.560107853164525E-012
   41.3250000000000         1.565062249621305E-012
   41.5150000000000         1.568650803166034E-012
   41.7050000000000         1.571122297804768E-012
   41.8950000000000         1.572871341864297E-012
   42.0850000000000         1.574277651259688E-012
   42.2750000000000         1.575665649131178E-012
   42.4650000000000         1.577288452839077E-012
   42.6550000000000         1.579338989247263E-012
   42.8450000000000         1.581965815238801E-012
   43.0350000000000         1.585259363582104E-012
   43.2250000000000         1.589191214851921E-012
   43.4150000000000         1.593811034439058E-012
   43.6050000000000         1.598923040160533E-012
   43.7950000000000         1.604287241485961E-012
   43.9850000000000         1.609914816214575E-012
   44.1750000000000         1.615815767532385E-012
   44.3650000000000         1.622136792235503E-012
   44.5550000000000         1.629147083472116E-012
   44.7450000000000         1.637145220746744E-012
   44.9350000000000         1.646156838675741E-012
   45.1250000000000         1.655793638133393E-012
   45.3150000000000         1.665545781326251E-012
   45.5050000000000         1.675105979742636E-012
   45.6950000000000         1.684397780824298E-012
   45.8850000000000         1.693452788675029E-012
   46.0750000000000         1.702392377418463E-012
   46.2650000000000         1.711289852659256E-012
   46.4550000000000         1.720129177044796E-012
   46.6450000000000         1.728898001653856E-012
   46.8350000000000         1.737597381634243E-012
   47.0250000000000         1.746332089523857E-012
   47.2150000000000         1.755286974579723E-012
   47.4050000000000         1.764538906519981E-012
   47.5950000000000         1.774023814714706E-012
   47.7850000000000         1.783635550618702E-012
   47.9750000000000         1.793252580362677E-012
   48.1650000000000         1.802760298608908E-012
   48.3550000000000         1.812088211705949E-012
   48.5450000000000         1.821225165898886E-012
   48.7350000000000         1.830113631201913E-012
   48.9250000000000         1.838749793884379E-012
   49.1150000000000         1.847170842771457E-012
   49.3050000000000         1.855253234019099E-012
   49.4950000000000         1.862767208314841E-012
   49.6850000000000         1.869631514255842E-012
   49.8750000000000         1.876062376181583E-012
   50.0650000000000         1.882440502414591E-012
   50.2550000000000         1.889116284492313E-012
   50.4450000000000         1.896283392263440E-012
   50.6350000000000         1.903835220340444E-012
   50.8250000000000         1.911778886026527E-012
   51.0150000000000         1.920068636897515E-012
   51.2050000000000         1.928524494143769E-012
   51.3950000000000         1.937219087572867E-012
   51.5850000000000         1.946235813301221E-012
   51.7750000000000         1.955492688136316E-012
   51.9650000000000         1.964520119352119E-012
   52.1550000000000         1.972736982945501E-012
   52.3450000000000         1.979776224949427E-012
   52.5350000000000         1.985434085375485E-012
   52.7250000000000         1.989739887122152E-012
   52.9150000000000         1.993126720556709E-012
   53.1050000000000         1.995796880070111E-012
   53.2950000000000         1.997657743179659E-012
   53.4850000000000         1.998775220214198E-012
   53.6750000000000         1.999142031620951E-012
   53.8650000000000         1.999024000599391E-012
   54.0550000000000         1.998985486656943E-012
   54.2450000000000         1.999514066487796E-012
   54.4350000000000         2.001022012405177E-012
   54.6250000000000         2.003762529175867E-012
   54.8150000000000         2.007823768454347E-012
   55.0050000000000         2.013199858663447E-012
   55.1950000000000         2.019742100286819E-012
   55.3850000000000         2.027458275787372E-012
   55.5750000000000         2.036189415470828E-012
   55.7650000000000         2.045678407706889E-012
   55.9550000000000         2.056012785242653E-012
   56.1450000000000         2.067385836658539E-012
   56.3350000000000         2.079866692773389E-012
   56.5250000000000         2.093055688664680E-012
   56.7150000000000         2.106356511565089E-012
   56.9050000000000         2.119335577862234E-012
   57.0950000000000         2.131766468511372E-012
   57.2850000000000         2.143667892128852E-012
   57.4750000000000         2.155037118575892E-012
   57.6650000000000         2.165782838593624E-012
   57.8550000000000         2.175972279501079E-012
   58.0450000000000         2.185812060741336E-012
   58.2350000000000         2.195430842581766E-012
   58.4250000000000         2.204822179968090E-012
   58.6150000000000         2.214008962241689E-012
   58.8050000000000         2.223042102921520E-012
   58.9950000000000         2.231943053546378E-012
   59.1850000000000         2.240738903146270E-012
   59.3750000000000         2.249465668672742E-012
   59.5650000000000         2.258139892565670E-012
   59.7550000000000         2.266763704457990E-012
   59.9450000000000         2.275332753614327E-012
   60.1350000000000         2.283845626346138E-012
   60.3250000000000         2.292302660323952E-012
   60.5150000000000         2.300687313927522E-012
   60.7050000000000         2.308934499774918E-012
   60.8950000000000         2.316920683862130E-012
   61.0850000000000         2.324514487405771E-012
   61.2750000000000         2.331629617275127E-012
   61.4650000000000         2.338233411041488E-012
   61.6550000000000         2.344347727580791E-012
   61.8450000000000         2.349996082529616E-012
   62.0350000000000         2.355195797765779E-012
   62.2250000000000         2.360016010114676E-012
   62.4150000000000         2.364456475628746E-012
   62.6050000000000         2.368487097783367E-012
   62.7950000000000         2.372261045860346E-012
   62.9850000000000         2.375889149858648E-012
   63.1750000000000         2.379338474377415E-012
   63.3650000000000         2.382576732608764E-012
   63.5550000000000         2.385535309039235E-012
   63.7450000000000         2.388114552002280E-012
   63.9350000000000         2.390272360395400E-012
   64.1250000000000         2.392040601554684E-012
   64.3150000000000         2.393495068859989E-012
   64.5050000000000         2.394757742856522E-012
   64.6950000000000         2.395991710253672E-012
   64.8850000000000         2.397340544480748E-012
   65.0750000000000         2.398937603492935E-012
   65.2650000000000         2.400979764578874E-012
   65.4550000000000         2.403636126727656E-012
   65.6450000000000         2.407031042590335E-012
   65.8350000000000         2.411288234319143E-012
   66.0250000000000         2.416433694862372E-012
   66.2150000000000         2.422400355365251E-012
   66.4050000000000         2.429145968183060E-012
   66.5950000000000         2.436410781605727E-012
   66.7850000000000         2.444089614259415E-012
   66.9750000000000         2.452183361875932E-012
   67.1650000000000         2.460566703655591E-012
   67.3550000000000         2.469291847239663E-012
   67.5450000000000         2.478445004866217E-012
   67.7350000000000         2.488144331748370E-012
   67.9250000000000         2.498471455494260E-012
   68.1150000000000         2.509381586573828E-012
   68.3050000000000         2.520717039327418E-012
   68.4950000000000         2.532250673134570E-012
   68.6850000000000         2.543727373671375E-012
   68.8750000000000         2.554954070599538E-012
   69.0650000000000         2.565824601965239E-012
   69.2550000000000         2.576298302459979E-012
   69.4450000000000         2.586388187535488E-012
   69.6350000000000         2.596161829195859E-012
   69.8250000000000         2.605724202355850E-012
   70.0150000000000         2.615131441085063E-012
   70.2050000000000         2.624403523584824E-012
   70.3950000000000         2.633583868885648E-012
   70.5850000000000         2.642721709625142E-012
   70.7750000000000         2.651870805847370E-012
   70.9650000000000         2.661063940339677E-012
   71.1550000000000         2.670296576247594E-012
   71.3450000000000         2.679535470916677E-012
   71.5350000000000         2.688704100743202E-012
   71.7250000000000         2.697796118217496E-012
   71.9150000000000         2.706767588662535E-012
   72.1050000000000         2.715609174830819E-012
   72.2950000000000         2.724382866733398E-012
   72.4850000000000         2.733055161813654E-012
   72.6750000000000         2.741614334773666E-012
   72.8650000000000         2.749995897243729E-012
   73.0550000000000         2.758111357822931E-012
   73.2450000000000         2.765887976089087E-012
   73.4350000000000         2.773132478147254E-012
   73.6250000000000         2.779534387293830E-012
   73.8150000000000         2.784879722958023E-012
   74.0050000000000         2.789121801382611E-012
   74.1950000000000         2.792463757288232E-012
   74.3850000000000         2.795300797802066E-012
   74.5750000000000         2.797983649319895E-012
   74.7650000000000         2.800761485302342E-012
   74.9550000000000         2.803764618087956E-012
   75.1450000000000         2.807029935151509E-012
   75.3350000000000         2.810465316726394E-012
   75.5250000000000         2.814137485744688E-012
   75.7150000000000         2.818038505894893E-012
   75.9050000000000         2.822057915158055E-012
   76.0950000000000         2.826364938062007E-012
   76.2850000000000         2.831203338729053E-012
   76.4750000000000         2.836853770098262E-012
   76.6650000000000         2.843478788148684E-012
   76.8550000000000         2.850888425099336E-012
   77.0450000000000         2.858871648607495E-012
   77.2350000000000         2.867555439426929E-012
   77.4250000000000         2.877235276559774E-012
   77.6150000000000         2.888123971664560E-012
   77.8050000000000         2.900054174084483E-012
   77.9950000000000         2.912548021297808E-012
   78.1850000000000         2.925170470566432E-012
   78.3750000000000         2.937642859497912E-012
   78.5650000000000         2.949866672817051E-012
   78.7550000000000         2.961798253200260E-012
   78.9450000000000         2.973522230952433E-012
   79.1350000000000         2.985121506400078E-012
   79.3250000000000         2.996608894380499E-012
   79.5150000000000         3.007988219877872E-012
   79.7050000000000         3.019107968197269E-012
   79.8950000000000         3.029705533003806E-012
   80.0850000000000         3.039440733732143E-012
   80.2750000000000         3.048114133076252E-012
   80.4650000000000         3.055791162523978E-012
   80.6550000000000         3.062714638786783E-012
   80.8450000000000         3.069140726167866E-012
   81.0350000000000         3.075229233896389E-012
   81.2250000000000         3.081081031630607E-012
   81.4150000000000         3.086767726374403E-012
   81.6050000000000         3.092330895575576E-012
   81.7950000000000         3.097838058682508E-012
   81.9850000000000         3.103300589360581E-012
   82.1750000000000         3.108693104074179E-012
   82.3650000000000         3.113991042150401E-012
   82.5550000000000         3.119088202364259E-012
   82.7450000000000         3.123836062451180E-012
   82.9350000000000         3.128141270822697E-012
   83.1250000000000         3.132018162209636E-012
   83.3150000000000         3.135556180943267E-012
   83.5050000000000         3.138886203664730E-012
   83.6950000000000         3.142131075129574E-012
   83.8850000000000         3.145351483487721E-012
   84.0750000000000         3.148599802458197E-012
   84.2650000000000         3.151922604098903E-012
   84.4550000000000         3.155309564990601E-012
   84.6450000000000         3.158738321460393E-012
   84.8350000000000         3.162181662494299E-012
   85.0250000000000         3.165631654051070E-012
   85.2150000000000         3.169129790819456E-012
   85.4050000000000         3.172794421382832E-012
   85.5950000000000         3.176843468815248E-012
   85.7850000000000         3.181490554400329E-012
   85.9750000000000         3.186808963014111E-012
   86.1650000000000         3.192748815258074E-012
   86.3550000000000         3.199206978770167E-012
   86.5450000000000         3.206113942957435E-012
   86.7350000000000         3.213466122142011E-012
   86.9250000000000         3.221277531200216E-012
   87.1150000000000         3.229561536574905E-012
   87.3050000000000         3.238346327424316E-012
   87.4950000000000         3.247667620724217E-012
   87.6850000000000         3.257526335726248E-012
   87.8750000000000         3.267812386913659E-012
   88.0650000000000         3.278407525137321E-012
   88.2550000000000         3.289215774003627E-012
   88.4450000000000         3.300162474738105E-012
   88.6350000000000         3.311241364294370E-012
   88.8250000000000         3.322498453263101E-012
   89.0150000000000         3.334025420339151E-012
   89.2050000000000         3.345892398913765E-012
   89.3950000000000         3.358028707335024E-012
   89.5850000000000         3.370119964978127E-012
   89.7750000000000         3.381813657726744E-012
   89.9650000000000         3.392930093752244E-012
   90.1550000000000         3.403351655699203E-012
   90.3450000000000         3.413010614862989E-012
   90.5350000000000         3.421906685208967E-012
   90.7250000000000         3.430056529365282E-012
   90.9150000000000         3.437536764464353E-012
   91.1050000000000         3.444468537420886E-012
   91.2950000000000         3.450998357806797E-012
   91.4850000000000         3.457267698940529E-012
   91.6750000000000         3.463415716994440E-012
   91.8650000000000         3.469593873289114E-012
   92.0550000000000         3.475929454770520E-012
   92.2450000000000         3.482466272850495E-012
   92.4350000000000         3.489182870485709E-012
   92.6250000000000         3.496070939136291E-012
   92.8150000000000         3.503114091817259E-012
   93.0050000000000         3.510288978736489E-012
   93.1950000000000         3.517599524785550E-012
   93.3850000000000         3.525009496104404E-012
   93.5750000000000         3.532336919987866E-012
   93.7650000000000         3.539231079784439E-012
   93.9550000000000         3.545372724928872E-012
   94.1450000000000         3.550655731627006E-012
   94.3350000000000         3.555118272999499E-012
   94.5250000000000         3.558843811060322E-012
   94.7150000000000         3.561960183653169E-012
   94.9050000000000         3.564566640770041E-012
   95.0950000000000         3.566788162967346E-012
   95.2850000000000         3.568745259897521E-012
   95.4750000000000         3.570552356918882E-012
   95.6650000000000         3.572284822511368E-012
   95.8550000000000         3.573968623918835E-012
   96.0450000000000         3.575666865976374E-012
   96.2350000000000         3.577440527949470E-012
   96.4250000000000         3.579416277332961E-012
   96.6150000000000         3.581780893830993E-012
   96.8050000000000         3.584819071078454E-012
   96.9950000000000         3.588806308462518E-012
   97.1850000000000         3.593863289780814E-012
   97.3750000000000         3.599843557242979E-012
   97.5650000000000         3.606646252261763E-012
   97.7550000000000         3.614314135800265E-012
   97.9450000000000         3.622833253938205E-012
   98.1350000000000         3.632229203680840E-012
   98.3250000000000         3.642456293399216E-012
   98.5150000000000         3.653349369887414E-012
   98.7050000000000         3.664677519904055E-012
   98.8950000000000         3.676202988324796E-012
   99.0850000000000         3.687727687052233E-012
   99.2750000000000         3.699094028819851E-012
   99.4650000000000         3.710093189492816E-012
   99.6550000000000         3.720505481317945E-012
   99.8450000000000         3.730190981449546E-012
   100.035000000000         3.739115503767247E-012
   100.225000000000         3.747334821830755E-012
   100.415000000000         3.754916694119568E-012
   100.605000000000         3.761930060025214E-012
   100.795000000000         3.768475181477599E-012
   100.985000000000         3.774678330291645E-012
   101.175000000000         3.780704205857117E-012
   101.365000000000         3.786612145071723E-012
   101.555000000000         3.792423380289160E-012
   101.745000000000         3.798191965069302E-012
   101.935000000000         3.803881918401528E-012
   102.125000000000         3.809474581126658E-012
   102.315000000000         3.815036577082831E-012
   102.505000000000         3.820688870172102E-012
   102.695000000000         3.826505162512712E-012
   102.885000000000         3.832490043001525E-012
   103.075000000000         3.838605621880054E-012
   103.265000000000         3.844810089293796E-012
   103.455000000000         3.851069548204525E-012
   103.645000000000         3.857320998930715E-012
   103.835000000000         3.863525080372562E-012
   104.025000000000         3.869676458219149E-012
   104.215000000000         3.875782295847576E-012
   104.405000000000         3.881856313109915E-012
   104.595000000000         3.887888808388229E-012
   104.785000000000         3.893843895722292E-012
   104.975000000000         3.899636440942336E-012
   105.165000000000         3.905138195044841E-012
   105.355000000000         3.910251985490728E-012
   105.545000000000         3.914946357193381E-012
   105.735000000000         3.919229402790012E-012
   105.925000000000         3.923163422601344E-012
   106.115000000000         3.926861048457394E-012
   106.305000000000         3.930401900744440E-012
   106.495000000000         3.933863565338711E-012
   106.685000000000         3.937308779300831E-012
   106.875000000000         3.940757964983522E-012
   107.065000000000         3.944252941733002E-012
   107.255000000000         3.947843832796692E-012
   107.445000000000         3.951592770886462E-012
   107.635000000000         3.955563859555917E-012
   107.825000000000         3.959802723054859E-012
   108.015000000000         3.964322500490988E-012
   108.205000000000         3.969137281418677E-012
   108.395000000000         3.974361540622420E-012
   108.585000000000         3.980220445749839E-012
   108.775000000000         3.986863149847760E-012
   108.965000000000         3.994385754016982E-012
   109.155000000000         4.002518994802488E-012
   109.345000000000         4.011183111895828E-012
   109.535000000000         4.020358647585540E-012
   109.725000000000         4.029785608644506E-012
   109.915000000000         4.039493588700297E-012
   110.105000000000         4.049535709004578E-012