  -1.42500000000000         8.195426317320853E-020
  -1.23500000000000        -5.984832786898216E-018
  -1.04500000000000        -4.505551938469952E-017
 -0.855000000000000        -2.016909262395086E-016
 -0.665000000000000        -7.550440374943057E-016
 -0.475000000000000        -2.239103096865643E-015
 -0.285000000000000        -6.080210405842711E-015
 -9.499999999999975E-002   -1.310451247531943E-014
  9.500000000000020E-002   -2.532579976481216E-014
  0.285000000000000        -4.415115368053226E-014
  0.475000000000000        -6.917463928198289E-014
  0.665000000000000        -1.011850880067130E-013
  0.855000000000000        -1.387352188218643E-013
   1.04500000000000        -1.740199187226036E-013
   1.23500000000000        -2.179167562771235E-013
   1.42500000000000        -2.362409800862154E-013
   1.61500000000000        -2.613971752781842E-013
   1.80500000000000        -2.896498159117704E-013
   1.99500000000000        -3.137954303937050E-013
   2.18500000000000        -3.339968424154826E-013
   2.37500000000000        -3.489076517497330E-013
   2.56500000000000        -3.573556725315996E-013
   2.75500000000000        -3.605107282748906E-013
   2.94500000000000        -3.597240326305275E-013
   3.13500000000000        -3.573255618440563E-013
   3.32500000000000        -3.557121723715949E-013
   3.51500000000000        -3.511759775794548E-013
   3.70500000000000        -3.491362328700708E-013
   3.89500000000000        -3.463399372821769E-013
   4.08500000000000        -3.437742849222187E-013
   4.27500000000000        -3.406756639351996E-013
   4.46500000000000        -3.353603984800034E-013
   4.65500000000000        -3.272637484651045E-013
   4.84500000000000        -3.157007793289276E-013
   5.03500000000000        -3.022094423130751E-013
   5.22500000000000        -2.995371135308914E-013
   5.41500000000000        -2.856690626407530E-013
   5.60500000000000        -2.712096107211233E-013
   5.79500000000000        -2.542931430052218E-013
   5.98500000000000        -2.344657839422201E-013
   6.17500000000000        -2.135877898390688E-013
   6.36500000000000        -1.859267299349030E-013
   6.55500000000000        -1.688072109945351E-013
   6.74500000000000        -1.540529492465852E-013
   6.93500000000000        -1.416544169786854E-013
   7.12500000000000        -1.371754168897081E-013
   7.31500000000000        -1.575616108572204E-013
   7.50500000000000        -1.834819390569289E-013
   7.69500000000000        -2.174679912971021E-013
   7.88500000000000        -2.547823923485379E-013
   8.07500000000000        -2.924439769462058E-013
   8.26500000000000        -3.167359955277625E-013
   8.45500000000000        -3.419373351925952E-013
   8.64500000000000        -3.679512990104533E-013
   8.83500000000000        -3.894482945881845E-013
   9.02500000000000        -4.178614735544802E-013
   9.21500000000000        -4.267375133840684E-013
   9.40500000000000        -3.919367421163508E-013
   9.59500000000000        -3.440843507458331E-013
   9.78500000000000        -2.943948890562487E-013
   9.97500000000000        -2.426250352896244E-013
   10.1650000000000        -2.048780429340501E-013
   10.3550000000000        -1.837237881519052E-013
   10.5450000000000        -1.593032351302651E-013
   10.7350000000000        -1.547120401146153E-013
   10.9250000000000        -1.515536407675840E-013
   11.1150000000000        -1.461863105724504E-013
   11.3050000000000        -1.376313465938638E-013
   11.4950000000000        -1.268022713228523E-013
   11.6850000000000        -1.159383797004624E-013
   11.8750000000000        -1.078471695296525E-013
   12.0650000000000        -1.041585949829564E-013
   12.2550000000000        -1.045141363905312E-013
   12.4450000000000        -1.090775337641853E-013
   12.6350000000000        -1.114182449793481E-013
   12.8250000000000        -1.191445376072945E-013
   13.0150000000000        -1.256597715515374E-013
   13.2050000000000        -1.311080767882633E-013
   13.3950000000000        -1.356858009882426E-013
   13.5850000000000        -1.338595574155657E-013
   13.7750000000000        -1.259027564723438E-013
   13.9650000000000        -1.154876473823260E-013
   14.1550000000000        -1.115019766319989E-013
   14.3450000000000        -1.021951739157399E-013
   14.5350000000000        -9.894571884609931E-014
   14.7250000000000        -9.436325338205739E-014
   14.9150000000000        -8.937631391230456E-014
   15.1050000000000        -9.010103904972098E-014
   15.2950000000000        -1.027301388373709E-013
   15.4850000000000        -1.270688314098839E-013
   15.6750000000000        -1.470978983981339E-013
   15.8650000000000        -1.689868744834642E-013
   16.0550000000000        -1.927140051985823E-013
   16.2450000000000        -2.132709385551357E-013
   16.4350000000000        -2.288137286511304E-013
   16.6250000000000        -2.415732543385538E-013
   16.8150000000000        -2.536896765592604E-013
   17.0050000000000        -2.575087432927843E-013
   17.1950000000000        -2.672505477035704E-013
   17.3850000000000        -2.711964004280440E-013
   17.5750000000000        -2.792787095663125E-013
   17.7650000000000        -2.824580071270525E-013
   17.9550000000000        -2.858563299424800E-013
   18.1450000000000        -2.882979120049788E-013
   18.3350000000000        -2.905665405553274E-013
   18.5250000000000        -2.931691604647520E-013
   18.7150000000000        -2.971475263409064E-013
   18.9050000000000        -3.009539230883994E-013
   19.0950000000000        -3.037871183835139E-013
   19.2850000000000        -3.055236326749244E-013
   19.4750000000000        -3.054457115316341E-013
   19.6650000000000        -3.023238465798630E-013
   19.8550000000000        -2.963225939130000E-013
   20.0450000000000        -2.882180943740992E-013
   20.2350000000000        -2.783595547610678E-013
   20.4250000000000        -2.666954170191474E-013
   20.6150000000000        -2.517611749741318E-013
   20.8050000000000        -2.344709075333384E-013
   20.9950000000000        -2.171908091634683E-013
   21.1850000000000        -2.120525007959351E-013
   21.3750000000000        -1.946134001427212E-013
   21.5650000000000        -1.908062642050666E-013
   21.7550000000000        -1.840510082454755E-013
   21.9450000000000        -1.754737235349398E-013
   22.1350000000000        -1.701868221137385E-013
   22.3250000000000        -1.779639500859543E-013
   22.5150000000000        -2.046136080543105E-013
   22.7050000000000        -2.421961639024640E-013
   22.8950000000000        -2.847975919505706E-013
   23.0850000000000        -3.290265747228093E-013
   23.2750000000000        -3.697566304941538E-013
   23.4650000000000        -3.976478379916175E-013
   23.6550000000000        -4.308436746057993E-013
   23.8450000000000        -4.640686350080121E-013
   24.0350000000000        -4.911211843319386E-013
   24.2250000000000        -5.115032953470939E-013
   24.4150000000000        -5.255490292210622E-013
   24.6050000000000        -5.375668403743774E-013
   24.7950000000000        -5.312748645665395E-013
   24.9850000000000        -5.237262599153035E-013
   25.1750000000000        -5.102514042546049E-013
   25.3650000000000        -4.916697980275577E-013
   25.5550000000000        -4.750319198637464E-013
   25.7450000000000        -4.436280270255581E-013
   25.9350000000000        -4.109343286576849E-013
   26.1250000000000        -3.835500679357574E-013
   26.3150000000000        -3.615233157372831E-013
   26.5050000000000        -3.376802736861637E-013
   26.6950000000000        -3.172405308940641E-013
   26.8850000000000        -2.973811438095531E-013
   27.0750000000000        -2.756239760948528E-013
   27.2650000000000        -2.555966432045400E-013
   27.4550000000000        -2.443883447295307E-013
   27.6450000000000        -2.403268342844234E-013
   27.8350000000000        -2.402593547074170E-013
   28.0250000000000        -2.427217868126902E-013
   28.2150000000000        -2.451040238548478E-013
   28.4050000000000        -2.469471137339333E-013
   28.5950000000000        -2.382958316597272E-013
   28.7850000000000        -2.103625163573482E-013
   28.9750000000000        -1.683135019234454E-013
   29.1650000000000        -1.086099008345218E-013
   29.3550000000000        -2.388835446321057E-014
   29.5450000000000         5.770440367877665E-014
   29.7350000000000         1.363257027274017E-013
   29.9250000000000         2.082596448592524E-013
   30.1150000000000         2.726586031443510E-013
   30.3050000000000         3.151237546744685E-013
   30.4950000000000         3.426287750892475E-013
   30.6850000000000         3.495614815712783E-013
   30.8750000000000         3.574025607399713E-013
   31.0650000000000         3.467302691307496E-013
   31.2550000000000         3.054913139318108E-013
   31.4450000000000         2.328857749519345E-013
   31.6350000000000         1.560404517980298E-013
   31.8250000000000         7.465894349449531E-014
   32.0150000000000         8.037496998628376E-016
   32.2050000000000        -6.063766849412923E-014
   32.3950000000000        -1.342673085844412E-013
   32.5850000000000        -1.801410794428485E-013
   32.7750000000000        -2.082102305950598E-013
   32.9650000000000        -2.339235369302085E-013
   33.1550000000000        -2.467651937027212E-013
   33.3450000000000        -2.608872223856918E-013
   33.5350000000000        -2.758463122902158E-013
   33.7250000000000        -2.890785110819418E-013
   33.9150000000000        -2.954506362290546E-013
   34.1050000000000        -2.868718315940762E-013
   34.2950000000000        -2.652968512075428E-013
   34.4850000000000        -2.452117069657533E-013
   34.6750000000000        -2.216457021432559E-013
   34.8650000000000        -1.965929265355947E-013
   35.0550000000000        -1.713310259612038E-013
   35.2450000000000        -1.457766628708454E-013
   35.4350000000000        -1.313790143269533E-013
   35.6250000000000        -1.326378541582005E-013
   35.8150000000000        -1.467576720225591E-013
   36.0050000000000        -1.661987621300946E-013
   36.1950000000000        -1.892749578909281E-013
   36.3850000000000        -1.943550727510284E-013
   36.5750000000000        -2.115325593302814E-013
   36.7650000000000        -2.176682159325175E-013
   36.9550000000000        -2.293302196044231E-013
   37.1450000000000        -2.384549226274806E-013
   37.3350000000000        -2.438734422763497E-013
   37.5250000000000        -2.456192037994825E-013
   37.7150000000000        -2.452143215283572E-013
   37.9050000000000        -2.434620157172647E-013
   38.0950000000000        -2.419473091655341E-013
   38.2850000000000        -2.412765245207299E-013
   38.4750000000000        -2.523410641539953E-013
   38.6650000000000        -2.868802386919349E-013
   38.8550000000000        -3.471017306179340E-013
   39.0450000000000        -4.088859170159114E-013
   39.2350000000000        -4.746871844692994E-013
   39.4250000000000        -5.328108699889275E-013
   39.6150000000000        -5.850305532773336E-013
   39.8050000000000        -6.392061478351862E-013
   39.9950000000000        -6.597670117566496E-013
   40.1850000000000        -6.820908162322879E-013
   40.3750000000000        -6.886439684573649E-013
   40.5650000000000        -7.002509240982361E-013
   40.7550000000000        -7.164970286755141E-013
   40.9450000000000        -7.355340065757417E-013
   41.1350000000000        -7.438897924023104E-013
   41.3250000000000        -7.211764028441346E-013
   41.5150000000000        -6.703317501821738E-013
   41.7050000000000        -6.136777205941167E-013
   41.8950000000000        -5.473037384451365E-013
   42.0850000000000        -4.713514007723580E-013
   42.2750000000000        -3.984954851796648E-013
   42.4650000000000        -3.331606781050850E-013
   42.6550000000000        -2.763408620156623E-013
   42.8450000000000        -2.199087695926233E-013
   43.0350000000000        -1.758293754792402E-013
   43.2250000000000        -1.458484375813004E-013
   43.4150000000000        -1.058896625153734E-013
   43.6050000000000        -9.432580795626017E-014
   43.7950000000000        -7.785632402531616E-014
   43.9850000000000        -6.351557815299337E-014
   44.1750000000000        -4.548953270316922E-014
   44.3650000000000        -2.169107114340321E-014
   44.5550000000000         4.015419355272467E-015
   44.7450000000000         9.362279305154405E-015
   44.9350000000000        -3.368052167428150E-014
   45.1250000000000        -1.027792820728112E-013
   45.3150000000000        -1.868150995503800E-013
   45.5050000000000        -2.635260002724697E-013
   45.6950000000000        -3.188170643205630E-013
   45.8850000000000        -3.758637928810083E-013
   46.0750000000000        -3.901241535001515E-013
   46.2650000000000        -4.034930624723720E-013
   46.4550000000000        -4.125698601353162E-013
   46.6450000000000        -4.258920914337569E-013
   46.8350000000000        -4.372674105182169E-013
   47.0250000000000        -4.157628166511134E-013
   47.2150000000000        -3.663398925469976E-013
   47.4050000000000        -3.015337861943824E-013
   47.5950000000000        -2.372923444592742E-013
   47.7850000000000        -1.751985690069515E-013
   47.9750000000000        -1.171806623715211E-013
   48.1650000000000        -6.944116306602649E-014
   48.3550000000000        -3.803947116862765E-014
   48.5450000000000        -1.969523053481379E-014
   48.7350000000000        -9.996362776334838E-016
   48.9250000000000         1.044637162136002E-014
   49.1150000000000         2.142805862869505E-014
   49.3050000000000         4.245693306771196E-014
   49.4950000000000         5.967794648716538E-014
   49.6850000000000         3.367544940201799E-014
   49.8750000000000        -2.417862862385813E-014
   50.0650000000000        -8.476344259221234E-014
   50.2550000000000        -1.629091944018238E-013
   50.4450000000000        -2.434517898403320E-013
   50.6350000000000        -2.699660655181001E-013
   50.8250000000000        -3.246499701300254E-013
   51.0150000000000        -3.324761294744080E-013
   51.2050000000000        -3.458067102237984E-013
   51.3950000000000        -3.685489626088945E-013
   51.5850000000000        -4.014475458277350E-013
   51.7750000000000        -4.110658643815058E-013
   51.9650000000000        -3.816701353315304E-013
   52.1550000000000        -3.129162986101533E-013
   52.3450000000000        -2.597681535405214E-013
   52.5350000000000        -2.016993094707473E-013
   52.7250000000000        -1.589883550560678E-013
   52.9150000000000        -1.377539075391939E-013
   53.1050000000000        -1.180639723190510E-013
   53.2950000000000        -1.038283445777257E-013
   53.4850000000000        -9.644795549980627E-014
   53.6750000000000        -1.064560345520969E-013
   53.8650000000000        -1.289022596235322E-013
   54.0550000000000        -1.649160111119522E-013
   54.2450000000000        -2.089659678605504E-013
   54.4350000000000        -2.603289596200426E-013
   54.6250000000000        -3.097928124619190E-013
   54.8150000000000        -3.554610900205796E-013
   55.0050000000000        -3.907750703263939E-013
   55.1950000000000        -4.139227148631667E-013
   55.3850000000000        -4.401493501735767E-013
   55.5750000000000        -4.548432738603937E-013
   55.7650000000000        -4.701325946316044E-013
   55.9550000000000        -4.878964971120419E-013
   56.1450000000000        -4.997617098137128E-013
   56.3350000000000        -4.893193129993052E-013
   56.5250000000000        -4.652354919336941E-013
   56.7150000000000        -4.225437968570949E-013
   56.9050000000000        -3.672152394956226E-013
   57.0950000000000        -3.318907325760740E-013
   57.2850000000000        -2.962731907551271E-013
   57.4750000000000        -2.564120197269045E-013
   57.6650000000000        -2.137879332991612E-013
   57.8550000000000        -1.803763329774710E-013
   58.0450000000000        -1.625778363743069E-013
   58.2350000000000        -1.485263659781715E-013
   58.4250000000000        -1.365644157472603E-013
   58.6150000000000        -1.291801233156887E-013
   58.8050000000000        -1.242558570015670E-013
   58.9950000000000        -1.198680607591590E-013
   59.1850000000000        -1.161442941920943E-013
   59.3750000000000        -1.124187373290491E-013
   59.5650000000000        -1.092125498832540E-013
   59.7550000000000        -1.082634649773255E-013
   59.9450000000000        -1.107353881171446E-013
   60.1350000000000        -1.182129932627940E-013
   60.3250000000000        -1.318595943920574E-013
   60.5150000000000        -1.483197669322702E-013
   60.7050000000000        -1.609254470848602E-013
   60.8950000000000        -1.704244172612526E-013
   61.0850000000000        -1.503182347111191E-013
   61.2750000000000        -1.352585737591304E-013
   61.4650000000000        -1.000034415376600E-013
   61.6550000000000        -7.970291554965665E-014
   61.8450000000000        -6.131631332478621E-014
   62.0350000000000        -3.442928920058901E-014
   62.2250000000000        -2.438190116335126E-014
   62.4150000000000        -1.146944536262549E-014
   62.6050000000000        -4.828441292516818E-016
   62.7950000000000         7.288083650967032E-016
   62.9850000000000         4.901961180670471E-015
   63.1750000000000         9.390610473780187E-015
   63.3650000000000         1.427151575585320E-014
   63.5550000000000         1.797160030094101E-014
   63.7450000000000         1.703585768697403E-014
   63.9350000000000         9.912215167551916E-015
   64.1250000000000        -2.567712883333872E-015
   64.3150000000000        -1.967435961946813E-014
   64.5050000000000        -3.854862862956309E-014
   64.6950000000000        -5.892852746042268E-014
   64.8850000000000        -7.790515408437119E-014
   65.0750000000000        -9.481827329204309E-014
   65.2650000000000        -1.109141459467324E-013
   65.4550000000000        -1.236697714572350E-013
   65.6450000000000        -1.384148838666941E-013
   65.8350000000000        -1.539078447134655E-013
   66.0250000000000        -1.677724892025878E-013
   66.2150000000000        -1.796116667509394E-013
   66.4050000000000        -1.890834381379860E-013
   66.5950000000000        -1.921324349716694E-013
   66.7850000000000        -1.949915506334580E-013
   66.9750000000000        -1.929909321485703E-013
   67.1650000000000        -1.898632703047141E-013
   67.3550000000000        -1.871976878558685E-013
   67.5450000000000        -1.863539774406307E-013
   67.7350000000000        -1.875674782387984E-013
   67.9250000000000        -1.893880038476462E-013
   68.1150000000000        -1.915955463007351E-013
   68.3050000000000        -1.942811258349486E-013
   68.4950000000000        -1.973490104482582E-013
   68.6850000000000        -2.017809335896399E-013
   68.8750000000000        -2.086585106057253E-013
   69.0650000000000        -2.188316367778119E-013
   69.2550000000000        -2.321623340652231E-013
   69.4450000000000        -2.479487288856957E-013
   69.6350000000000        -2.636441350457686E-013
   69.8250000000000        -2.743041387256819E-013
   70.0150000000000        -2.852064032804045E-013
   70.2050000000000        -2.953128610823154E-013
   70.3950000000000        -3.088410663467058E-013
   70.5850000000000        -3.231893312258221E-013
   70.7750000000000        -3.432779467575106E-013
   70.9650000000000        -3.645978542694775E-013
   71.1550000000000        -3.978151020541764E-013
   71.3450000000000        -4.253093909083814E-013
   71.5350000000000        -4.640065154119299E-013
   71.7250000000000        -4.827553112947508E-013
   71.9150000000000        -5.154810180109713E-013
   72.1050000000000        -5.248702037347533E-013
   72.2950000000000        -5.335516471242514E-013
   72.4850000000000        -5.386905642704257E-013
   72.6750000000000        -5.402583203111681E-013
   72.8650000000000        -5.471942845165405E-013
   73.0550000000000        -5.553580831962095E-013
   73.2450000000000        -5.664068602811830E-013
   73.4350000000000        -5.800002100959996E-013
   73.6250000000000        -5.877094224603842E-013
   73.8150000000000        -5.803571310477417E-013
   74.0050000000000        -5.499584919760352E-013
   74.1950000000000        -5.031956399445408E-013
   74.3850000000000        -4.429380581638495E-013
   74.5750000000000        -3.774645720495412E-013
   74.7650000000000        -3.103360570582785E-013
   74.9550000000000        -2.489669414093091E-013
   75.1450000000000        -2.059085754141792E-013
   75.3350000000000        -1.910029517412965E-013
   75.5250000000000        -1.543290949344646E-013
   75.7150000000000        -1.494617302101077E-013
   75.9050000000000        -1.431678593889387E-013
   76.0950000000000        -1.336145604558485E-013
   76.2850000000000        -1.240667166555642E-013
   76.4750000000000        -1.200554405643506E-013
   76.6650000000000        -1.210658247841871E-013
   76.8550000000000        -1.225074654775127E-013
   77.0450000000000        -1.245055046711935E-013
   77.2350000000000        -1.284310360099910E-013
   77.4250000000000        -1.291538751103625E-013
   77.6150000000000        -1.116930259937963E-013
   77.8050000000000        -7.917718287596388E-014
   77.9950000000000        -4.255539296236494E-014
   78.1850000000000        -2.147486365980032E-015
   78.3750000000000         3.451087271325414E-014
   78.5650000000000         6.241778821806392E-014
   78.7550000000000         8.454182388262007E-014
   78.9450000000000         8.950536096875708E-014
   79.1350000000000         9.720274189744791E-014
   79.3250000000000         9.831713398434968E-014
   79.5150000000000         1.055666750458022E-013
   79.7050000000000         1.211234174349852E-013
   79.8950000000000         1.394548633045491E-013
   80.0850000000000         1.391342523541154E-013
   80.2750000000000         1.009351400291241E-013
   80.4650000000000         4.494881669287170E-014
   80.6550000000000        -1.845197880996467E-014
   80.8450000000000        -9.643040767995302E-014
   81.0350000000000        -1.804987964331135E-013
   81.2250000000000        -2.676856542747403E-013
   81.4150000000000        -3.500591275966708E-013
   81.6050000000000        -4.183464526041310E-013
   81.7950000000000        -4.468414354166771E-013
   81.9850000000000        -4.763156074060341E-013
   82.1750000000000        -4.885546092540813E-013
   82.3650000000000        -5.016191477290010E-013
   82.5550000000000        -5.220105131579180E-013
   82.7450000000000        -5.240306193350114E-013
   82.9350000000000        -4.937528739804987E-013
   83.1250000000000        -4.529952283798541E-013
   83.3150000000000        -4.160045821349000E-013
   83.5050000000000        -3.886574156634624E-013
   83.6950000000000        -3.806377213253362E-013
   83.8850000000000        -3.502769523685800E-013
   84.0750000000000        -3.472137772757870E-013
   84.2650000000000        -3.381609858079592E-013
   84.4550000000000        -3.311136935314571E-013
   84.6450000000000        -3.234828356214660E-013
   84.8350000000000        -3.168955473338116E-013
   85.0250000000000        -3.078232849136594E-013
   85.2150000000000        -2.982537343863626E-013
   85.4050000000000        -2.896321641846344E-013
   85.5950000000000        -2.840890996826244E-013
   85.7850000000000        -2.849703239816723E-013
   85.9750000000000        -2.990523078814086E-013
   86.1650000000000        -3.194730212449224E-013
   86.3550000000000        -3.385733001477842E-013
   86.5450000000000        -3.553518143647632E-013
   86.7350000000000        -3.703666487242182E-013
   86.9250000000000        -3.829536969107880E-013
   87.1150000000000        -3.927019497003373E-013
   87.3050000000000        -4.015589348291106E-013
   87.4950000000000        -4.060847099500383E-013
   87.6850000000000        -4.065369530382365E-013
   87.8750000000000        -4.016922775078712E-013
   88.0650000000000        -3.929193872148016E-013
   88.2550000000000        -3.822777907744145E-013
   88.4450000000000        -3.717450759956779E-013
   88.6350000000000        -3.629921262549459E-013
   88.8250000000000        -3.583814737400082E-013
   89.0150000000000        -3.596939144884395E-013
   89.2050000000000        -3.673982386888631E-013
   89.3950000000000        -3.788648432151355E-013
   89.5850000000000        -3.736353020711181E-013
   89.7750000000000        -3.630765024344570E-013
   89.9650000000000        -3.440262082089812E-013
   90.1550000000000        -3.199856068848528E-013
   90.3450000000000        -2.959813255253110E-013
   90.5350000000000        -2.766015258940333E-013
   90.7250000000000        -2.613671492448539E-013
   90.9150000000000        -2.543199557224305E-013
   91.1050000000000        -2.532447224504005E-013
   91.2950000000000        -2.571839739920807E-013
   91.4850000000000        -2.608888619901102E-013
   91.6750000000000        -2.602881322102344E-013
   91.8650000000000        -2.498898291719806E-013
   92.0550000000000        -2.322553150000009E-013
   92.2450000000000        -2.133800841259090E-013
   92.4350000000000        -1.936009634650636E-013
   92.6250000000000        -1.700108783864683E-013
   92.8150000000000        -1.489744831571530E-013
   93.0050000000000        -1.286651799660689E-013
   93.1950000000000        -1.070054071147886E-013
   93.3850000000000        -8.394302054359708E-014
   93.5750000000000        -6.224448962778732E-014
   93.7650000000000        -6.726193971401466E-014
   93.9550000000000        -8.879317457817268E-014
   94.1450000000000        -1.183010152723362E-013
   94.3350000000000        -1.478153547648984E-013
   94.5250000000000        -1.653786841747972E-013
   94.7150000000000        -1.800537420006782E-013
   94.9050000000000        -1.982305145587008E-013
   95.0950000000000        -2.119441519355512E-013
   95.2850000000000        -2.321427236411696E-013
   95.4750000000000        -2.395514984388474E-013
   95.6650000000000        -2.662574956881646E-013
   95.8550000000000        -2.760531764400720E-013
   96.0450000000000        -2.872169400776901E-013
   96.2350000000000        -2.974048986434228E-013
   96.4250000000000        -3.040160845909977E-013
   96.6150000000000        -3.050476111029042E-013
   96.8050000000000        -2.994291356411091E-013
   96.9950000000000        -2.877590795761905E-013
   97.1850000000000        -2.729651682815743E-013
   97.3750000000000        -2.616036822306584E-013
   97.5650000000000        -2.504160723883744E-013
   97.7550000000000        -2.426600024356501E-013
   97.9450000000000        -2.380082408806391E-013
   98.1350000000000        -2.371650022806934E-013
   98.3250000000000        -2.410560984898287E-013
   98.5150000000000        -2.485039124129094E-013
   98.7050000000000        -2.575302334866168E-013
   98.8950000000000        -2.658040917776916E-013
   99.0850000000000        -2.715316824949735E-013
   99.2750000000000        -2.746393457224760E-013
   99.4650000000000        -2.680879929314402E-013
   99.6550000000000        -2.463054682097801E-013
   99.8450000000000        -2.015205271046376E-013
   100.035000000000        -1.463554463571041E-013
   100.225000000000        -8.473171260569663E-014
   100.415000000000        -1.547876451950401E-014
   100.605000000000         5.651511740194215E-014
   100.795000000000         1.190830501641767E-013
   100.985000000000         1.724497999903498E-013
   101.175000000000         1.844949846244408E-013
   101.365000000000         2.149001066151168E-013
   101.555000000000         2.197651865181966E-013
   101.745000000000         2.331452240048253E-013
   101.935000000000         2.578632139820380E-013
   102.125000000000         2.666078936697279E-013
   102.315000000000         2.171999834571780E-013
   102.505000000000         1.367331807824709E-013
   102.695000000000         3.595028364941772E-014
   102.885000000000        -6.191273328397194E-014
   103.075000000000        -1.534090644530690E-013
   103.265000000000        -2.437501205612948E-013
   103.455000000000        -3.082243790307195E-013
   103.645000000000        -3.642308443283019E-013
   103.835000000000        -3.990092983681559E-013
   104.025000000000        -4.277350591440244E-013
   104.215000000000        -4.376241988165575E-013
   104.405000000000        -4.472482736465821E-013
   104.595000000000        -4.552605095933686E-013
   104.785000000000        -4.617845640130809E-013
   104.975000000000        -4.648579121355954E-013
   105.165000000000        -4.616529528321085E-013
   105.355000000000        -4.536797196846489E-013
   105.545000000000        -4.440564414275718E-013
   105.735000000000        -4.341580019546355E-013
   105.925000000000        -4.260489358624269E-013
   106.115000000000        -4.215723544031542E-013
   106.305000000000        -4.143122985223761E-013
   106.495000000000        -4.122803920526430E-013
   106.685000000000        -3.992664609109695E-013
   106.875000000000        -3.904774506127245E-013
   107.065000000000        -3.733930557437500E-013
   107.255000000000        -3.550885002307029E-013
   107.445000000000        -3.380681839972964E-013
   107.635000000000        -3.246212057735271E-013
   107.825000000000        -3.176152776836352E-013
   108.015000000000        -3.184671061194758E-013
   108.205000000000        -3.252468847667227E-013
   108.395000000000        -3.332550490544223E-013
   108.585000000000        -3.401215505259819E-013
   108.775000000000        -3.456585392466680E-013
   108.965000000000        -3.446796970218540E-013
   109.155000000000        -3.446512327278445E-013
   109.345000000000        -3.313769160160155E-013
   109.535000000000        -3.196540055966628E-013
   109.725000000000        -3.046623333525261E-013
   109.915000000000        -2.899182184067557E-013
   110.105000000000        -2.760910761243941E-013