  -1.42500000000000         0.000000000000000E+000
  -1.23500000000000         2.958548900552825E-021
  -1.04500000000000        -2.101353658059200E-019
 -0.855000000000000        -2.049733530300046E-018
 -0.665000000000000        -1.117037413204043E-017
 -0.475000000000000        -4.754810448732524E-017
 -0.285000000000000        -1.647574566394598E-016
 -9.499999999999975E-002   -5.014624044425160E-016
  9.500000000000020E-002   -1.311240252604603E-015
  0.285000000000000        -3.035279472276411E-015
  0.475000000000000        -6.353175339815431E-015
  0.665000000000000        -1.216827568543403E-014
  0.855000000000000        -2.163615770809498E-014
   1.04500000000000        -3.611238113022523E-014
   1.23500000000000        -5.687072361824145E-014
   1.42500000000000        -8.549586100786185E-014
   1.61500000000000        -1.226492977785946E-013
   1.80500000000000        -1.692391725768698E-013
   1.99500000000000        -2.262854057295600E-013
   2.18500000000000        -2.946596539194629E-013
   2.37500000000000        -3.750911881205647E-013
   2.56500000000000        -4.681182885498318E-013
   2.75500000000000        -5.740459287574896E-013
   2.94500000000000        -6.929880062558711E-013
   3.13500000000000        -8.249161213322146E-013
   3.32500000000000        -9.697436891911283E-013
   3.51500000000000        -1.127412466472657E-012
   3.70500000000000        -1.297758696544804E-012
   3.89500000000000        -1.480708744623560E-012
   4.08500000000000        -1.676161664438203E-012
   4.27500000000000        -1.884024835938538E-012
   4.46500000000000        -2.104186398906934E-012
   4.65500000000000        -2.336454472260458E-012
   4.84500000000000        -2.580536766933572E-012
   5.03500000000000        -2.836015859740460E-012
   5.22500000000000        -3.102404713414851E-012
   5.41500000000000        -3.379606856887707E-012
   5.60500000000000        -3.667121653521895E-012
   5.79500000000000        -3.964427117103113E-012
   5.98500000000000        -4.270912563146820E-012
   6.17500000000000        -4.585862223990843E-012
   6.36500000000000        -4.908522404048055E-012
   6.55500000000000        -5.237894539055917E-012
   6.74500000000000        -5.573360614380682E-012
   6.93500000000000        -5.914388001173249E-012
   7.12500000000000        -6.260529112418747E-012
   7.31500000000000        -6.611622256213963E-012
   7.50500000000000        -6.968403374161122E-012
   7.69500000000000        -7.331808190108240E-012
   7.88500000000000        -7.703063600541182E-012
   8.07500000000000        -8.083516655337905E-012
   8.26500000000000        -8.474526937702390E-012
   8.45500000000000        -8.876971389505421E-012
   8.64500000000000        -9.291759779108910E-012
   8.83500000000000        -9.719831210606675E-012
   9.02500000000000        -1.016196172553907E-011
   9.21500000000000        -1.061917703966679E-011
   9.40500000000000        -1.109179757802767E-011
   9.59500000000000        -1.157856703277894E-011
   9.78500000000000        -1.207775793259215E-011
   9.97500000000000        -1.258757648790028E-011
   10.1650000000000        -1.310615380698238E-011
   10.3550000000000        -1.363212722341438E-011
   10.5450000000000        -1.416473306859868E-011
   10.7350000000000        -1.470308976057117E-011
   10.9250000000000        -1.524703155719181E-011
   11.1150000000000        -1.579644444024415E-011
   11.3050000000000        -1.635113464910816E-011
   11.4950000000000        -1.691079334958421E-011
   11.6850000000000        -1.747502961205502E-011
   11.8750000000000        -1.804345125003300E-011
   12.0650000000000        -1.861576617083101E-011
   12.2550000000000        -1.919184121690790E-011
   12.4450000000000        -1.977168922330850E-011
   12.6350000000000        -2.035547492867798E-011
   12.8250000000000        -2.094328283269121E-011
   13.0150000000000        -2.153539185451207E-011
   13.2050000000000        -2.213203719408594E-011
   13.3950000000000        -2.273341553523186E-011
   13.5850000000000        -2.333969213379346E-011
   13.7750000000000        -2.395080106237777E-011
   13.9650000000000        -2.456645508047072E-011
   14.1550000000000        -2.518627820263417E-011
   14.3450000000000        -2.581012654615404E-011
   14.5350000000000        -2.643766413545226E-011
   14.7250000000000        -2.706877366520084E-011
   14.9150000000000        -2.770328970839650E-011
   15.1050000000000        -2.834103223652440E-011
   15.2950000000000        -2.898202741216199E-011
   15.4850000000000        -2.962673114581162E-011
   15.6750000000000        -3.027602206427513E-011
   15.8650000000000        -3.093062321687083E-011
   16.0550000000000        -3.159132479563537E-011
   16.2450000000000        -3.225898334998759E-011
   16.4350000000000        -3.293434098522165E-011
   16.6250000000000        -3.361795879606001E-011
   16.8150000000000        -3.431029740138000E-011
   17.0050000000000        -3.501179420402377E-011
   17.1950000000000        -3.572258707230040E-011
   17.3850000000000        -3.644302768534914E-011
   17.5750000000000        -3.717325848845334E-011
   17.7650000000000        -3.791357125297287E-011
   17.9550000000000        -3.866408075154969E-011
   18.1450000000000        -3.942490966363743E-011
   18.3350000000000        -4.019614613034855E-011
   18.5250000000000        -4.097787204917373E-011
   18.7150000000000        -4.177018137469168E-011
   18.9050000000000        -4.257321772591054E-011
   19.0950000000000        -4.338711851375289E-011
   19.2850000000000        -4.421198601656887E-011
   19.4750000000000        -4.504788292252444E-011
   19.6650000000000        -4.589480641866627E-011
   19.8550000000000        -4.675264380566967E-011
   20.0450000000000        -4.762117843831331E-011
   20.2350000000000        -4.850011774416386E-011
   20.4250000000000        -4.938910582994127E-011
   20.6150000000000        -5.028772162027310E-011
   20.8050000000000        -5.119542598902147E-011
   20.9950000000000        -5.211159475753180E-011
   21.1850000000000        -5.303560411425294E-011
   21.3750000000000        -5.396726856625280E-011
   21.5650000000000        -5.490595856199782E-011
   21.7550000000000        -5.585153666388064E-011
   21.9450000000000        -5.680375900716113E-011
   22.1350000000000        -5.776231595186122E-011
   22.3250000000000        -5.872701664083962E-011
   22.5150000000000        -5.969814182841613E-011
   22.7050000000000        -6.067665356724339E-011
   22.8950000000000        -6.166390858758753E-011
   23.0850000000000        -6.266144480100111E-011
   23.2750000000000        -6.367085887376215E-011
   23.4650000000000        -6.469362116088406E-011
   23.6550000000000        -6.573073853495745E-011
   23.8450000000000        -6.678340936568410E-011
   24.0350000000000        -6.785283307413454E-011
   24.2250000000000        -6.893998625733939E-011
   24.4150000000000        -7.004560470950625E-011
   24.6050000000000        -7.117019548162799E-011
   24.7950000000000        -7.231419241668725E-011
   24.9850000000000        -7.347736837435737E-011
   25.1750000000000        -7.465945085001041E-011
   25.3650000000000        -7.585995340135706E-011
   25.5550000000000        -7.707820523241248E-011
   25.7450000000000        -7.831360571577500E-011
   25.9350000000000        -7.956502117091315E-011
   26.1250000000000        -8.083127135531583E-011
   26.3150000000000        -8.211136769717099E-011
   26.5050000000000        -8.340451503072427E-011
   26.6950000000000        -8.470985262215759E-011
   26.8850000000000        -8.602664259675624E-011
   27.0750000000000        -8.735416803064640E-011
   27.2650000000000        -8.869164349007355E-011
   27.4550000000000        -9.003834598832042E-011
   27.6450000000000        -9.139387090581202E-011
   27.8350000000000        -9.275807162202129E-011
   28.0250000000000        -9.413094570093549E-011
   28.2150000000000        -9.551258203635362E-011
   28.4050000000000        -9.690306662703292E-011
   28.5950000000000        -9.830246600851801E-011
   28.7850000000000        -9.971046786952601E-011
   28.9750000000000        -1.011260638173745E-010
   29.1650000000000        -1.025477358826425E-010
   29.3550000000000        -1.039733287653306E-010
   29.5450000000000        -1.053997840176148E-010
   29.7350000000000        -1.068241561409261E-010
   29.9250000000000        -1.082436069063691E-010
   30.1150000000000        -1.096555394986326E-010
   30.3050000000000        -1.110576291153226E-010
   30.4950000000000        -1.124483427644689E-010
   30.6850000000000        -1.138266875148344E-010
   30.8750000000000        -1.151924130957152E-010
   31.0650000000000        -1.165452364441533E-010
   31.2550000000000        -1.178855428298758E-010
   31.4450000000000        -1.192148209791653E-010
   31.6350000000000        -1.205356919519791E-010
   31.8250000000000        -1.218509298644830E-010
   32.0150000000000        -1.231634725891267E-010
   32.2050000000000        -1.244759862984062E-010
   32.3950000000000        -1.257906890275184E-010
   32.5850000000000        -1.271102388064705E-010
   32.7750000000000        -1.284362916783904E-010
   32.9650000000000        -1.297698609396349E-010
   33.1550000000000        -1.311118748405626E-010
   33.3450000000000        -1.324627969649829E-010
   33.5350000000000        -1.338231371181313E-010
   33.7250000000000        -1.351934353231534E-010
   33.9150000000000        -1.365741692624255E-010
   34.1050000000000        -1.379655689696656E-010
   34.2950000000000        -1.393673247500261E-010
   34.4850000000000        -1.407786577467153E-010
   34.6750000000000        -1.421988428860259E-010
   34.8650000000000        -1.436270294351839E-010
   35.0550000000000        -1.450623129889899E-010
   35.2450000000000        -1.465037815928330E-010
   35.4350000000000        -1.479505127342058E-010
   35.6250000000000        -1.494019866579958E-010
   35.8150000000000        -1.508582488083208E-010
   36.0050000000000        -1.523198089106060E-010
   36.1950000000000        -1.537873687882040E-010
   36.3850000000000        -1.552617614917818E-010
   36.5750000000000        -1.567431704134860E-010
   36.7650000000000        -1.582322156605820E-010
   36.9550000000000        -1.597291187302732E-010
   37.1450000000000        -1.612343006208921E-010
   37.3350000000000        -1.627480907342178E-010
   37.5250000000000        -1.642706846788097E-010
   37.7150000000000        -1.658021454766587E-010
   37.9050000000000        -1.673424585115150E-010
   38.0950000000000        -1.688915605251386E-010
   38.2850000000000        -1.704493968366231E-010
   38.4750000000000        -1.720159432306429E-010
   38.6650000000000        -1.735915991370785E-010
   38.8550000000000        -1.751776114201310E-010
   39.0450000000000        -1.767761540756588E-010
   39.2350000000000        -1.783894575127909E-010
   39.4250000000000        -1.800198971572822E-010
   39.6150000000000        -1.816695712741801E-010
   39.8050000000000        -1.833403649940514E-010
   39.9950000000000        -1.850342340558596E-010
   40.1850000000000        -1.867519207067921E-010
   40.3750000000000        -1.884942308361907E-010
   40.5650000000000        -1.902614010128505E-010
   40.7550000000000        -1.920538502478703E-010
   40.9450000000000        -1.938721650256253E-010
   41.1350000000000        -1.957170325810177E-010
   41.3250000000000        -1.975887545579157E-010
   41.5150000000000        -1.994865110029565E-010
   41.7050000000000        -2.014084664241789E-010
   41.8950000000000        -2.033525756111146E-010
   42.0850000000000        -2.053164424630083E-010
   42.2750000000000        -2.072973251004698E-010
   42.4650000000000        -2.092925934249463E-010
   42.6550000000000        -2.112998888499024E-010
   42.8450000000000        -2.133171601799773E-010
   43.0350000000000        -2.153423702166345E-010
   43.2250000000000        -2.173739276937466E-010
   43.4150000000000        -2.194107502994552E-010
   43.6050000000000        -2.214513955219807E-010
   43.7950000000000        -2.234954459061733E-010
   43.9850000000000        -2.255423069036633E-010
   44.1750000000000        -2.275914608135247E-010
   44.3650000000000        -2.296422568955166E-010
   44.5550000000000        -2.316938360251767E-010
   44.7450000000000        -2.337452701981982E-010
   44.9350000000000        -2.357963663929368E-010
   45.1250000000000        -2.378486784545078E-010
   45.3150000000000        -2.399047008481616E-010
   45.5050000000000        -2.419674672669092E-010
   45.6950000000000        -2.440397469742666E-010
   45.8850000000000        -2.461235359776460E-010
   46.0750000000000        -2.482208936639484E-010
   46.2650000000000        -2.503323348321921E-010
   46.4550000000000        -2.524583420999912E-010
   46.6450000000000        -2.545992431397410E-010
   46.8350000000000        -2.567555188839916E-010
   47.0250000000000        -2.589275799817620E-010
   47.2150000000000        -2.611146501172135E-010
   47.4050000000000        -2.633149451227859E-010
   47.5950000000000        -2.655261254980399E-010
   47.7850000000000        -2.677458721269289E-010
   47.9750000000000        -2.699719434241591E-010
   48.1650000000000        -2.722022449433008E-010
   48.3550000000000        -2.744350532884292E-010
   48.5450000000000        -2.766692348584669E-010
   48.7350000000000        -2.789041274263268E-010
   48.9250000000000        -2.811390560810564E-010
   49.1150000000000        -2.833736076217704E-010
   49.3050000000000        -2.856073856095680E-010
   49.4950000000000        -2.878396309020817E-010
   49.6850000000000        -2.900697218207274E-010
   49.8750000000000        -2.922985970556496E-010
   50.0650000000000        -2.945283451390650E-010
   50.2550000000000        -2.967611531827581E-010
   50.4450000000000        -2.989998422483691E-010
   50.6350000000000        -3.012473199235934E-010
   50.8250000000000        -3.035045433737828E-010
   51.0150000000000        -3.057734866878940E-010
   51.2050000000000        -3.080544323902791E-010
   51.3950000000000        -3.103478617149035E-010
   51.5850000000000        -3.126545956570777E-010
   51.7750000000000        -3.149758218556566E-010
   51.9650000000000        -3.173118875319396E-010
   52.1550000000000        -3.196617315001080E-010
   52.3450000000000        -3.220228717466563E-010
   52.5350000000000        -3.243933896235474E-010
   52.7250000000000        -3.267711888455104E-010
   52.9150000000000        -3.291547275470908E-010
   53.1050000000000        -3.315432391647335E-010
   53.2950000000000        -3.339360128917769E-010
   53.4850000000000        -3.363325348220596E-010
   53.6750000000000        -3.387325385235357E-010
   53.8650000000000        -3.411363852878593E-010
   54.0550000000000        -3.435448854237551E-010
   54.2450000000000        -3.459593390276523E-010
   54.4350000000000        -3.483813363029891E-010
   54.6250000000000        -3.508127314537681E-010
   54.8150000000000        -3.532553101250771E-010
   55.0050000000000        -3.557107209417359E-010
   55.1950000000000        -3.581802387384334E-010
   55.3850000000000        -3.606646991451375E-010
   55.5750000000000        -3.631650489433829E-010
   55.7650000000000        -3.656818185838144E-010
   55.9550000000000        -3.682155600109123E-010
   56.1450000000000        -3.707669145015561E-010
   56.3350000000000        -3.733363103899239E-010
   56.5250000000000        -3.759233707054912E-010
   56.7150000000000        -3.785272260223172E-010
   56.9050000000000        -3.811463351702098E-010
   57.0950000000000        -3.837787007882481E-010
   57.2850000000000        -3.864230476617324E-010
   57.4750000000000        -3.890780899974029E-010
   57.6650000000000        -3.917423888069857E-010
   57.8550000000000        -3.944144053609606E-010
   58.0450000000000        -3.970929335005558E-010
   58.2350000000000        -3.997773307000443E-010
   58.4250000000000        -4.024670897013445E-010
   58.6150000000000        -4.051617786780533E-010
   58.8050000000000        -4.078611310572137E-010
   58.9950000000000        -4.105649690728118E-010
   59.1850000000000        -4.132731343254034E-010
   59.3750000000000        -4.159854923870154E-010
   59.5650000000000        -4.187019087650448E-010
   59.7550000000000        -4.214222677161251E-010
   59.9450000000000        -4.241465349782910E-010
   60.1350000000000        -4.268747997879679E-010
   60.3250000000000        -4.296073320867018E-010
   60.5150000000000        -4.323446245167930E-010
   60.7050000000000        -4.350872712904707E-010
   60.8950000000000        -4.378357274727881E-010
   61.0850000000000        -4.405903359765685E-010
   61.2750000000000        -4.433503709686220E-010
   61.4650000000000        -4.461152887951883E-010
   61.6550000000000        -4.488838167459941E-010
   61.8450000000000        -4.516552219720512E-010
   62.0350000000000        -4.544288407170193E-010
   62.2250000000000        -4.572037023593275E-010
   62.4150000000000        -4.599794441882678E-010
   62.6050000000000        -4.627556000641857E-010
   62.7950000000000        -4.655317733707766E-010
   62.9850000000000        -4.683079203673856E-010
   63.1750000000000        -4.710838904031958E-010
   63.3650000000000        -4.738595214379681E-010
   63.5550000000000        -4.766346372710215E-010
   63.7450000000000        -4.794091043293042E-010
   63.9350000000000        -4.821829563931242E-010
   64.1250000000000        -4.849564506259766E-010
   64.3150000000000        -4.877300375532643E-010
   64.5050000000000        -4.905043347249341E-010
   64.6950000000000        -4.932800235020975E-010
   64.8850000000000        -4.960578395991022E-010
   65.0750000000000        -4.988384680721694E-010
   65.2650000000000        -5.016225194849024E-010
   65.4550000000000        -5.044105748983041E-010
   65.6450000000000        -5.072030947904555E-010
   65.8350000000000        -5.100006114599144E-010
   66.0250000000000        -5.128036842025673E-010
   66.2150000000000        -5.156128135320806E-010
   66.4050000000000        -5.184284268427635E-010
   66.5950000000000        -5.212508660655633E-010
   66.7850000000000        -5.240802412692655E-010
   66.9750000000000        -5.269166556679455E-010
   67.1650000000000        -5.297600370392763E-010
   67.3550000000000        -5.326102724746649E-010
   67.5450000000000        -5.354672657465851E-010
   67.7350000000000        -5.383309863970910E-010
   67.9250000000000        -5.412014782335612E-010
   68.1150000000000        -5.440788069769703E-010
   68.3050000000000        -5.469630523196009E-010
   68.4950000000000        -5.498543112108742E-010
   68.6850000000000        -5.527526944014247E-010
   68.8750000000000        -5.556583618836777E-010
   69.0650000000000        -5.585715619381636E-010
   69.2550000000000        -5.614926618147372E-010
   69.4450000000000        -5.644221427515705E-010
   69.6350000000000        -5.673605746375167E-010
   69.8250000000000        -5.703085240767379E-010
   70.0150000000000        -5.732663758953671E-010
   70.2050000000000        -5.762345236651548E-010
   70.3950000000000        -5.792133322292276E-010
   70.5850000000000        -5.822032899557954E-010
   70.7750000000000        -5.852049148172206E-010
   70.9650000000000        -5.882189320125237E-010
   71.1550000000000        -5.912461111903658E-010
   71.3450000000000        -5.942876514933922E-010
   71.5350000000000        -5.973445454654303E-010
   71.7250000000000        -6.004181900726748E-010
   71.9150000000000        -6.035092621466571E-010
   72.1050000000000        -6.066189430853896E-010
   72.2950000000000        -6.097475718384768E-010
   72.4850000000000        -6.128954618060253E-010
   72.6750000000000        -6.160627985029437E-010
   72.8650000000000        -6.192496385252257E-010
   73.0550000000000        -6.224562322611784E-010
   73.2450000000000        -6.256828744239348E-010
   73.4350000000000        -6.289299638743474E-010
   73.6250000000000        -6.321979913323442E-010
   73.8150000000000        -6.354872351004919E-010
   74.0050000000000        -6.387974297610704E-010
   74.1950000000000        -6.421274779232093E-010
   74.3850000000000        -6.454756914479502E-010
   74.5750000000000        -6.488398950365908E-010
   74.7650000000000        -6.522177250962823E-010
   74.9550000000000        -6.556067582876336E-010
   75.1450000000000        -6.590047791855701E-010
   75.3350000000000        -6.624102333830787E-010
   75.5250000000000        -6.658225827871453E-010
   75.7150000000000        -6.692405034715390E-010
   75.9050000000000        -6.726638197243933E-010
   76.0950000000000        -6.760923043369715E-010
   76.2850000000000        -6.795256124351822E-010
   76.4750000000000        -6.829633993418643E-010
   76.6650000000000        -6.864055202499504E-010
   76.8550000000000        -6.898520116343114E-010
   77.0450000000000        -6.933029255381763E-010
   77.2350000000000        -6.967583340907596E-010
   77.4250000000000        -7.002183790037430E-010
   77.6150000000000        -7.036830863716178E-010
   77.8050000000000        -7.071518258577311E-010
   77.9950000000000        -7.106234236401462E-010
   78.1850000000000        -7.140965576722470E-010
   78.3750000000000        -7.175697692286059E-010
   78.5650000000000        -7.210417349424599E-010
   78.7550000000000        -7.245114473741588E-010
   78.9450000000000        -7.279781078460159E-010
   79.1350000000000        -7.314415371743421E-010
   79.3250000000000        -7.349014574836858E-010
   79.5150000000000        -7.383578285444923E-010
   79.7050000000000        -7.418103886483299E-010
   79.8950000000000        -7.452585761967980E-010
   80.0850000000000        -7.487017294247009E-010
   80.2750000000000        -7.521398599060937E-010
   80.4650000000000        -7.555743466289317E-010
   80.6550000000000        -7.590072106994872E-010
   80.8450000000000        -7.624407408864774E-010
   81.0350000000000        -7.658777522111846E-010
   81.2250000000000        -7.693212795424435E-010
   81.4150000000000        -7.727744703258217E-010
   81.6050000000000        -7.762402982437060E-010
   81.7950000000000        -7.797212284685291E-010
   81.9850000000000        -7.832182896691709E-010
   82.1750000000000        -7.867325458632401E-010
   82.3650000000000        -7.902644388787034E-010
   82.5550000000000        -7.938144403453995E-010
   82.7450000000000        -7.973832863916209E-010
   82.9350000000000        -8.009710499432002E-010
   83.1250000000000        -8.045766379735302E-010
   83.3150000000000        -8.081985791316045E-010
   83.5050000000000        -8.118355380550941E-010
   83.6950000000000        -8.154865275112892E-010
   83.8850000000000        -8.191512579892242E-010
   84.0750000000000        -8.228286334651393E-010
   84.2650000000000        -8.265185433584144E-010
   84.4550000000000        -8.302206608632771E-010
   84.6450000000000        -8.339347315724765E-010
   84.8350000000000        -8.376604800120413E-010
   85.0250000000000        -8.413976683808652E-010
   85.2150000000000        -8.451459691702743E-010
   85.4050000000000        -8.489050369194951E-010
   85.5950000000000        -8.526745603898428E-010
   85.7850000000000        -8.564543394766890E-010
   85.9750000000000        -8.602444059922311E-010
   86.1650000000000        -8.640452682960873E-010
   86.3550000000000        -8.678576635760109E-010
   86.5450000000000        -8.716822813520696E-010
   86.7350000000000        -8.755197273286269E-010
   86.9250000000000        -8.793705435412034E-010
   87.1150000000000        -8.832351843822379E-010
   87.3050000000000        -8.871140017636569E-010
   87.4950000000000        -8.910073154226231E-010
   87.6850000000000        -8.949152887396184E-010
   87.8750000000000        -8.988379380406186E-010
   88.0650000000000        -9.027750884328369E-010
   88.2550000000000        -9.067264232149333E-010
   88.4450000000000        -9.106915582252771E-010
   88.6350000000000        -9.146701132328642E-010
   88.8250000000000        -9.186617722562089E-010
   89.0150000000000        -9.226663688507559E-010
   89.2050000000000        -9.266839503956156E-010
   89.3950000000000        -9.307147950168919E-010
   89.5850000000000        -9.347593166590087E-010
   89.7750000000000        -9.388173265355302E-010
   89.9650000000000        -9.428884434737896E-010
   90.1550000000000        -9.469719797581651E-010
   90.3450000000000        -9.510670675229490E-010
   90.5350000000000        -9.551728402135846E-010
   90.7250000000000        -9.592885982193052E-010
   90.9150000000000        -9.634137915791132E-010
   91.1050000000000        -9.675481658893228E-010
   91.2950000000000        -9.716916823340130E-010
   91.4850000000000        -9.758444831201643E-010
   91.6750000000000        -9.800067019942334E-010
   91.8650000000000        -9.841783172698753E-010
   92.0550000000000        -9.883589535683504E-010
   92.2450000000000        -9.925479742836972E-010
   92.4350000000000        -9.967446980200804E-010
   92.6250000000000        -1.000948410751245E-009
   92.8150000000000        -1.005158260875119E-009
   93.0050000000000        -1.009373488977835E-009
   93.1950000000000        -1.013593361893548E-009
   93.3850000000000        -1.017817097704458E-009
   93.5750000000000        -1.022043863858410E-009
   93.7650000000000        -1.026272877038437E-009
   93.9550000000000        -1.030504318374487E-009
   94.1450000000000        -1.034738965144140E-009
   94.3350000000000        -1.038977882580445E-009
   94.5250000000000        -1.043222136151056E-009
   94.7150000000000        -1.047472359892167E-009
   94.9050000000000        -1.051729083573363E-009
   95.0950000000000        -1.055992963376135E-009
   95.2850000000000        -1.060264494362791E-009
   95.4750000000000        -1.064544405701771E-009
   95.6650000000000        -1.068832964849845E-009
   95.8550000000000        -1.073131135893513E-009
   96.0450000000000        -1.077439272456851E-009
   96.2350000000000        -1.081757777551726E-009
   96.4250000000000        -1.086087018963441E-009
   96.6150000000000        -1.090427235355810E-009
   96.8050000000000        -1.094778463966940E-009
   96.9950000000000        -1.099140501969867E-009
   97.1850000000000        -1.103512928075567E-009
   97.3750000000000        -1.107895208223841E-009
   97.5650000000000        -1.112286932265044E-009
   97.7550000000000        -1.116687696326460E-009
   97.9450000000000        -1.121097220413964E-009
   98.1350000000000        -1.125515336598964E-009
   98.3250000000000        -1.129942014440546E-009
   98.5150000000000        -1.134377394407284E-009
   98.7050000000000        -1.138821745365259E-009
   98.8950000000000        -1.143275393164664E-009
   99.0850000000000        -1.147738636491782E-009
   99.2750000000000        -1.152211682112637E-009
   99.4650000000000        -1.156694642213874E-009
   99.6550000000000        -1.161187280291655E-009
   99.8450000000000        -1.165688809996839E-009
   100.035000000000        -1.170197614593051E-009
   100.225000000000        -1.174711702620876E-009
   100.415000000000        -1.179228849463527E-009
   100.605000000000        -1.183746555089577E-009
   100.795000000000        -1.188262220519889E-009
   100.985000000000        -1.192773587052089E-009
   101.175000000000        -1.197278728146510E-009
   101.365000000000        -1.201777208971986E-009
   101.555000000000        -1.206267931903614E-009
   101.745000000000        -1.210750721312008E-009
   101.935000000000        -1.215225094177815E-009
   102.125000000000        -1.219690158181598E-009
   102.315000000000        -1.224145597640419E-009
   102.505000000000        -1.228593196179837E-009
   102.695000000000        -1.233035858651430E-009
   102.885000000000        -1.237477223317782E-009
   103.075000000000        -1.241920823033806E-009
   103.265000000000        -1.246369960817056E-009
   103.455000000000        -1.250827897979659E-009
   103.645000000000        -1.255296962042345E-009
   103.835000000000        -1.259779174838511E-009
   104.025000000000        -1.264275791870349E-009
   104.215000000000        -1.268787850137821E-009
   104.405000000000        -1.273315706638871E-009
   104.595000000000        -1.277859708802599E-009
   104.785000000000        -1.282420145870724E-009
   104.975000000000        -1.286997253361609E-009
   105.165000000000        -1.291591142223123E-009
   105.355000000000        -1.296201696756234E-009
   105.545000000000        -1.300828629127225E-009
   105.735000000000        -1.305471591935752E-009
   105.925000000000        -1.310130227848150E-009
   106.115000000000        -1.314804244127132E-009
   106.305000000000        -1.319493479168108E-009
   106.495000000000        -1.324197670883061E-009
   106.685000000000        -1.328916745920166E-009
   106.875000000000        -1.333650234476511E-009
   107.065000000000        -1.338397819268823E-009
   107.255000000000        -1.343158883550448E-009
   107.445000000000        -1.347932766526930E-009
   107.635000000000        -1.352718853764855E-009
   107.825000000000        -1.357516659828308E-009
   108.015000000000        -1.362325931803286E-009
   108.205000000000        -1.367146700440795E-009
   108.395000000000        -1.371979210490843E-009
   108.585000000000        -1.376823751048163E-009
   108.775000000000        -1.381680569993457E-009
   108.965000000000        -1.386549867212017E-009
   109.155000000000        -1.391431607367639E-009
   109.345000000000        -1.396325789432764E-009
   109.535000000000        -1.401231934204556E-009
   109.725000000000        -1.406149618485951E-009
   109.915000000000        -1.411078301077579E-009
   110.105000000000        -1.416017449716892E-009