  -1.42500000000000        -9.118619464310405E-019
  -1.23500000000000         2.842843879219335E-018
  -1.04500000000000         1.975948333507451E-017
 -0.855000000000000         5.778488112778602E-017
 -0.665000000000000         3.229245151007852E-016
 -0.475000000000000         8.792951657288584E-016
 -0.285000000000000         2.580174398471340E-015
 -9.499999999999975E-002    8.462830267352030E-015
  9.500000000000020E-002    1.720166532169366E-014
  0.285000000000000         2.943927327967569E-014
  0.475000000000000         5.537666621987429E-014
  0.665000000000000         5.921433543076800E-014
  0.855000000000000         8.792305081268221E-014
   1.04500000000000         1.334528167948194E-013
   1.23500000000000         2.547767154291563E-013
   1.42500000000000         2.058138803738864E-013
   1.61500000000000         2.437230103351685E-013
   1.80500000000000         2.915579527600071E-013
   1.99500000000000         3.478465620061312E-013
   2.18500000000000         4.068543299182914E-013
   2.37500000000000         4.663346930784131E-013
   2.56500000000000         5.230889871301415E-013
   2.75500000000000         5.781174268290585E-013
   2.94500000000000         6.317197843766644E-013
   3.13500000000000         6.782994168457266E-013
   3.32500000000000         6.844887725490027E-013
   3.51500000000000         7.034523859232261E-013
   3.70500000000000         7.109396333863843E-013
   3.89500000000000         7.186902864868696E-013
   4.08500000000000         7.239609160581814E-013
   4.27500000000000         7.281202809604500E-013
   4.46500000000000         7.288151861541177E-013
   4.65500000000000         7.184035920988586E-013
   4.84500000000000         6.972826166571046E-013
   5.03500000000000         6.729951566040318E-013
   5.22500000000000         6.725261417803138E-013
   5.41500000000000         6.447730622464933E-013
   5.60500000000000         6.031778491463841E-013
   5.79500000000000         5.691515571067963E-013
   5.98500000000000         5.298160605433392E-013
   6.17500000000000         4.679838272206056E-013
   6.36500000000000         3.507260409360403E-013
   6.55500000000000         3.469708300763963E-013
   6.74500000000000         3.214771291689933E-013
   6.93500000000000         2.397970446939602E-013
   7.12500000000000         2.127608842606241E-013
   7.31500000000000         1.816768999311114E-013
   7.50500000000000         1.610932700602366E-013
   7.69500000000000         1.717611543695481E-013
   7.88500000000000         1.885584327435837E-013
   8.07500000000000         2.143630776698537E-013
   8.26500000000000         2.041944914190167E-013
   8.45500000000000         2.193531204590801E-013
   8.64500000000000         2.468870365959730E-013
   8.83500000000000         2.804771060197054E-013
   9.02500000000000         3.906904640556468E-013
   9.21500000000000         4.160802998291052E-013
   9.40500000000000         4.167829473657911E-013
   9.59500000000000         4.182831712523592E-013
   9.78500000000000         4.736171028643801E-013
   9.97500000000000         5.048293592932035E-013
   10.1650000000000         4.813526978021533E-013
   10.3550000000000         4.858156957031709E-013
   10.5450000000000         4.973908074147249E-013
   10.7350000000000         5.070281264883053E-013
   10.9250000000000         5.167246623259230E-013
   11.1150000000000         5.232386524501592E-013
   11.3050000000000         5.269772221085305E-013
   11.4950000000000         5.327814191477149E-013
   11.6850000000000         5.408626388620699E-013
   11.8750000000000         5.498443309916715E-013
   12.0650000000000         5.571140564818966E-013
   12.2550000000000         5.598961507279148E-013
   12.4450000000000         5.557629076446915E-013
   12.6350000000000         5.522638166414812E-013
   12.8250000000000         5.432673986422822E-013
   13.0150000000000         5.121368041538038E-013
   13.2050000000000         4.926059054377055E-013
   13.3950000000000         4.573571083045668E-013
   13.5850000000000         4.142430287127787E-013
   13.7750000000000         3.613003788169086E-013
   13.9650000000000         3.129566224559816E-013
   14.1550000000000         2.830092650001434E-013
   14.3450000000000         2.605511635378993E-013
   14.5350000000000         2.439954875067011E-013
   14.7250000000000         2.315366250579409E-013
   14.9150000000000         2.291966921945737E-013
   15.1050000000000         2.323371273593584E-013
   15.2950000000000         2.656059485470336E-013
   15.4850000000000         3.328918902563487E-013
   15.6750000000000         3.351077988698392E-013
   15.8650000000000         3.677502304557324E-013
   16.0550000000000         4.226334081915813E-013
   16.2450000000000         4.372622257301289E-013
   16.4350000000000         4.683703785627668E-013
   16.6250000000000         5.029881101658534E-013
   16.8150000000000         5.365876539168543E-013
   17.0050000000000         5.450056086877857E-013
   17.1950000000000         5.596947011707022E-013
   17.3850000000000         5.687947903354367E-013
   17.5750000000000         5.904084435797134E-013
   17.7650000000000         6.011508402308414E-013
   17.9550000000000         6.163397507236951E-013
   18.1450000000000         6.267554500703123E-013
   18.3350000000000         6.346767091586773E-013
   18.5250000000000         6.424169297017553E-013
   18.7150000000000         6.502360716858771E-013
   18.9050000000000         6.412096342089985E-013
   19.0950000000000         6.219583997317507E-013
   19.2850000000000         5.904448888174603E-013
   19.4750000000000         5.507381232856960E-013
   19.6650000000000         5.011184786450678E-013
   19.8550000000000         4.478065364846726E-013
   20.0450000000000         3.917558599857113E-013
   20.2350000000000         3.378772835170053E-013
   20.4250000000000         2.897768097903267E-013
   20.6150000000000         2.445728971504759E-013
   20.8050000000000         2.046801299309391E-013
   20.9950000000000         1.728063486206907E-013
   21.1850000000000         1.474457576167180E-013
   21.3750000000000         1.257769504997556E-013
   21.5650000000000         1.165928434637378E-013
   21.7550000000000         1.130141626050603E-013
   21.9450000000000         9.795688838716796E-014
   22.1350000000000         8.900808114027007E-014
   22.3250000000000         1.112123686601050E-013
   22.5150000000000         1.396429521568936E-013
   22.7050000000000         1.765008608691037E-013
   22.8950000000000         2.141812046799458E-013
   23.0850000000000         2.431754381052822E-013
   23.2750000000000         3.145132838610395E-013
   23.4650000000000         2.655157319250929E-013
   23.6550000000000         3.240632287587988E-013
   23.8450000000000         3.930621314510626E-013
   24.0350000000000         4.447224815476632E-013
   24.2250000000000         5.169971619114626E-013
   24.4150000000000         5.919648222596617E-013
   24.6050000000000         7.426438541322259E-013
   24.7950000000000         6.806225375626987E-013
   24.9850000000000         7.551462605896883E-013
   25.1750000000000         7.349410718930457E-013
   25.3650000000000         7.480693130079801E-013
   25.5550000000000         7.515907166768834E-013
   25.7450000000000         7.483816004387110E-013
   25.9350000000000         7.408151344852206E-013
   26.1250000000000         7.270320877855967E-013
   26.3150000000000         7.077703487507408E-013
   26.5050000000000         6.917168543442891E-013
   26.6950000000000         6.751699497626890E-013
   26.8850000000000         6.546794950354323E-013
   27.0750000000000         6.231141920128548E-013
   27.2650000000000         5.903827783588849E-013
   27.4550000000000         5.571915746084565E-013
   27.6450000000000         5.187728238474675E-013
   27.8350000000000         5.008112236461495E-013
   28.0250000000000         4.575275611520639E-013
   28.2150000000000         4.232203230676891E-013
   28.4050000000000         3.814006013262107E-013
   28.5950000000000         2.698334873461124E-013
   28.7850000000000         2.399054854176432E-013
   28.9750000000000         2.141912551705141E-013
   29.1650000000000         2.023315612027601E-013
   29.3550000000000         1.525628466745462E-013
   29.5450000000000         1.086283824133692E-013
   29.7350000000000         8.982053452707192E-014
   29.9250000000000         7.181416924013855E-014
   30.1150000000000         6.825965519119277E-014
   30.3050000000000         5.540253699675831E-014
   30.4950000000000         1.080789896231727E-013
   30.6850000000000         9.323303199196709E-014
   30.8750000000000         1.657905872532467E-013
   31.0650000000000         1.471079049233739E-013
   31.2550000000000         2.340828543707648E-013
   31.4450000000000         3.442809820940057E-013
   31.6350000000000         4.337459759921770E-013
   31.8250000000000         5.026247310956836E-013
   32.0150000000000         5.351559879791906E-013
   32.2050000000000         6.172238919661856E-013
   32.3950000000000         7.288112084202367E-013
   32.5850000000000         7.545613764139222E-013
   32.7750000000000         7.414292773461866E-013
   32.9650000000000         7.686193724308401E-013
   33.1550000000000         7.915826169986423E-013
   33.3450000000000         7.975737323891734E-013
   33.5350000000000         8.164881781911682E-013
   33.7250000000000         8.269589319202750E-013
   33.9150000000000         8.293341578489764E-013
   34.1050000000000         8.169480001740466E-013
   34.2950000000000         7.863768803615253E-013
   34.4850000000000         7.441409222857306E-013
   34.6750000000000         7.003832066004140E-013
   34.8650000000000         6.611090670257572E-013
   35.0550000000000         6.171051167212585E-013
   35.2450000000000         5.664493141418463E-013
   35.4350000000000         4.763737704908724E-013
   35.6250000000000         4.193860453560312E-013
   35.8150000000000         3.723306361222457E-013
   36.0050000000000         3.576215838067457E-013
   36.1950000000000         3.294212731820637E-013
   36.3850000000000         2.949601549450440E-013
   36.5750000000000         2.865144511285214E-013
   36.7650000000000         2.697655775175052E-013
   36.9550000000000         2.562304632071673E-013
   37.1450000000000         2.352135941891314E-013
   37.3350000000000         2.254398668390666E-013
   37.5250000000000         2.183169034623189E-013
   37.7150000000000         2.118390207705038E-013
   37.9050000000000         2.074680517183340E-013
   38.0950000000000         2.072192938774093E-013
   38.2850000000000         2.156587530876307E-013
   38.4750000000000         2.985975227366243E-013
   38.6650000000000         3.442878181856579E-013
   38.8550000000000         3.707020722390886E-013
   39.0450000000000         4.164131598268878E-013
   39.2350000000000         4.460700285537809E-013
   39.4250000000000         5.406836164552919E-013
   39.6150000000000         5.585822545213364E-013
   39.8050000000000         6.312301445353508E-013
   39.9950000000000         6.169956731593324E-013
   40.1850000000000         6.271965248279700E-013
   40.3750000000000         6.280053569283905E-013
   40.5650000000000         6.306199584811147E-013
   40.7550000000000         6.321551435278444E-013
   40.9450000000000         6.275698186625132E-013
   41.1350000000000         6.087910329476759E-013
   41.3250000000000         5.587814453166682E-013
   41.5150000000000         5.199199794411354E-013
   41.7050000000000         5.049598209491165E-013
   41.8950000000000         5.066218295816034E-013
   42.0850000000000         5.100588787997467E-013
   42.2750000000000         5.167731931073001E-013
   42.4650000000000         4.995684139071714E-013
   42.6550000000000         4.853206500289611E-013
   42.8450000000000         4.664101658693263E-013
   43.0350000000000         4.467352097108506E-013
   43.2250000000000         4.485839758479063E-013
   43.4150000000000         4.312174207161707E-013
   43.6050000000000         4.089727531838807E-013
   43.7950000000000         3.975296080893481E-013
   43.9850000000000         3.823637417185696E-013
   44.1750000000000         3.704875662297222E-013
   44.3650000000000         3.589785461697727E-013
   44.5550000000000         3.527809602632437E-013
   44.7450000000000         3.824813072572916E-013
   44.9350000000000         4.055549572311724E-013
   45.1250000000000         4.380807670101756E-013
   45.3150000000000         4.701595588013266E-013
   45.5050000000000         5.149240331866857E-013
   45.6950000000000         5.599506293078426E-013
   45.8850000000000         6.419820437009184E-013
   46.0750000000000         6.039792450193507E-013
   46.2650000000000         6.138981467942840E-013
   46.4550000000000         6.306344284232238E-013
   46.6450000000000         6.445826293483777E-013
   46.8350000000000         6.403188741242027E-013
   47.0250000000000         5.943253115114242E-013
   47.2150000000000         6.203973719571069E-013
   47.4050000000000         5.906854265985068E-013
   47.5950000000000         5.296334800182487E-013
   47.7850000000000         4.987002544438584E-013
   47.9750000000000         4.060465623337782E-013
   48.1650000000000         3.884057875939685E-013
   48.3550000000000         3.394941259370424E-013
   48.5450000000000         3.599706781303791E-013
   48.7350000000000         3.375039302858269E-013
   48.9250000000000         3.038851585358787E-013
   49.1150000000000         2.852537974994534E-013
   49.3050000000000         2.580835824315220E-013
   49.4950000000000         2.101301236332335E-013
   49.6850000000000         1.751023375652132E-013
   49.8750000000000         1.635558185348477E-013
   50.0650000000000         1.471557576713501E-013
   50.2550000000000         1.484995798513944E-013
   50.4450000000000         1.663373302997926E-013
   50.6350000000000         1.602047547368216E-013
   50.8250000000000         1.693405858013913E-013
   51.0150000000000         1.643852368142591E-013
   51.2050000000000         1.640390481133465E-013
   51.3950000000000         1.999210926057570E-013
   51.5850000000000         2.794463039847262E-013
   51.7750000000000         3.768640188240923E-013
   51.9650000000000         3.186828066733659E-013
   52.1550000000000         3.883689223084097E-013
   52.3450000000000         4.624092329193020E-013
   52.5350000000000         6.184606697766051E-013
   52.7250000000000         6.301894553498645E-013
   52.9150000000000         6.574393140870724E-013
   53.1050000000000         6.634606434486763E-013
   53.2950000000000         6.873736391558831E-013
   53.4850000000000         7.541629460428110E-013
   53.6750000000000         8.254616138880646E-013
   53.8650000000000         8.694040421457750E-013
   54.0550000000000         8.771097821244205E-013
   54.2450000000000         8.829316487774958E-013
   54.4350000000000         8.821334397142421E-013
   54.6250000000000         8.837675887675619E-013
   54.8150000000000         8.761921342320782E-013
   55.0050000000000         8.734329765464616E-013
   55.1950000000000         8.858620908484539E-013
   55.3850000000000         8.731253792855662E-013
   55.5750000000000         8.531687375878881E-013
   55.7650000000000         8.248854527397194E-013
   55.9550000000000         7.969169019985600E-013
   56.1450000000000         7.030309631020314E-013
   56.3350000000000         6.028448344414585E-013
   56.5250000000000         4.885579649693442E-013
   56.7150000000000         4.369423450549409E-013
   56.9050000000000         3.905037667882887E-013
   57.0950000000000         2.691348021638376E-013
   57.2850000000000         3.091786718325520E-013
   57.4750000000000         2.803680926276837E-013
   57.6650000000000         2.303611586153359E-013
   57.8550000000000         1.858199979344305E-013
   58.0450000000000         1.356693742995127E-013
   58.2350000000000         1.143902369719196E-013
   58.4250000000000         9.813906102641225E-014
   58.6150000000000         8.849869482352666E-014
   58.8050000000000         8.117395691009057E-014
   58.9950000000000         7.152337532885815E-014
   59.1850000000000         6.568769350553274E-014
   59.3750000000000         6.228441697173984E-014
   59.5650000000000         5.814119067174755E-014
   59.7550000000000         5.206869638634183E-014
   59.9450000000000         4.733145315750772E-014
   60.1350000000000         4.974598690671910E-014
   60.3250000000000         6.654670624506063E-014
   60.5150000000000         9.002933699889087E-014
   60.7050000000000         1.243722168330754E-013
   60.8950000000000         2.364809219924307E-013
   61.0850000000000         3.464046424757862E-013
   61.2750000000000         3.774200581623271E-013
   61.4650000000000         4.619645636197913E-013
   61.6550000000000         5.327937670895615E-013
   61.8450000000000         5.958928107948992E-013
   62.0350000000000         6.828032444489953E-013
   62.2250000000000         6.900407262644532E-013
   62.4150000000000         6.932314337052702E-013
   62.6050000000000         7.250716805866200E-013
   62.7950000000000         7.593622051624547E-013
   62.9850000000000         7.736520793675982E-013
   63.1750000000000         7.991320431009376E-013
   63.3650000000000         8.117700966684234E-013
   63.5550000000000         8.133800529751484E-013
   63.7450000000000         8.071946339138163E-013
   63.9350000000000         7.840291899164426E-013
   64.1250000000000         7.464863334306139E-013
   64.3150000000000         6.993083341482060E-013
   64.5050000000000         6.574312462061667E-013
   64.6950000000000         4.969497431447956E-013
   64.8850000000000         5.625226051000725E-013
   65.0750000000000         5.000092221359887E-013
   65.2650000000000         4.483893136490401E-013
   65.4550000000000         4.135907156087143E-013
   65.6450000000000         3.662842647831747E-013
   65.8350000000000         3.230889636509907E-013
   66.0250000000000         2.845123021793035E-013
   66.2150000000000         2.458300654966885E-013
   66.4050000000000         2.170138501984563E-013
   66.5950000000000         2.153805209471164E-013
   66.7850000000000         2.001210168746469E-013
   66.9750000000000         1.885440571080075E-013
   67.1650000000000         1.763158229554725E-013
   67.3550000000000         1.688868686692034E-013
   67.5450000000000         1.693036220702590E-013
   67.7350000000000         1.805786098221403E-013
   67.9250000000000         1.955325665278759E-013
   68.1150000000000         2.173499029267951E-013
   68.3050000000000         2.511183399534498E-013
   68.4950000000000         3.062381659775230E-013
   68.6850000000000         3.707022763915760E-013
   68.8750000000000         4.322170409685847E-013
   69.0650000000000         4.867683442979552E-013
   69.2550000000000         5.371848185214036E-013
   69.4450000000000         5.753282379167693E-013
   69.6350000000000         6.017381592609912E-013
   69.8250000000000         6.199590122733540E-013
   70.0150000000000         6.294166072280121E-013
   70.2050000000000         6.327198432393199E-013
   70.3950000000000         6.333841369134239E-013
   70.5850000000000         6.319882072513234E-013
   70.7750000000000         6.305765000204964E-013
   70.9650000000000         6.298275577890357E-013
   71.1550000000000         5.895228799050236E-013
   71.3450000000000         6.336927550947015E-013
   71.5350000000000         6.180101017344984E-013
   71.7250000000000         6.415967095444451E-013
   71.9150000000000         6.403277179097668E-013
   72.1050000000000         6.382906607979658E-013
   72.2950000000000         6.382835508422072E-013
   72.4850000000000         6.308701104531627E-013
   72.6750000000000         6.179585343737108E-013
   72.8650000000000         6.005287628399713E-013
   73.0550000000000         5.852494890729477E-013
   73.2450000000000         5.761099885783851E-013
   73.4350000000000         5.716568679548198E-013
   73.6250000000000         5.673941527176038E-013
   73.8150000000000         5.704822392101638E-013
   74.0050000000000         5.880052236862324E-013
   74.1950000000000         5.766433433419497E-013
   74.3850000000000         5.837153893116174E-013
   74.5750000000000         5.757718609514412E-013
   74.7650000000000         5.739961900677029E-013
   74.9550000000000         5.578411770162377E-013
   75.1450000000000         5.524303409094643E-013
   75.3350000000000         5.472086561624739E-013
   75.5250000000000         5.333553518113897E-013
   75.7150000000000         5.117951617200901E-013
   75.9050000000000         5.046200917117874E-013
   76.0950000000000         4.946984290343231E-013
   76.2850000000000         4.926093110470284E-013
   76.4750000000000         4.983870061835062E-013
   76.6650000000000         5.053968145631860E-013
   76.8550000000000         5.064175730375594E-013
   77.0450000000000         5.069426634449556E-013
   77.2350000000000         4.953475840590706E-013
   77.4250000000000         4.560916316734839E-013
   77.6150000000000         3.959735260656088E-013
   77.8050000000000         3.675925569345716E-013
   77.9950000000000         3.391685187561147E-013
   78.1850000000000         3.228373945458787E-013
   78.3750000000000         2.817202643355363E-013
   78.5650000000000         2.706821595231545E-013
   78.7550000000000         2.689299751779955E-013
   78.9450000000000         2.625425622083874E-013
   79.1350000000000         2.684649422061545E-013
   79.3250000000000         2.766644553699782E-013
   79.5150000000000         2.823000018961169E-013
   79.7050000000000         2.799621929479765E-013
   79.8950000000000         2.773273451725574E-013
   80.0850000000000         3.096344536499088E-013
   80.2750000000000         3.607134046554367E-013
   80.4650000000000         3.490790141201935E-013
   80.6550000000000         3.748598401692528E-013
   80.8450000000000         4.189366218648389E-013
   81.0350000000000         4.601386783480579E-013
   81.2250000000000         5.375011330864504E-013
   81.4150000000000         6.271167405755556E-013
   81.6050000000000         6.409496416453378E-013
   81.7950000000000         6.141960669097377E-013
   81.9850000000000         6.368126980034230E-013
   82.1750000000000         6.751411389571914E-013
   82.3650000000000         6.973559199103774E-013
   82.5550000000000         7.311951938639430E-013
   82.7450000000000         7.743427236242592E-013
   82.9350000000000         7.563417584282810E-013
   83.1250000000000         7.452322164026570E-013
   83.3150000000000         7.520065740226952E-013
   83.5050000000000         7.354983094476917E-013
   83.6950000000000         7.364020274904299E-013
   83.8850000000000         7.516585013479152E-013
   84.0750000000000         7.576771087589498E-013
   84.2650000000000         7.641458634539120E-013
   84.4550000000000         7.704492827463764E-013
   84.6450000000000         7.795942410499976E-013
   84.8350000000000         7.915952690155538E-013
   85.0250000000000         7.992584448043116E-013
   85.2150000000000         7.905965276240446E-013
   85.4050000000000         7.706767586698337E-013
   85.5950000000000         7.387643681496600E-013
   85.7850000000000         6.059313273142764E-013
   85.9750000000000         5.442636386442582E-013
   86.1650000000000         4.777731484633186E-013
   86.3550000000000         3.867281743480004E-013
   86.5450000000000         3.173235715203646E-013
   86.7350000000000         2.533926948221572E-013
   86.9250000000000         2.130756730023155E-013
   87.1150000000000         2.227296406108438E-013
   87.3050000000000         1.972902311338142E-013
   87.4950000000000         1.908750389254465E-013
   87.6850000000000         1.778540769136051E-013
   87.8750000000000         1.377598212894303E-013
   88.0650000000000         1.025212554725558E-013
   88.2550000000000         9.184766789457014E-014
   88.4450000000000         8.744901575924255E-014
   88.6350000000000         8.661065681679374E-014
   88.8250000000000         9.008912530867230E-014
   89.0150000000000         1.117529802525415E-013
   89.2050000000000         1.368120451299571E-013
   89.3950000000000         2.429414925354720E-013
   89.5850000000000         3.637775199212469E-013
   89.7750000000000         4.250679437352087E-013
   89.9650000000000         5.081136548700025E-013
   90.1550000000000         5.678352502458365E-013
   90.3450000000000         5.707523667771455E-013
   90.5350000000000         6.235857553520440E-013
   90.7250000000000         6.538204205662181E-013
   90.9150000000000         7.054595754006965E-013
   91.1050000000000         7.439621306835294E-013
   91.2950000000000         7.811475328726241E-013
   91.4850000000000         8.319192831391540E-013
   91.6750000000000         8.900958264172406E-013
   91.8650000000000         9.059531616402219E-013
   92.0550000000000         9.206012933266347E-013
   92.2450000000000         9.384341419490398E-013
   92.4350000000000         9.512336714540436E-013
   92.6250000000000         9.484888053067849E-013
   92.8150000000000         9.400336815798083E-013
   93.0050000000000         9.311257353470363E-013
   93.1950000000000         9.141401108150887E-013
   93.3850000000000         8.739457753157765E-013
   93.5750000000000         6.762701837445064E-013
   93.7650000000000         6.000031461772939E-013
   93.9550000000000         4.810700131401158E-013
   94.1450000000000         4.479301088653254E-013
   94.3350000000000         4.265199921390467E-013
   94.5250000000000         4.024714493843138E-013
   94.7150000000000         3.458884729144605E-013
   94.9050000000000         2.755235383886469E-013
   95.0950000000000         3.191623050593343E-013
   95.2850000000000         2.945106497537959E-013
   95.4750000000000         2.718757397303781E-013
   95.6650000000000         2.445807629607853E-013
   95.8550000000000         2.196343924289995E-013
   96.0450000000000         2.045532358277890E-013
   96.2350000000000         1.734309687697378E-013
   96.4250000000000         1.477921519833331E-013
   96.6150000000000         1.346120830183297E-013
   96.8050000000000         1.285321538351104E-013
   96.9950000000000         1.261065142995776E-013
   97.1850000000000         1.283662146477235E-013
   97.3750000000000         1.416340483711282E-013
   97.5650000000000         1.645859001797852E-013
   97.7550000000000         1.969125859668386E-013
   97.9450000000000         2.422416260474201E-013
   98.1350000000000         2.893836338453072E-013
   98.3250000000000         3.419226493797456E-013
   98.5150000000000         4.033065635593931E-013
   98.7050000000000         4.643390566874872E-013
   98.8950000000000         5.231702745345770E-013
   99.0850000000000         5.807488089511310E-013
   99.2750000000000         6.481435885201196E-013
   99.4650000000000         7.361306259138148E-013
   99.6550000000000         7.370839114902092E-013
   99.8450000000000         7.791245224350181E-013
   100.035000000000         8.030106150429804E-013
   100.225000000000         7.805140656462336E-013
   100.415000000000         7.782365630330283E-013
   100.605000000000         7.642011580363528E-013
   100.795000000000         7.480266232412646E-013
   100.985000000000         7.405816340099979E-013
   101.175000000000         7.519416774551644E-013
   101.365000000000         7.523260560973981E-013
   101.555000000000         7.479372462269631E-013
   101.745000000000         7.353089092169966E-013
   101.935000000000         7.065590442903685E-013
   102.125000000000         6.746822005042991E-013
   102.315000000000         6.737300140306736E-013
   102.505000000000         6.678687972431305E-013
   102.695000000000         6.672588226896763E-013
   102.885000000000         6.299924069353219E-013
   103.075000000000         6.180248041868618E-013
   103.265000000000         5.516439567178538E-013
   103.455000000000         5.311629708815386E-013
   103.645000000000         5.217193101891376E-013
   103.835000000000         5.208373092618452E-013
   104.025000000000         5.184682656404786E-013
   104.215000000000         4.771260356154351E-013
   104.405000000000         4.649134330613992E-013
   104.595000000000         4.478854959507219E-013
   104.785000000000         4.379977562969863E-013
   104.975000000000         4.242043609453634E-013
   105.165000000000         4.013817016658439E-013
   105.355000000000         3.813002444872518E-013
   105.545000000000         3.754944539763666E-013
   105.735000000000         3.859016615630861E-013
   105.925000000000         4.040706675417192E-013
   106.115000000000         4.168837007215812E-013
   106.305000000000         4.168999874150814E-013
   106.495000000000         4.115292238871096E-013
   106.685000000000         4.062727958719482E-013
   106.875000000000         4.107146063800164E-013
   107.065000000000         4.185899206624357E-013
   107.255000000000         4.197167479174650E-013
   107.445000000000         4.144879988653984E-013
   107.635000000000         4.020312203215077E-013
   107.825000000000         3.925270329839209E-013
   108.015000000000         3.953882767274874E-013
   108.205000000000         4.121548425513887E-013
   108.395000000000         4.363740416468668E-013
   108.585000000000         4.569263507997205E-013
   108.775000000000         4.644246099105964E-013
   108.965000000000         4.732339750774080E-013
   109.155000000000         4.814417987718482E-013
   109.345000000000         5.062903156881318E-013
   109.535000000000         5.250919795835477E-013
   109.725000000000         5.312857110039126E-013
   109.915000000000         5.196298172219900E-013
   110.105000000000         5.081810574254964E-013