  -1.42500000000000        -1.368944574784868E-020
  -1.23500000000000        -4.880159269270798E-021
  -1.04500000000000         2.341313116187282E-019
 -0.855000000000000         1.453942879981117E-018
 -0.665000000000000         6.256730738843041E-018
 -0.475000000000000         2.129776194873107E-017
 -0.285000000000000         6.312191656277117E-017
 -9.499999999999975E-002    1.627979668145048E-016
  9.500000000000020E-002    3.698117981208113E-016
  0.285000000000000         7.644768289942352E-016
  0.475000000000000         1.448607910921347E-015
  0.665000000000000         2.528243798259764E-015
  0.855000000000000         4.078729206551817E-015
   1.04500000000000         6.192910544770853E-015
   1.23500000000000         8.995211537533983E-015
   1.42500000000000         1.234074784876464E-014
   1.61500000000000         1.609880345055633E-014
   1.80500000000000         2.041803686240818E-014
   1.99500000000000         2.537018489741649E-014
   2.18500000000000         3.096685279013469E-014
   2.37500000000000         3.723341341163954E-014
   2.56500000000000         4.414632003040715E-014
   2.75500000000000         5.164255854486271E-014
   2.94500000000000         5.964358453630678E-014
   3.13500000000000         6.802702498486521E-014
   3.32500000000000         7.661462701435425E-014
   3.51500000000000         8.535749105547894E-014
   3.70500000000000         9.423903525402385E-014
   3.89500000000000         1.031933527647608E-013
   4.08500000000000         1.122118599541581E-013
   4.27500000000000         1.212829869743748E-013
   4.46500000000000         1.304054056773282E-013
   4.65500000000000         1.395708784071386E-013
   4.84500000000000         1.487464986215719E-013
   5.03500000000000         1.578721893432757E-013
   5.22500000000000         1.669404905232474E-013
   5.41500000000000         1.759104717334305E-013
   5.60500000000000         1.847037976634896E-013
   5.79500000000000         1.933108666829329E-013
   5.98500000000000         2.017623379574064E-013
   6.17500000000000         2.101586882835313E-013
   6.36500000000000         2.186650853906740E-013
   6.55500000000000         2.274452522140603E-013
   6.74500000000000         2.365944629091142E-013
   6.93500000000000         2.461941298773518E-013
   7.12500000000000         2.564146590896362E-013
   7.31500000000000         2.673515517637473E-013
   7.50500000000000         2.788919227721225E-013
   7.69500000000000         2.908425384132086E-013
   7.88500000000000         3.030035133101168E-013
   8.07500000000000         3.151898467084212E-013
   8.26500000000000         3.272891134019716E-013
   8.45500000000000         3.392241374477427E-013
   8.64500000000000         3.508825895245025E-013
   8.83500000000000         3.621701896927462E-013
   9.02500000000000         3.728354283816560E-013
   9.21500000000000         3.823003040537412E-013
   9.40500000000000         3.900934965521754E-013
   9.59500000000000         3.962397956767559E-013
   9.78500000000000         4.010457659698874E-013
   9.97500000000000         4.048038630351067E-013
   10.1650000000000         4.078230240781448E-013
   10.3550000000000         4.104249232045958E-013
   10.5450000000000         4.127408458309399E-013
   10.7350000000000         4.148919993005967E-013
   10.9250000000000         4.170112352265116E-013
   11.1150000000000         4.190967645676788E-013
   11.3050000000000         4.211269763103712E-013
   11.4950000000000         4.230971265788785E-013
   11.6850000000000         4.250479230938518E-013
   11.8750000000000         4.270782901213940E-013
   12.0650000000000         4.293195174985890E-013
   12.2550000000000         4.318792036254332E-013
   12.4450000000000         4.348794641080654E-013
   12.6350000000000         4.382080209421693E-013
   12.8250000000000         4.418623171694034E-013
   13.0150000000000         4.460062938313455E-013
   13.2050000000000         4.505966221978730E-013
   13.3950000000000         4.556648311192654E-013
   13.5850000000000         4.612334389529903E-013
   13.7750000000000         4.671989120303142E-013
   13.9650000000000         4.734219358610259E-013
   14.1550000000000         4.797586229914462E-013
   14.3450000000000         4.861651169676119E-013
   14.5350000000000         4.926391660922889E-013
   14.7250000000000         4.991586447404691E-013
   14.9150000000000         5.057928211412159E-013
   15.1050000000000         5.127075095368937E-013
   15.2950000000000         5.201851437618983E-013
   15.4850000000000         5.285083834937246E-013
   15.6750000000000         5.377591227696914E-013
   15.8650000000000         5.479037391620929E-013
   16.0550000000000         5.589493185628584E-013
   16.2450000000000         5.707956957199856E-013
   16.4350000000000         5.832220773680163E-013
   16.6250000000000         5.960258811449174E-013
   16.8150000000000         6.090624715180493E-013
   17.0050000000000         6.222065385667063E-013
   17.1950000000000         6.353859789207163E-013
   17.3850000000000         6.485812469620187E-013
   17.5750000000000         6.617369350571757E-013
   17.7650000000000         6.748354334959982E-013
   17.9550000000000         6.878806815292499E-013
   18.1450000000000         7.008599171442827E-013
   18.3350000000000         7.137746641594562E-013
   18.5250000000000         7.266073321681216E-013
   18.7150000000000         7.392688022511211E-013
   18.9050000000000         7.515968084226694E-013
   19.0950000000000         7.634057507785300E-013
   19.2850000000000         7.745137053414510E-013
   19.4750000000000         7.848172691582904E-013
   19.6650000000000         7.943100057780993E-013
   19.8550000000000         8.030006779496134E-013
   20.0450000000000         8.109310403297856E-013
   20.2350000000000         8.182045103070326E-013
   20.4250000000000         8.249083052857753E-013
   20.6150000000000         8.310554156928421E-013
   20.8050000000000         8.366206048085519E-013
   20.9950000000000         8.415946232435222E-013
   21.1850000000000         8.462097270860747E-013
   21.3750000000000         8.504297942471023E-013
   21.5650000000000         8.542612479053030E-013
   21.7550000000000         8.578950423087307E-013
   21.9450000000000         8.611406154026494E-013
   22.1350000000000         8.638371011555701E-013
   22.3250000000000         8.658587014964076E-013
   22.5150000000000         8.673472430599092E-013
   22.7050000000000         8.687677976738122E-013
   22.8950000000000         8.705917074996309E-013
   23.0850000000000         8.731556021872081E-013
   23.2750000000000         8.766112827805396E-013
   23.4650000000000         8.809611637396074E-013
   23.6550000000000         8.863147633748925E-013
   23.8450000000000         8.928881950102136E-013
   24.0350000000000         9.007305186797819E-013
   24.2250000000000         9.098071528780725E-013
   24.4150000000000         9.200608807307238E-013
   24.6050000000000         9.314567659545042E-013
   24.7950000000000         9.437387226245730E-013
   24.9850000000000         9.565864618666299E-013
   25.1750000000000         9.697768078247620E-013
   25.3650000000000         9.830685149838169E-013
   25.5550000000000         9.963108041068478E-013
   25.7450000000000         1.009334325970418E-012
   25.9350000000000         1.022003610341304E-012
   26.1250000000000         1.034286054659785E-012
   26.3150000000000         1.046243505169335E-012
   26.5050000000000         1.057907816149302E-012
   26.6950000000000         1.069288486997139E-012
   26.8850000000000         1.080406842363141E-012
   27.0750000000000         1.091232003061565E-012
   27.2650000000000         1.101732560439609E-012
   27.4550000000000         1.111972058528954E-012
   27.6450000000000         1.122081403012341E-012
   27.8350000000000         1.132160307346687E-012
   28.0250000000000         1.142276833865613E-012
   28.2150000000000         1.152488648000988E-012
   28.4050000000000         1.162871864940339E-012
   28.5950000000000         1.173505799260217E-012
   28.7850000000000         1.184336210580140E-012
   28.9750000000000         1.195105342620170E-012
   29.1650000000000         1.205481936144780E-012
   29.3550000000000         1.215071732292349E-012
   29.5450000000000         1.223438865334522E-012
   29.7350000000000         1.230392875621675E-012
   29.9250000000000         1.235938685998734E-012
   30.1150000000000         1.240147121265164E-012
   30.3050000000000         1.243171717179874E-012
   30.4950000000000         1.245169554183603E-012
   30.6850000000000         1.246548052726636E-012
   30.8750000000000         1.247468012529003E-012
   31.0650000000000         1.247582698500587E-012
   31.2550000000000         1.246917253880907E-012
   31.4450000000000         1.245977170946403E-012
   31.6350000000000         1.245257640964485E-012
   31.8250000000000         1.245035361915768E-012
   32.0150000000000         1.245403253971101E-012
   32.2050000000000         1.246398710656080E-012
   32.3950000000000         1.248118690203790E-012
   32.5850000000000         1.250543431178297E-012
   32.7750000000000         1.253442292178156E-012
   32.9650000000000         1.256716199701791E-012
   33.1550000000000         1.260261810504208E-012
   33.3450000000000         1.263987565572951E-012
   33.5350000000000         1.268007188970228E-012
   33.7250000000000         1.272468443160305E-012
   33.9150000000000         1.277602721110384E-012
   34.1050000000000         1.283646086432717E-012
   34.2950000000000         1.290677521348457E-012
   34.4850000000000         1.298520712660200E-012
   34.6750000000000         1.307027441911660E-012
   34.8650000000000         1.316191170147756E-012
   35.0550000000000         1.325972005123501E-012
   35.2450000000000         1.336371128771738E-012
   35.4350000000000         1.347360521237074E-012
   35.6250000000000         1.358799288266360E-012
   35.8150000000000         1.370515377250424E-012
   36.0050000000000         1.382344957477831E-012
   36.1950000000000         1.394154296186885E-012
   36.3850000000000         1.405912398858391E-012
   36.5750000000000         1.417607771491240E-012
   36.7650000000000         1.429248979977961E-012
   36.9550000000000         1.440835807747982E-012
   37.1450000000000         1.452302923449442E-012
   37.3350000000000         1.463613150196481E-012
   37.5250000000000         1.474747831344266E-012
   37.7150000000000         1.485689969064793E-012
   37.9050000000000         1.496422839966643E-012
   38.0950000000000         1.506963238646726E-012
   38.2850000000000         1.517292201270258E-012
   38.4750000000000         1.527310466529200E-012
   38.6650000000000         1.536999919776555E-012
   38.8550000000000         1.546471833400974E-012
   39.0450000000000         1.555827150297506E-012
   39.2350000000000         1.565091313183552E-012
   39.4250000000000         1.574219263279507E-012
   39.6150000000000         1.583123624933095E-012
   39.8050000000000         1.591683745100214E-012
   39.9950000000000         1.599920733025682E-012
   40.1850000000000         1.607890017133484E-012
   40.3750000000000         1.615661541667765E-012
   40.5650000000000         1.623305979123554E-012
   40.7550000000000         1.630728383715587E-012
   40.9450000000000         1.637740837164788E-012
   41.1350000000000         1.643963557324947E-012
   41.3250000000000         1.648927511777112E-012
   41.5150000000000         1.652471351129672E-012
   41.7050000000000         1.654887592613825E-012
   41.8950000000000         1.656609580948585E-012
   42.0850000000000         1.658030124483170E-012
   42.2750000000000         1.659480995857899E-012
   42.4650000000000         1.661220463160781E-012
   42.6550000000000         1.663430006948953E-012
   42.8450000000000         1.666243846161204E-012
   43.0350000000000         1.669729933809146E-012
   43.2250000000000         1.673822082120486E-012
   43.4150000000000         1.678565077068440E-012
   43.6050000000000         1.683773284722160E-012
   43.7950000000000         1.689212220389182E-012
   43.9850000000000         1.694925927891867E-012
   44.1750000000000         1.700969804493543E-012
   44.3650000000000         1.707541737680114E-012
   44.5550000000000         1.714952602984048E-012
   44.7450000000000         1.723508543025791E-012
   44.9350000000000         1.733181614040354E-012
   45.1250000000000         1.743525026868606E-012
   45.3150000000000         1.753969743179132E-012
   45.5050000000000         1.764144391027862E-012
   45.6950000000000         1.773943434194866E-012
   45.8850000000000         1.783394342840604E-012
   46.0750000000000         1.792634214354972E-012
   46.2650000000000         1.801772501101459E-012
   46.4550000000000         1.810841466924132E-012
   46.6450000000000         1.819869581324633E-012
   46.8350000000000         1.828890642098897E-012
   47.0250000000000         1.838043102718234E-012
   47.2150000000000         1.847488091981930E-012
   47.4050000000000         1.857271934955589E-012
   47.5950000000000         1.867328703744872E-012
   47.7850000000000         1.877518454377620E-012
   47.9750000000000         1.887655250109109E-012
   48.1650000000000         1.897587025860215E-012
   48.3550000000000         1.907251068483698E-012
   48.5450000000000         1.916660186286121E-012
   48.7350000000000         1.925797447636042E-012
   48.9250000000000         1.934681021074467E-012
   49.1150000000000         1.943375311564989E-012
   49.3050000000000         1.951771797105222E-012
   49.4950000000000         1.959624014575762E-012
   49.6850000000000         1.966837738633714E-012
   49.8750000000000         1.973637983360920E-012
   50.0650000000000         1.980396503400524E-012
   50.2550000000000         1.987434666992438E-012
   50.4450000000000         1.994943181391326E-012
   50.6350000000000         2.002803185564171E-012
   50.8250000000000         2.010999633021877E-012
   51.0150000000000         2.019493268752291E-012
   51.2050000000000         2.028122520812312E-012
   51.3950000000000         2.036986372190640E-012
   51.5850000000000         2.046199585977764E-012
   51.7750000000000         2.055680805086943E-012
   51.9650000000000         2.064968632683857E-012
   52.1550000000000         2.073484681574378E-012
   52.3450000000000         2.080812053316246E-012
   52.5350000000000         2.086719593977699E-012
   52.7250000000000         2.091209010647188E-012
   52.9150000000000         2.094672857035247E-012
   53.1050000000000         2.097338986067890E-012
   53.2950000000000         2.099125267669968E-012
   53.4850000000000         2.100065057983836E-012
   53.6750000000000         2.100154996062885E-012
   53.8650000000000         2.099706397105493E-012
   54.0550000000000         2.099348754939320E-012
   54.2450000000000         2.099633158051962E-012
   54.4350000000000         2.101028375669855E-012
   54.6250000000000         2.103840428084433E-012
   54.8150000000000         2.108166729023254E-012
   55.0050000000000         2.113962246860619E-012
   55.1950000000000         2.121002136950476E-012
   55.3850000000000         2.129238258183709E-012
   55.5750000000000         2.138500445969199E-012
   55.7650000000000         2.148494132142420E-012
   55.9550000000000         2.159283313011417E-012
   56.1450000000000         2.171077269415005E-012
   56.3350000000000         2.183957184337148E-012
   56.5250000000000         2.197521491822044E-012
   56.7150000000000         2.211186769925912E-012
   56.9050000000000         2.224545787988310E-012
   57.0950000000000         2.237373988293231E-012
   57.2850000000000         2.249693206100002E-012
   57.4750000000000         2.261511971929811E-012
   57.6650000000000         2.272710157846199E-012
   57.8550000000000         2.283320158373186E-012
   58.0450000000000         2.293542077159978E-012
   58.2350000000000         2.303509438480544E-012
   58.4250000000000         2.313218026852932E-012
   58.6150000000000         2.322696949117549E-012
   58.8050000000000         2.332010676886059E-012
   58.9950000000000         2.341192513955615E-012
   59.1850000000000         2.350278174889069E-012
   59.3750000000000         2.359307375323966E-012
   59.5650000000000         2.368294770559838E-012
   59.7550000000000         2.377237397292487E-012
   59.9450000000000         2.386124860841652E-012
   60.1350000000000         2.394950421227698E-012
   60.3250000000000         2.403710372428768E-012
   60.5150000000000         2.412382149818777E-012
   60.7050000000000         2.420890800094351E-012
   60.8950000000000         2.429095485628130E-012
   61.0850000000000         2.436847648645328E-012
   61.2750000000000         2.444064030709116E-012
   61.4650000000000         2.450721185352432E-012
   61.6550000000000         2.456834117837419E-012
   61.8450000000000         2.462427562518780E-012
   62.0350000000000         2.467536022090224E-012
   62.2250000000000         2.472249109530652E-012
   62.4150000000000         2.476592886733072E-012
   62.6050000000000         2.480544192375656E-012
   62.7950000000000         2.484252563166797E-012
   62.9850000000000         2.487822297456378E-012
   63.1750000000000         2.491198703360944E-012
   63.3650000000000         2.494324362437703E-012
   63.5550000000000         2.497104693548643E-012
   63.7450000000000         2.499423384548085E-012
   63.9350000000000         2.501240268896233E-012
   64.1250000000000         2.502608628243497E-012
   64.3150000000000         2.503640891107498E-012
   64.5050000000000         2.504501324181304E-012
   64.6950000000000         2.505394097028669E-012
   64.8850000000000         2.506493685766033E-012
   65.0750000000000         2.507945169522422E-012
   65.2650000000000         2.509951182075422E-012
   65.4550000000000         2.512674625183708E-012
   65.6450000000000         2.516224613617089E-012
   65.8350000000000         2.520718107389040E-012
   66.0250000000000         2.526173552000909E-012
   66.2150000000000         2.532511491904349E-012
   66.4050000000000         2.539676102460968E-012
   66.5950000000000         2.547386864308050E-012
   66.7850000000000         2.555526509575642E-012
   66.9750000000000         2.564082271861978E-012
   67.1650000000000         2.572905339285841E-012
   67.3550000000000         2.582034635586588E-012
   67.5450000000000         2.591550327715539E-012
   67.7350000000000         2.601573675390369E-012
   67.9250000000000         2.612193591724764E-012
   68.1150000000000         2.623371577865844E-012
   68.3050000000000         2.634954084847023E-012
   68.4950000000000         2.646716895593330E-012
   68.6850000000000         2.658409484133330E-012
   68.8750000000000         2.669842938883029E-012
   69.0650000000000         2.680908611821578E-012
   69.2550000000000         2.691556883705109E-012
   69.4450000000000         2.701791323777614E-012
   69.6350000000000         2.711678642349653E-012
   69.8250000000000         2.721336177473567E-012
   70.0150000000000         2.730841879845164E-012
   70.2050000000000         2.740242427249415E-012
   70.3950000000000         2.749608612934086E-012
   70.5850000000000         2.759007614108558E-012
   70.7750000000000         2.768494777908209E-012
   70.9650000000000         2.778086375597827E-012
   71.1550000000000         2.787745477597653E-012
   71.3450000000000         2.797401680143846E-012
   71.5350000000000         2.806942635454865E-012
   71.7250000000000         2.816335290366954E-012
   71.9150000000000         2.825516359178425E-012
   72.1050000000000         2.834473915533451E-012
   72.2950000000000         2.843279776126629E-012
   72.4850000000000         2.851913295336081E-012
   72.6750000000000         2.860391822849577E-012
   72.8650000000000         2.868681899141026E-012
   73.0550000000000         2.876720984003049E-012
   73.2450000000000         2.884452224650351E-012
   73.4350000000000         2.891672462301828E-012
   73.6250000000000         2.898042774128515E-012
   73.8150000000000         2.903319704976224E-012
   74.0050000000000         2.907439447967396E-012
   74.1950000000000         2.910609497832102E-012
   74.3850000000000         2.913216775210989E-012
   74.5750000000000         2.915600655905147E-012
   74.7650000000000         2.918026647713837E-012
   74.9550000000000         2.920654474968399E-012
   75.1450000000000         2.923553185111280E-012
   75.3350000000000         2.926643084506053E-012
   75.5250000000000         2.930025726344938E-012
   75.7150000000000         2.933718391804132E-012
   75.9050000000000         2.937603526366529E-012
   76.0950000000000         2.941855136785907E-012
   76.2850000000000         2.946711171949500E-012
   76.4750000000000         2.952451837395191E-012
   76.6650000000000         2.959228964330496E-012
   76.8550000000000         2.966819157388110E-012
   77.0450000000000         2.974993091652996E-012
   77.2350000000000         2.983888494524873E-012
   77.4250000000000         2.993824711999155E-012
   77.6150000000000         3.005028483626291E-012
   77.8050000000000         3.017320066380674E-012
   77.9950000000000         3.030200379831204E-012
   78.1850000000000         3.043230519890908E-012
   78.3750000000000         3.056137358644512E-012
   78.5650000000000         3.068830251477034E-012
   78.7550000000000         3.081268853959338E-012
   78.9450000000000         3.093510832709437E-012
   79.1350000000000         3.105593745876046E-012
   79.3250000000000         3.117485402004513E-012
   79.5150000000000         3.129145165061028E-012
   79.7050000000000         3.140388923479499E-012
   79.8950000000000         3.150942063363859E-012
   80.0850000000000         3.160483886949536E-012
   80.2750000000000         3.168852371629270E-012
   80.4650000000000         3.176203992725346E-012
   80.6550000000000         3.182886631610890E-012
   80.8450000000000         3.189182141623990E-012
   81.0350000000000         3.195239837691544E-012
   81.2250000000000         3.201134473000384E-012
   81.4150000000000         3.206897808277378E-012
   81.6050000000000         3.212545687955361E-012
   81.7950000000000         3.218106446291554E-012
   81.9850000000000         3.223560072874123E-012
   82.1750000000000         3.228876951560777E-012
   82.3650000000000         3.234041143405628E-012
   82.5550000000000         3.238969461906381E-012
   82.7450000000000         3.243535611007811E-012
   82.9350000000000         3.247657393790791E-012
   83.1250000000000         3.251367436014884E-012
   83.3150000000000         3.254769459043381E-012
   83.5050000000000         3.257978264802736E-012
   83.6950000000000         3.261096080974505E-012
   83.8850000000000         3.264161328167663E-012
   84.0750000000000         3.267203396040882E-012
   84.2650000000000         3.270256129151168E-012
   84.4550000000000         3.273308045971910E-012
   84.6450000000000         3.276347268673423E-012
   84.8350000000000         3.279369005330968E-012
   85.0250000000000         3.282397169835954E-012
   85.2150000000000         3.285509113432141E-012
   85.4050000000000         3.288856634607683E-012
   85.5950000000000         3.292680644198810E-012
   85.7850000000000         3.297196463930892E-012
   85.9750000000000         3.302454340599077E-012
   86.1650000000000         3.308372332499115E-012
   86.3550000000000         3.314827963061016E-012
   86.5450000000000         3.321748526217977E-012
   86.7350000000000         3.329138545058320E-012
   86.9250000000000         3.337023564364591E-012
   87.1150000000000         3.345416768651675E-012
   87.3050000000000         3.354336733535948E-012
   87.4950000000000         3.363808758898480E-012
   87.6850000000000         3.373823106975415E-012
   87.8750000000000         3.384264495368189E-012
   88.0650000000000         3.395015204598849E-012
   88.2550000000000         3.405988739232558E-012
   88.4450000000000         3.417132601618085E-012
   88.6350000000000         3.428462604286827E-012
   88.8250000000000         3.440038039544700E-012
   89.0150000000000         3.451950884431231E-012
   89.2050000000000         3.464251210075350E-012
   89.3950000000000         3.476823484903171E-012
   89.5850000000000         3.489284448650472E-012
   89.7750000000000         3.501230679620090E-012
   89.9650000000000         3.512476461165917E-012
   90.1550000000000         3.522918291451111E-012
   90.3450000000000         3.532510681990136E-012
   90.5350000000000         3.541277098300795E-012
   90.7250000000000         3.549257899654113E-012
   90.9150000000000         3.556557530374006E-012
   91.1050000000000         3.563321144361998E-012
   91.2950000000000         3.569705686005187E-012
   91.4850000000000         3.575849308734047E-012
   91.6750000000000         3.581880176775030E-012
   91.8650000000000         3.587935127116904E-012
   92.0550000000000         3.594128758807236E-012
   92.2450000000000         3.600498006130092E-012
   92.4350000000000         3.607016687459433E-012
   92.6250000000000         3.613677908133033E-012
   92.8150000000000         3.620476926155712E-012
   93.0050000000000         3.627406716710617E-012
   93.1950000000000         3.634488017194964E-012
   93.3850000000000         3.641692393829584E-012
   93.5750000000000         3.648820648270761E-012
   93.7650000000000         3.655488278739054E-012
   93.9550000000000         3.661364111266076E-012
   94.1450000000000         3.666337137537215E-012
   94.3350000000000         3.670429461819045E-012
   94.5250000000000         3.673710048838705E-012
   94.7150000000000         3.676317943267830E-012
   94.9050000000000         3.678395393750514E-012
   95.0950000000000         3.680099607500466E-012
   95.2850000000000         3.681554111474333E-012
   95.4750000000000         3.682864469372645E-012
   95.6650000000000         3.684095997950102E-012
   95.8550000000000         3.685260035955491E-012
   96.0450000000000         3.686414681342924E-012
   96.2350000000000         3.687641966451814E-012
   96.4250000000000         3.689105343560878E-012
   96.6150000000000         3.691040096310581E-012
   96.8050000000000         3.693777024033784E-012
   96.9950000000000         3.697610031698027E-012
   97.1850000000000         3.702642816283536E-012
   97.3750000000000         3.708673770894338E-012
   97.5650000000000         3.715544943485939E-012
   97.7550000000000         3.723257507647481E-012
   97.9450000000000         3.731769551604119E-012
   98.1350000000000         3.741100591346937E-012
   98.3250000000000         3.751217113597011E-012
   98.5150000000000         3.761981679282169E-012
   98.7050000000000         3.773200329326976E-012
   98.8950000000000         3.784670923885034E-012
   99.0850000000000         3.796215205773175E-012
   99.2750000000000         3.807666543539029E-012
   99.4650000000000         3.818766532196198E-012
   99.6550000000000         3.829233410963620E-012
   99.8450000000000         3.838906936944431E-012
   100.035000000000         3.847719946926827E-012
   100.225000000000         3.855689175575475E-012
   100.415000000000         3.862904960234917E-012
   100.605000000000         3.869476858045167E-012
   100.795000000000         3.875544109132909E-012
   100.985000000000         3.881266811107223E-012
   101.175000000000         3.886851247604720E-012
   101.365000000000         3.892381319269855E-012
   101.555000000000         3.897874368234717E-012
   101.745000000000         3.903369122888657E-012
   101.935000000000         3.908793744029075E-012
   102.125000000000         3.914091652380509E-012
   102.315000000000         3.919310002662391E-012
   102.505000000000         3.924540857661896E-012
   102.695000000000         3.929874877177642E-012
   102.885000000000         3.935352484135375E-012
   103.075000000000         3.940940553645044E-012
   103.265000000000         3.946643296333572E-012
   103.455000000000         3.952435660958738E-012
   103.645000000000         3.958262557571286E-012
   103.835000000000         3.964092937329026E-012
   104.025000000000         3.969886886631066E-012
   104.215000000000         3.975626246585638E-012
   104.405000000000         3.981304536640306E-012
   104.595000000000         3.986899532305582E-012
   104.785000000000         3.992364639862972E-012
   104.975000000000         3.997602721938347E-012
   105.165000000000         4.002475915782465E-012
   105.355000000000         4.006890434145381E-012
   105.545000000000         4.010832702519766E-012
   105.735000000000         4.014340992804529E-012
   105.925000000000         4.017516177866155E-012
   106.115000000000         4.020508176208827E-012
   106.305000000000         4.023419552068876E-012
   106.495000000000         4.026331036904315E-012
   106.685000000000         4.029290717328421E-012
   106.875000000000         4.032287451779561E-012
   107.065000000000         4.035326826463796E-012
   107.255000000000         4.038431460468587E-012
   107.445000000000         4.041649454006854E-012
   107.635000000000         4.045050968648956E-012
   107.825000000000         4.048707303977720E-012
   108.015000000000         4.052670424074904E-012
   108.205000000000         4.057001646463165E-012
   108.395000000000         4.061865250637015E-012
   108.585000000000         4.067523391669040E-012
   108.775000000000         4.074125012192452E-012
   108.965000000000         4.081729894830119E-012
   109.155000000000         4.089990623897387E-012
   109.345000000000         4.098757849726246E-012
   109.535000000000         4.107962541027410E-012
   109.725000000000         4.117308001636463E-012
   109.915000000000         4.126832524342088E-012
   110.105000000000         4.136621079144484E-012