  -1.42500000000000         0.000000000000000E+000
  -1.23500000000000         2.239423002386828E-011
  -1.04500000000000         1.685278168470742E-010
 -0.855000000000000         8.030708112884826E-010
 -0.665000000000000         3.057819288334545E-009
 -0.475000000000000         9.790215916049648E-009
 -0.285000000000000         2.705226294751332E-008
 -9.499999999999975E-002    6.487939746677402E-008
  9.500000000000020E-002    1.341992122447093E-007
  0.285000000000000         2.523948080159753E-007
  0.475000000000000         4.246545917195358E-007
  0.665000000000000         6.564611355132404E-007
  0.855000000000000         9.404489456544114E-007
   1.04500000000000         1.292522015940764E-006
   1.23500000000000         1.665063404313683E-006
   1.42500000000000         1.855827686682443E-006
   1.61500000000000         2.180844454361029E-006
   1.80500000000000         2.587206052755832E-006
   1.99500000000000         3.013931938434481E-006
   2.18500000000000         3.483423948939236E-006
   2.37500000000000         3.978590983760844E-006
   2.56500000000000         4.455296693786506E-006
   2.75500000000000         4.905778999428767E-006
   2.94500000000000         5.318356301130092E-006
   3.13500000000000         5.613289424249927E-006
   3.32500000000000         5.711384057655777E-006
   3.51500000000000         5.934528714961542E-006
   3.70500000000000         6.018623519525629E-006
   3.89500000000000         6.111467527093265E-006
   4.08500000000000         6.184209127115570E-006
   4.27500000000000         6.255854710776448E-006
   4.46500000000000         6.347303994161341E-006
   4.65500000000000         6.439835112341748E-006
   4.84500000000000         6.513718636345376E-006
   5.03500000000000         6.549570655123468E-006
   5.22500000000000         6.551968127287016E-006
   5.41500000000000         6.531159516470803E-006
   5.60500000000000         6.416720538580003E-006
   5.79500000000000         6.215856876956864E-006
   5.98500000000000         5.910194770584570E-006
   6.17500000000000         5.521165056075939E-006
   6.36500000000000         5.039934697667784E-006
   6.55500000000000         4.628593139289830E-006
   6.74500000000000         4.260388293706991E-006
   6.93500000000000         3.872381342077998E-006
   7.12500000000000         3.380951056697431E-006
   7.31500000000000         3.028880433942384E-006
   7.50500000000000         2.791505036874824E-006
   7.69500000000000         2.671922919880588E-006
   7.88500000000000         2.654866607740150E-006
   8.07500000000000         2.726632452587616E-006
   8.26500000000000         2.803808033966418E-006
   8.45500000000000         2.946599417430766E-006
   8.64500000000000         3.144206743428850E-006
   8.83500000000000         3.365820785287139E-006
   9.02500000000000         3.769165671898244E-006
   9.21500000000000         4.318163323795152E-006
   9.40500000000000         4.766112649864746E-006
   9.59500000000000         5.039925401734288E-006
   9.78500000000000         5.152033230727119E-006
   9.97500000000000         5.198925653454230E-006
   10.1650000000000         5.223469785273000E-006
   10.3550000000000         5.245591348296525E-006
   10.5450000000000         5.241142173440692E-006
   10.7350000000000         5.241310367319570E-006
   10.9250000000000         5.240840967502772E-006
   11.1150000000000         5.239201239042926E-006
   11.3050000000000         5.236080231044399E-006
   11.4950000000000         5.234857709227131E-006
   11.6850000000000         5.240797588363343E-006
   11.8750000000000         5.258354371726919E-006
   12.0650000000000         5.288245410048574E-006
   12.2550000000000         5.323818885580502E-006
   12.4450000000000         5.364737879778885E-006
   12.6350000000000         5.373482956675494E-006
   12.8250000000000         5.391653936839294E-006
   13.0150000000000         5.364335945727630E-006
   13.2050000000000         5.310497244494945E-006
   13.3950000000000         5.177672163077417E-006
   13.5850000000000         4.939147630124070E-006
   13.7750000000000         4.642239834823479E-006
   13.9650000000000         4.345303227188146E-006
   14.1550000000000         4.278843981903601E-006
   14.3450000000000         4.036645101976570E-006
   14.5350000000000         3.966282172033189E-006
   14.7250000000000         3.841841031172450E-006
   14.9150000000000         3.680150794368099E-006
   15.1050000000000         3.557711054199795E-006
   15.2950000000000         3.552801515382915E-006
   15.4850000000000         3.686118498609160E-006
   15.6750000000000         3.881930387051844E-006
   15.8650000000000         4.137758511819429E-006
   16.0550000000000         4.462699261897923E-006
   16.2450000000000         4.778040723604979E-006
   16.4350000000000         5.051485520820678E-006
   16.6250000000000         5.283580517491628E-006
   16.8150000000000         5.499167395284899E-006
   17.0050000000000         5.542606772180419E-006
   17.1950000000000         5.704390026764432E-006
   17.3850000000000         5.747067715559966E-006
   17.5750000000000         5.889509262095414E-006
   17.7650000000000         5.931035674322784E-006
   17.9550000000000         5.988773011746110E-006
   18.1450000000000         6.032967663659254E-006
   18.3350000000000         6.075474229074146E-006
   18.5250000000000         6.125976504966634E-006
   18.7150000000000         6.216094669126499E-006
   18.9050000000000         6.308051945946783E-006
   19.0950000000000         6.365430161675194E-006
   19.2850000000000         6.366493825127764E-006
   19.4750000000000         6.282298777987285E-006
   19.6650000000000         6.093883490445729E-006
   19.8550000000000         5.780891618217597E-006
   20.0450000000000         5.378229483321314E-006
   20.2350000000000         4.954564778169720E-006
   20.4250000000000         4.532046796065571E-006
   20.6150000000000         4.080381547302424E-006
   20.8050000000000         3.642689819426958E-006
   20.9950000000000         3.248690002946809E-006
   21.1850000000000         3.157036490707294E-006
   21.3750000000000         2.781549330609000E-006
   21.5650000000000         2.716007324341175E-006
   21.7550000000000         2.585136642332372E-006
   21.9450000000000         2.401497281621820E-006
   22.1350000000000         2.216724841266721E-006
   22.3250000000000         2.053707362412320E-006
   22.5150000000000         2.045540708603180E-006
   22.7050000000000         2.170835030679868E-006
   22.8950000000000         2.392477408074315E-006
   23.0850000000000         2.668534320510092E-006
   23.2750000000000         2.963384567590184E-006
   23.4650000000000         3.243582220664920E-006
   23.6550000000000         3.626854129931460E-006
   23.8450000000000         4.094717015177423E-006
   24.0350000000000         4.585372396512028E-006
   24.2250000000000         5.111154713067659E-006
   24.4150000000000         5.654129230979196E-006
   24.6050000000000         6.325940949647391E-006
   24.7950000000000         6.711886638225397E-006
   24.9850000000000         7.154992062813737E-006
   25.1750000000000         7.406551737629147E-006
   25.3650000000000         7.644046073350279E-006
   25.5550000000000         7.752148410170339E-006
   25.7450000000000         7.840837694828119E-006
   25.9350000000000         7.831206610324373E-006
   26.1250000000000         7.773568543357873E-006
   26.3150000000000         7.706202651762430E-006
   26.5050000000000         7.609828002090415E-006
   26.6950000000000         7.498665836135747E-006
   26.8850000000000         7.362470477208383E-006
   27.0750000000000         7.161661716062884E-006
   27.2650000000000         6.883546107773979E-006
   27.4550000000000         6.595219014725977E-006
   27.6450000000000         6.303925597674418E-006
   27.8350000000000         6.244528402742670E-006
   28.0250000000000         5.912431294806382E-006
   28.2150000000000         5.657620371422941E-006
   28.4050000000000         5.332955064455395E-006
   28.5950000000000         4.783558861154639E-006
   28.7850000000000         4.166112951062156E-006
   28.9750000000000         3.503605668454792E-006
   29.1650000000000         2.901415780721181E-006
   29.3550000000000         2.314807038167087E-006
   29.5450000000000         1.788893240655545E-006
   29.7350000000000         1.364225320157777E-006
   29.9250000000000         1.017146627892964E-006
   30.1150000000000         7.744329012978553E-007
   30.3050000000000         6.405099138274090E-007
   30.4950000000000         5.638354900515688E-007
   30.6850000000000         5.828046066964530E-007
   30.8750000000000         6.491300605210067E-007
   31.0650000000000         1.051516293477368E-006
   31.2550000000000         1.691484573169526E-006
   31.4450000000000         2.421875270986711E-006
   31.6350000000000         3.223076393394533E-006
   31.8250000000000         3.999578316403572E-006
   32.0150000000000         4.710311410958092E-006
   32.2050000000000         5.386138222400431E-006
   32.3950000000000         6.012320081523435E-006
   32.5850000000000         6.457428528708715E-006
   32.7750000000000         6.750428404224338E-006
   32.9650000000000         7.022017127440179E-006
   33.1550000000000         7.137431594858323E-006
   33.3450000000000         7.293019690990781E-006
   33.5350000000000         7.491735276282504E-006
   33.7250000000000         7.714825930861272E-006
   33.9150000000000         7.929176313330875E-006
   34.1050000000000         8.054229370527986E-006
   34.2950000000000         8.048432159389288E-006
   34.4850000000000         7.966030302145138E-006
   34.6750000000000         7.825927578953983E-006
   34.8650000000000         7.605865254245982E-006
   35.0550000000000         7.307618523291974E-006
   35.2450000000000         6.867571327759633E-006
   35.4350000000000         6.345849645839361E-006
   35.6250000000000         5.852576840228056E-006
   35.8150000000000         5.402682853587446E-006
   36.0050000000000         5.055196548854770E-006
   36.1950000000000         4.746332631530724E-006
   36.3850000000000         4.666845095083399E-006
   36.5750000000000         4.485311629826413E-006
   36.7650000000000         4.415720165669309E-006
   36.9550000000000         4.257723292986386E-006
   37.1450000000000         4.088984871310773E-006
   37.3350000000000         3.933440636561706E-006
   37.5250000000000         3.793574421377267E-006
   37.7150000000000         3.661458681491761E-006
   37.9050000000000         3.547368394597469E-006
   38.0950000000000         3.478863276923561E-006
   38.2850000000000         3.410752379798193E-006
   38.4750000000000         3.525687169388639E-006
   38.6650000000000         3.946050595706363E-006
   38.8550000000000         4.499772104866751E-006
   39.0450000000000         5.058521626238594E-006
   39.2350000000000         5.630548383978952E-006
   39.4250000000000         6.167080414904304E-006
   39.6150000000000         6.638478234312167E-006
   39.8050000000000         7.040509872261866E-006
   39.9950000000000         7.206297003202240E-006
   40.1850000000000         7.391789992321373E-006
   40.3750000000000         7.421156482463051E-006
   40.5650000000000         7.474582365082178E-006
   40.7550000000000         7.551052661332869E-006
   40.9450000000000         7.626783279354229E-006
   41.1350000000000         7.631701097801874E-006
   41.3250000000000         7.459745375205978E-006
   41.5150000000000         7.171215916310870E-006
   41.7050000000000         6.863709327373115E-006
   41.8950000000000         6.530011588680407E-006
   42.0850000000000         6.221447426355616E-006
   42.2750000000000         5.941581315608881E-006
   42.4650000000000         5.677481342234491E-006
   42.6550000000000         5.448466977309145E-006
   42.8450000000000         5.225437427214031E-006
   43.0350000000000         5.035283227499342E-006
   43.2250000000000         4.892404043773828E-006
   43.4150000000000         4.705598963250161E-006
   43.6050000000000         4.641083565531169E-006
   43.7950000000000         4.564169925167630E-006
   43.9850000000000         4.495064077737175E-006
   44.1750000000000         4.398572106058790E-006
   44.3650000000000         4.250905680613678E-006
   44.5550000000000         4.053181210729491E-006
   44.7450000000000         3.913339966377626E-006
   44.9350000000000         4.027434711540892E-006
   45.1250000000000         4.381946810314191E-006
   45.3150000000000         4.873110417817931E-006
   45.5050000000000         5.419160622108265E-006
   45.6950000000000         5.931103000929268E-006
   45.8850000000000         6.373425105038496E-006
   46.0750000000000         6.520882060510519E-006
   46.2650000000000         6.693072864344078E-006
   46.4550000000000         6.807505767649531E-006
   46.6450000000000         6.994820355734909E-006
   46.8350000000000         7.235228299654771E-006
   47.0250000000000         7.328594183185994E-006
   47.2150000000000         7.180707930623524E-006
   47.4050000000000         6.839863159115261E-006
   47.5950000000000         6.408069191524085E-006
   47.7850000000000         5.936052326043444E-006
   47.9750000000000         5.454492204770208E-006
   48.1650000000000         5.054544476677008E-006
   48.3550000000000         4.689394928559051E-006
   48.5450000000000         4.433625310391759E-006
   48.7350000000000         4.162048708454893E-006
   48.9250000000000         3.986011369749205E-006
   49.1150000000000         3.839235172271895E-006
   49.3050000000000         3.553915497415871E-006
   49.4950000000000         3.130659513425099E-006
   49.6850000000000         2.741108598919648E-006
   49.8750000000000         2.463541045831540E-006
   50.0650000000000         2.338403033455698E-006
   50.2550000000000         2.288184311552276E-006
   50.4450000000000         2.291168665153465E-006
   50.6350000000000         2.289412445170493E-006
   50.8250000000000         2.336921039208095E-006
   51.0150000000000         2.360238302101041E-006
   51.2050000000000         2.391064532466771E-006
   51.3950000000000         2.482078415014814E-006
   51.5850000000000         2.726353540479017E-006
   51.7750000000000         3.236086443937390E-006
   51.9650000000000         3.753472649352840E-006
   52.1550000000000         4.202377858787142E-006
   52.3450000000000         4.583881131359111E-006
   52.5350000000000         4.956543572839709E-006
   52.7250000000000         5.286929425885343E-006
   52.9150000000000         5.498704171768671E-006
   53.1050000000000         5.797092151327199E-006
   53.2950000000000         6.079979225724934E-006
   53.4850000000000         6.425156618381113E-006
   53.6750000000000         6.995533281687429E-006
   53.8650000000000         7.482013047377428E-006
   54.0550000000000         7.888295702100651E-006
   54.2450000000000         8.231456382383741E-006
   54.4350000000000         8.526537763288495E-006
   54.6250000000000         8.760210265204842E-006
   54.8150000000000         8.943730521539759E-006
   55.0050000000000         9.078656688622720E-006
   55.1950000000000         9.156709056757932E-006
   55.3850000000000         9.218759248158971E-006
   55.5750000000000         9.223764478830860E-006
   55.7650000000000         9.214624216503580E-006
   55.9550000000000         9.153034808201238E-006
   56.1450000000000         8.944808821995903E-006
   56.3350000000000         8.393039071950759E-006
   56.5250000000000         7.740676996781284E-006
   56.7150000000000         7.067104257057781E-006
   56.9050000000000         6.367803837356860E-006
   57.0950000000000         5.741087776492969E-006
   57.2850000000000         5.314405329595839E-006
   57.4750000000000         4.798768996237042E-006
   57.6650000000000         4.244133677102938E-006
   57.8550000000000         3.787045554648312E-006
   58.0450000000000         3.531117771785052E-006
   58.2350000000000         3.294569380085267E-006
   58.4250000000000         3.017318874970732E-006
   58.6150000000000         2.800896444934072E-006
   58.8050000000000         2.630779490253704E-006
   58.9950000000000         2.461641574909155E-006
   59.1850000000000         2.352592301171087E-006
   59.3750000000000         2.277863959051919E-006
   59.5650000000000         2.226685685569944E-006
   59.7550000000000         2.171538089806366E-006
   59.9450000000000         2.114089877744371E-006
   60.1350000000000         2.046367765335806E-006
   60.3250000000000         1.981633282762126E-006
   60.5150000000000         1.963833976100750E-006
   60.7050000000000         2.034074018516303E-006
   60.8950000000000         2.311787681689522E-006
   61.0850000000000         2.695921421430588E-006
   61.2750000000000         3.174122465425851E-006
   61.4650000000000         3.696975745715929E-006
   61.6550000000000         4.216896018839726E-006
   61.8450000000000         4.749264433990096E-006
   62.0350000000000         5.204324490038002E-006
   62.2250000000000         5.529596374773709E-006
   62.4150000000000         5.888057118470137E-006
   62.6050000000000         6.167388495369261E-006
   62.7950000000000         6.242132832015294E-006
   62.9850000000000         6.339396633762916E-006
   63.1750000000000         6.464588179981135E-006
   63.3650000000000         6.610692717152582E-006
   63.5550000000000         6.763700236424329E-006
   63.7450000000000         6.885369915589485E-006
   63.9350000000000         6.925902932764070E-006
   64.1250000000000         6.877003445024135E-006
   64.3150000000000         6.743814368422568E-006
   64.5050000000000         6.550283813852152E-006
   64.6950000000000         6.205528882980011E-006
   64.8850000000000         6.001104483491778E-006
   65.0750000000000         5.710663554028044E-006
   65.2650000000000         5.390695764702050E-006
   65.4550000000000         5.085002380298545E-006
   65.6450000000000         4.788026370956272E-006
   65.8350000000000         4.497523996621966E-006
   66.0250000000000         4.254306541515418E-006
   66.2150000000000         4.050565987035216E-006
   66.4050000000000         3.865283479089024E-006
   66.5950000000000         3.818688686694164E-006
   66.7850000000000         3.686061179740399E-006
   66.9750000000000         3.622904112285700E-006
   67.1650000000000         3.540706977408353E-006
   67.3550000000000         3.445022016130487E-006
   67.5450000000000         3.335538226288573E-006
   67.7350000000000         3.233265448543430E-006
   67.9250000000000         3.167964095781010E-006
   68.1150000000000         3.174134523739205E-006
   68.3050000000000         3.278763302759622E-006
   68.4950000000000         3.496196190711914E-006
   68.6850000000000         3.791593933880153E-006
   68.8750000000000         4.132935701567497E-006
   69.0650000000000         4.498944036558327E-006
   69.2550000000000         4.882772174502923E-006
   69.4450000000000         5.255765831683028E-006
   69.6350000000000         5.567226470257890E-006
   69.8250000000000         5.741144614278035E-006
   70.0150000000000         5.920574235676651E-006
   70.2050000000000         6.063363382674212E-006
   70.3950000000000         6.209564718020189E-006
   70.5850000000000         6.319714595499389E-006
   70.7750000000000         6.417904682708588E-006
   70.9650000000000         6.470973592055699E-006
   71.1550000000000         6.502190146368933E-006
   71.3450000000000         6.526696104626660E-006
   71.5350000000000         6.541795815729103E-006
   71.7250000000000         6.550006642289525E-006
   71.9150000000000         6.571536998559510E-006
   72.1050000000000         6.571896472763391E-006
   72.2950000000000         6.575978819986215E-006
   72.4850000000000         6.579380697060805E-006
   72.6750000000000         6.581325600781608E-006
   72.8650000000000         6.585280510712006E-006
   73.0550000000000         6.587286600087689E-006
   73.2450000000000         6.589439323619356E-006
   73.4350000000000         6.594189314691621E-006
   73.6250000000000         6.593243594552064E-006
   73.8150000000000         6.581908861304000E-006
   74.0050000000000         6.566499028231005E-006
   74.1950000000000         6.511814155410021E-006
   74.3850000000000         6.424505480087849E-006
   74.5750000000000         6.310138507889305E-006
   74.7650000000000         6.173138795107373E-006
   74.9550000000000         6.043192858117124E-006
   75.1450000000000         5.934283885333603E-006
   75.3350000000000         5.895591927561701E-006
   75.5250000000000         5.781431782089564E-006
   75.7150000000000         5.759614848365835E-006
   75.9050000000000         5.726256444784633E-006
   76.0950000000000         5.670174076406267E-006
   76.2850000000000         5.593062347219654E-006
   76.4750000000000         5.519711986376545E-006
   76.6650000000000         5.458297501157430E-006
   76.8550000000000         5.418321233861572E-006
   77.0450000000000         5.378067888849208E-006
   77.2350000000000         5.293892804854466E-006
   77.4250000000000         5.117250701326581E-006
   77.6150000000000         4.764932433410244E-006
   77.8050000000000         4.359140446353499E-006
   77.9950000000000         3.976552770964789E-006
   78.1850000000000         3.614309780630745E-006
   78.3750000000000         3.296992496393314E-006
   78.5650000000000         3.073159193147792E-006
   78.7550000000000         2.850752972055936E-006
   78.9450000000000         2.770453523064979E-006
   79.1350000000000         2.654253267418468E-006
   79.3250000000000         2.595749956367489E-006
   79.5150000000000         2.502189507621684E-006
   79.7050000000000         2.361064133787225E-006
   79.8950000000000         2.191094086305369E-006
   80.0850000000000         2.103635802691727E-006
   80.2750000000000         2.220738737576216E-006
   80.4650000000000         2.526884621726808E-006
   80.6550000000000         2.950427465982448E-006
   80.8450000000000         3.445507560197897E-006
   81.0350000000000         3.996444255126604E-006
   81.2250000000000         4.558443862458310E-006
   81.4150000000000         5.093985876430265E-006
   81.6050000000000         5.588945525174771E-006
   81.7950000000000         5.814688178460684E-006
   81.9850000000000         6.125357360912085E-006
   82.1750000000000         6.312460947219640E-006
   82.3650000000000         6.554384217177014E-006
   82.5550000000000         6.962952437095823E-006
   82.7450000000000         7.434905460228450E-006
   82.9350000000000         7.796487846783864E-006
   83.1250000000000         7.990928036595576E-006
   83.3150000000000         8.075083970552066E-006
   83.5050000000000         8.111393594220512E-006
   83.6950000000000         8.118255423468208E-006
   83.8850000000000         8.112689683089056E-006
   84.0750000000000         8.103308834377077E-006
   84.2650000000000         8.092874656729068E-006
   84.4550000000000         8.086369328013290E-006
   84.6450000000000         8.079998549103254E-006
   84.8350000000000         8.073266772660159E-006
   85.0250000000000         8.057376829019956E-006
   85.2150000000000         8.018734081248405E-006
   85.4050000000000         7.935535944873030E-006
   85.5950000000000         7.777404349877097E-006
   85.7850000000000         7.500153981660431E-006
   85.9750000000000         7.164302808462683E-006
   86.1650000000000         6.821187025749884E-006
   86.3550000000000         6.484427393890075E-006
   86.5450000000000         6.083010200366439E-006
   86.7350000000000         5.634354077293189E-006
   86.9250000000000         5.170177604684178E-006
   87.1150000000000         4.720729943321661E-006
   87.3050000000000         4.256242665228927E-006
   87.4950000000000         3.802952377807936E-006
   87.6850000000000         3.406483660562811E-006
   87.8750000000000         3.156420034471035E-006
   88.0650000000000         2.956380182524614E-006
   88.2550000000000         2.864852729465544E-006
   88.4450000000000         2.773418197852390E-006
   88.6350000000000         2.692636776345558E-006
   88.8250000000000         2.572826680607048E-006
   89.0150000000000         2.466218710930080E-006
   89.2050000000000         2.417189726836126E-006
   89.3950000000000         2.516930688970179E-006
   89.5850000000000         2.865368104458630E-006
   89.7750000000000         3.193111736847713E-006
   89.9650000000000         3.526519589057599E-006
   90.1550000000000         3.905910688720800E-006
   90.3450000000000         4.266998266503834E-006
   90.5350000000000         4.680859412177370E-006
   90.7250000000000         5.109119119153915E-006
   90.9150000000000         5.559032402517263E-006
   91.1050000000000         5.999852058698658E-006
   91.2950000000000         6.428591298618653E-006
   91.4850000000000         6.867221476743438E-006
   91.6750000000000         7.318051889228598E-006
   91.8650000000000         7.691992300837141E-006
   92.0550000000000         7.985219293275698E-006
   92.2450000000000         8.157203432351521E-006
   92.4350000000000         8.272331645772361E-006
   92.6250000000000         8.371095376944344E-006
   92.8150000000000         8.425523353193039E-006
   93.0050000000000         8.452771689887487E-006
   93.1950000000000         8.413113761951569E-006
   93.3850000000000         8.232063920585710E-006
   93.5750000000000         7.702531292087487E-006
   93.7650000000000         7.008282921466348E-006
   93.9550000000000         6.350814594930151E-006
   94.1450000000000         5.755190630828616E-006
   94.3350000000000         5.206895830295390E-006
   94.5250000000000         4.722858980789710E-006
   94.7150000000000         4.332987708589588E-006
   94.9050000000000         3.950788132528763E-006
   95.0950000000000         3.736542241882663E-006
   95.2850000000000         3.487854978639635E-006
   95.4750000000000         3.423418035767547E-006
   95.6650000000000         3.167332548242356E-006
   95.8550000000000         3.122715316081852E-006
   96.0450000000000         3.050809327844828E-006
   96.2350000000000         2.943267510936185E-006
   96.4250000000000         2.808424814797003E-006
   96.6150000000000         2.653325785333907E-006
   96.8050000000000         2.479942919857503E-006
   96.9950000000000         2.324070920832395E-006
   97.1850000000000         2.213037953469427E-006
   97.3750000000000         2.171368445382569E-006
   97.5650000000000         2.149514617711057E-006
   97.7550000000000         2.179237902014613E-006
   97.9450000000000         2.264564408646908E-006
   98.1350000000000         2.442451404089818E-006
   98.3250000000000         2.726561022756927E-006
   98.5150000000000         3.100305027677284E-006
   98.7050000000000         3.524421962762464E-006
   98.8950000000000         3.953751104821615E-006
   99.0850000000000         4.361908698564876E-006
   99.2750000000000         4.801060053159968E-006
   99.4650000000000         5.386283245633723E-006
   99.6550000000000         5.819069102977834E-006
   99.8450000000000         6.154107083254765E-006
   100.035000000000         6.355978324134740E-006
   100.225000000000         6.454210654367891E-006
   100.415000000000         6.464709974861209E-006
   100.605000000000         6.407574122248956E-006
   100.795000000000         6.314201530647767E-006
   100.985000000000         6.215351429687092E-006
   101.175000000000         6.188170482907574E-006
   101.365000000000         6.111156811483354E-006
   101.555000000000         6.089137747593672E-006
   101.745000000000         6.037267033691800E-006
   101.935000000000         5.917892811049538E-006
   102.125000000000         5.746755130386915E-006
   102.315000000000         5.664020425740574E-006
   102.505000000000         5.689975648436223E-006
   102.695000000000         5.781744353686748E-006
   102.885000000000         5.872389419314982E-006
   103.075000000000         5.935137217074713E-006
   103.265000000000         5.958650239787762E-006
   103.455000000000         5.939553165465217E-006
   103.645000000000         5.895518950217987E-006
   103.835000000000         5.837496769672341E-006
   104.025000000000         5.756074951877537E-006
   104.215000000000         5.718605643542375E-006
   104.405000000000         5.687870850353307E-006
   104.595000000000         5.635225158132118E-006
   104.785000000000         5.556288823902065E-006
   104.975000000000         5.455103665164366E-006
   105.165000000000         5.346133769380764E-006
   105.355000000000         5.249168093432465E-006
   105.545000000000         5.166317043679881E-006
   105.735000000000         5.093545044068389E-006
   105.925000000000         5.032512329003682E-006
   106.115000000000         4.984199346611640E-006
   106.305000000000         4.921355899255367E-006
   106.495000000000         4.890589791790485E-006
   106.685000000000         4.821719651163297E-006
   106.875000000000         4.792401024694391E-006
   107.065000000000         4.730418389444720E-006
   107.255000000000         4.665081269326875E-006
   107.445000000000         4.597630029570735E-006
   107.635000000000         4.532633522698142E-006
   107.825000000000         4.476088094668929E-006
   108.015000000000         4.430431138141999E-006
   108.205000000000         4.387667338893159E-006
   108.395000000000         4.337219551740197E-006
   108.585000000000         4.297120884600814E-006
   108.775000000000         4.282120817120848E-006
   108.965000000000         4.284588819359829E-006
   109.155000000000         4.287694294930707E-006
   109.345000000000         4.310418468391065E-006
   109.535000000000         4.319055486351722E-006
   109.725000000000         4.332979087369122E-006
   109.915000000000         4.347881047065082E-006
   110.105000000000         4.373658410969274E-006