  -1.42500000000000         3.056945382769697E-020
  -1.23500000000000        -2.743055271387099E-019
  -1.04500000000000        -5.086644712568020E-018
 -0.855000000000000        -3.159068014219054E-017
 -0.665000000000000        -1.374526810686029E-016
 -0.475000000000000        -4.825849145883917E-016
 -0.285000000000000        -1.463286615820763E-015
 -9.499999999999975E-002   -3.770608792035462E-015
  9.500000000000020E-002   -8.399508706439269E-015
  0.285000000000000        -1.656166557679202E-014
  0.475000000000000        -2.946313470227932E-014
  0.665000000000000        -4.863317105378804E-014
  0.855000000000000        -7.580105146170484E-014
   1.04500000000000        -1.113377969231090E-013
   1.23500000000000        -1.552115338136290E-013
   1.42500000000000        -2.059458275671776E-013
   1.61500000000000        -2.619797193203047E-013
   1.80500000000000        -3.237725174933047E-013
   1.99500000000000        -3.914691399923204E-013
   2.18500000000000        -4.645406067769577E-013
   2.37500000000000        -5.418623943609590E-013
   2.56500000000000        -6.220911294689882E-013
   2.75500000000000        -7.038558487653731E-013
   2.94500000000000        -7.860398705139162E-013
   3.13500000000000        -8.679975197736896E-013
   3.32500000000000        -9.496647416611076E-013
   3.51500000000000        -1.030757667510019E-012
   3.70500000000000        -1.111164140076638E-012
   3.89500000000000        -1.191082679143110E-012
   4.08500000000000        -1.270449923625600E-012
   4.27500000000000        -1.349218257792718E-012
   4.46500000000000        -1.427046217108056E-012
   4.65500000000000        -1.503281340310087E-012
   4.84500000000000        -1.577086078760231E-012
   5.03500000000000        -1.647758163991040E-012
   5.22500000000000        -1.716390801887051E-012
   5.41500000000000        -1.782850272410922E-012
   5.60500000000000        -1.845591143668364E-012
   5.79500000000000        -1.904256601410067E-012
   5.98500000000000        -1.958288654392495E-012
   6.17500000000000        -2.006961276725576E-012
   6.36500000000000        -2.049455178340612E-012
   6.55500000000000        -2.086707469654828E-012
   6.74500000000000        -2.120500633239308E-012
   6.93500000000000        -2.151538804745275E-012
   7.12500000000000        -2.181673929803379E-012
   7.31500000000000        -2.213915423373867E-012
   7.50500000000000        -2.250387207822947E-012
   7.69500000000000        -2.293198714333607E-012
   7.88500000000000        -2.344110077247801E-012
   8.07500000000000        -2.403596282647027E-012
   8.26500000000000        -2.470195272739320E-012
   8.45500000000000        -2.541954363190305E-012
   8.64500000000000        -2.619016025758489E-012
   8.83500000000000        -2.701466409888271E-012
   9.02500000000000        -2.789512944074472E-012
   9.21500000000000        -2.880842036766516E-012
   9.40500000000000        -2.969576883983249E-012
   9.59500000000000        -3.049353683990824E-012
   9.78500000000000        -3.118257035545706E-012
   9.97500000000000        -3.177638428358547E-012
   10.1650000000000        -3.227335814827505E-012
   10.3550000000000        -3.269907389461899E-012
   10.5450000000000        -3.307961414494765E-012
   10.7350000000000        -3.343236916904396E-012
   10.9250000000000        -3.377582502785485E-012
   11.1150000000000        -3.410977130283779E-012
   11.3050000000000        -3.442883538367770E-012
   11.4950000000000        -3.472772774549409E-012
   11.6850000000000        -3.500476690453355E-012
   11.8750000000000        -3.526410470168262E-012
   12.0650000000000        -3.551434539957685E-012
   12.2550000000000        -3.576459958229423E-012
   12.4450000000000        -3.602374870608871E-012
   12.6350000000000        -3.629228920923024E-012
   12.8250000000000        -3.657229505746746E-012
   13.0150000000000        -3.686738424539072E-012
   13.2050000000000        -3.717281671960882E-012
   13.3950000000000        -3.748365999366759E-012
   13.5850000000000        -3.778893975361859E-012
   13.7750000000000        -3.807497738312772E-012
   13.9650000000000        -3.833551558610161E-012
   14.1550000000000        -3.857924442184924E-012
   14.3450000000000        -3.880967312625860E-012
   14.5350000000000        -3.902801049644828E-012
   14.7250000000000        -3.923962148385592E-012
   14.9150000000000        -3.944265064181182E-012
   15.1050000000000        -3.964548142898941E-012
   15.2950000000000        -3.987342338307692E-012
   15.4850000000000        -4.015396109876591E-012
   15.6750000000000        -4.049032461604723E-012
   15.8650000000000        -4.087616116920708E-012
   16.0550000000000        -4.131550318731029E-012
   16.2450000000000        -4.180451575096996E-012
   16.4350000000000        -4.233281160952686E-012
   16.6250000000000        -4.289419738291918E-012
   16.8150000000000        -4.348495940086165E-012
   17.0050000000000        -4.409476024294923E-012
   17.1950000000000        -4.472011886435648E-012
   17.3850000000000        -4.536030087366582E-012
   17.5750000000000        -4.601310561569241E-012
   17.7650000000000        -4.667736350170135E-012
   17.9550000000000        -4.734785734803889E-012
   18.1450000000000        -4.802369435135255E-012
   18.3350000000000        -4.870355248677063E-012
   18.5250000000000        -4.938748682768113E-012
   18.7150000000000        -5.007684169814103E-012
   18.9050000000000        -5.077131700011023E-012
   19.0950000000000        -5.146762503932711E-012
   19.2850000000000        -5.216173891488321E-012
   19.4750000000000        -5.284794670546675E-012
   19.6650000000000        -5.351952781538733E-012
   19.8550000000000        -5.417066901642335E-012
   20.0450000000000        -5.479711454243617E-012
   20.2350000000000        -5.539678495124752E-012
   20.4250000000000        -5.596788555533790E-012
   20.6150000000000        -5.650563788452079E-012
   20.8050000000000        -5.700435635179569E-012
   20.9950000000000        -5.746259677196066E-012
   21.1850000000000        -5.789428714884159E-012
   21.3750000000000        -5.830101881338279E-012
   21.5650000000000        -5.868610613231932E-012
   21.7550000000000        -5.906246500329897E-012
   21.9450000000000        -5.942680807446812E-012
   22.1350000000000        -5.978229185255360E-012
   22.3250000000000        -6.015010787612369E-012
   22.5150000000000        -6.056682066481044E-012
   22.7050000000000        -6.106198869110171E-012
   22.8950000000000        -6.164669959466034E-012
   23.0850000000000        -6.232405359728420E-012
   23.2750000000000        -6.308913805841953E-012
   23.4650000000000        -6.391916801342090E-012
   23.6550000000000        -6.481398034442540E-012
   23.8450000000000        -6.578986926875408E-012
   24.0350000000000        -6.683638226351832E-012
   24.2250000000000        -6.794363337543017E-012
   24.4150000000000        -6.910141714870964E-012
   24.6050000000000        -7.028962428637715E-012
   24.7950000000000        -7.148602988322101E-012
   24.9850000000000        -7.267299562070452E-012
   25.1750000000000        -7.383592200738910E-012
   25.3650000000000        -7.495882031946396E-012
   25.5550000000000        -7.603592460197372E-012
   25.7450000000000        -7.705163185082250E-012
   25.9350000000000        -7.798837344108085E-012
   26.1250000000000        -7.885259741426784E-012
   26.3150000000000        -7.965909377637707E-012
   26.5050000000000        -8.041414552918535E-012
   26.6950000000000        -8.112158640158970E-012
   26.8850000000000        -8.178655702975940E-012
   27.0750000000000        -8.240826298177355E-012
   27.2650000000000        -8.298655549308565E-012
   27.4550000000000        -8.353249456194677E-012
   27.6450000000000        -8.406276190565269E-012
   27.8350000000000        -8.458721637291494E-012
   28.0250000000000        -8.511157558844600E-012
   28.2150000000000        -8.563794229529261E-012
   28.4050000000000        -8.616377474607141E-012
   28.5950000000000        -8.667425392580635E-012
   28.7850000000000        -8.714341356649177E-012
   28.9750000000000        -8.754482425316158E-012
   29.1650000000000        -8.783935173866125E-012
   29.3550000000000        -8.797722379443090E-012
   29.5450000000000        -8.794151257061407E-012
   29.7350000000000        -8.774607793868191E-012
   29.9250000000000        -8.740301035086371E-012
   30.1150000000000        -8.692320649936199E-012
   30.3050000000000        -8.632873679132784E-012
   30.4950000000000        -8.566856365955300E-012
   30.6850000000000        -8.497341601081899E-012
   30.8750000000000        -8.425457621292203E-012
   31.0650000000000        -8.353983187310860E-012
   31.2550000000000        -8.289327439184464E-012
   31.4450000000000        -8.238287892905187E-012
   31.6350000000000        -8.202163061982897E-012
   31.8250000000000        -8.183337960013495E-012
   32.0150000000000        -8.182760615086002E-012
   32.2050000000000        -8.198222272869453E-012
   32.3950000000000        -8.227567386054247E-012
   32.5850000000000        -8.268792325322600E-012
   32.7750000000000        -8.319002529243451E-012
   32.9650000000000        -8.374479398399207E-012
   33.1550000000000        -8.433401823860184E-012
   33.3450000000000        -8.494839709280556E-012
   33.5350000000000        -8.559080344965682E-012
   33.7250000000000        -8.626233522713361E-012
   33.9150000000000        -8.695373369445382E-012
   34.1050000000000        -8.763945996903571E-012
   34.2950000000000        -8.828808186144661E-012
   34.4850000000000        -8.888893516564703E-012
   34.6750000000000        -8.944157727591373E-012
   34.8650000000000        -8.993969761882429E-012
   35.0550000000000        -9.037984980684074E-012
   35.2450000000000        -9.075934914759303E-012
   35.4350000000000        -9.108734412242001E-012
   35.6250000000000        -9.139471938721261E-012
   35.8150000000000        -9.171447324903338E-012
   36.0050000000000        -9.206672414592104E-012
   36.1950000000000        -9.245924646133991E-012
   36.3850000000000        -9.287621377223856E-012
   36.5750000000000        -9.331270781665059E-012
   36.7650000000000        -9.377089678310329E-012
   36.9550000000000        -9.424774720884335E-012
   37.1450000000000        -9.474812655540157E-012
   37.3350000000000        -9.526715049981665E-012
   37.5250000000000        -9.579814638030589E-012
   37.7150000000000        -9.633473469305711E-012
   37.9050000000000        -9.687073612334620E-012
   38.0950000000000        -9.740147674375385E-012
   38.2850000000000        -9.792493611973536E-012
   38.4750000000000        -9.845958779859254E-012
   38.6650000000000        -9.906050774833438E-012
   38.8550000000000        -9.976550906519821E-012
   39.0450000000000        -1.005887472755570E-011
   39.2350000000000        -1.015500019809654E-011
   39.4250000000000        -1.026670885782756E-011
   39.6150000000000        -1.039116775813485E-011
   39.8050000000000        -1.052560200330703E-011
   39.9950000000000        -1.066895590254121E-011
   40.1850000000000        -1.081797765759628E-011
   40.3750000000000        -1.096990919656288E-011
   40.5650000000000        -1.112318292001002E-011
   40.7550000000000        -1.127812342691512E-011
   40.9450000000000        -1.143507676055824E-011
   41.1350000000000        -1.159255931830896E-011
   41.3250000000000        -1.174592925651987E-011
   41.5150000000000        -1.189020774945783E-011
   41.7050000000000        -1.202328735363562E-011
   41.8950000000000        -1.214371140523479E-011
   42.0850000000000        -1.225047242755204E-011
   42.2750000000000        -1.234390564626918E-011
   42.4650000000000        -1.242373625228526E-011
   42.6550000000000        -1.249026334843526E-011
   42.8450000000000        -1.254423547331911E-011
   43.0350000000000        -1.258686522925346E-011
   43.2250000000000        -1.262118401183546E-011
   43.4150000000000        -1.264763275543432E-011
   43.6050000000000        -1.266767774247174E-011
   43.7950000000000        -1.268399793677203E-011
   43.9850000000000        -1.269660935246471E-011
   44.1750000000000        -1.270557452608727E-011
   44.3650000000000        -1.271016390433424E-011
   44.5550000000000        -1.270992943786427E-011
   44.7450000000000        -1.270817939839877E-011
   44.9350000000000        -1.271281212907972E-011
   45.1250000000000        -1.273191225860452E-011
   45.3150000000000        -1.276951919114000E-011
   45.5050000000000        -1.282492129363994E-011
   45.6950000000000        -1.289408207498357E-011
   45.8850000000000        -1.297330722739273E-011
   46.0750000000000        -1.305952831138180E-011
   46.2650000000000        -1.314932263694449E-011
   46.4550000000000        -1.324134517119620E-011
   46.6450000000000        -1.333596506377362E-011
   46.8350000000000        -1.343305574282951E-011
   47.0250000000000        -1.352859057452429E-011
   47.2150000000000        -1.361606899756348E-011
   47.4050000000000        -1.369079860964124E-011
   47.5950000000000        -1.375111985037647E-011
   47.7850000000000        -1.379833626604036E-011
   47.9750000000000        -1.383358648266709E-011
   48.1650000000000        -1.385778290289240E-011
   48.3550000000000        -1.387140246828624E-011
   48.5450000000000        -1.387714425078425E-011
   48.7350000000000        -1.387835026876910E-011
   48.9250000000000        -1.387580196545632E-011
   49.1150000000000        -1.387077394649363E-011
   49.3050000000000        -1.386302382582441E-011
   49.4950000000000        -1.385293447023438E-011
   49.6850000000000        -1.384477035645251E-011
   49.8750000000000        -1.384567015409573E-011
   50.0650000000000        -1.385982534728336E-011
   50.2550000000000        -1.388857195645620E-011
   50.4450000000000        -1.393342271668423E-011
   50.6350000000000        -1.398964484213964E-011
   50.8250000000000        -1.405435421309006E-011
   51.0150000000000        -1.412535723746942E-011
   51.2050000000000        -1.419893157378641E-011
   51.3950000000000        -1.427693906887033E-011
   51.5850000000000        -1.436216112557070E-011
   51.7750000000000        -1.445261330014119E-011
   51.9650000000000        -1.454051736494562E-011
   52.1550000000000        -1.461929410116943E-011
   52.3450000000000        -1.468529256213851E-011
   52.5350000000000        -1.473911275480195E-011
   52.7250000000000        -1.478326893825096E-011
   52.9150000000000        -1.482044688875462E-011
   53.1050000000000        -1.485396142838677E-011
   53.2950000000000        -1.488511058741150E-011
   53.4850000000000        -1.491508779342550E-011
   53.6750000000000        -1.494651566087186E-011
   53.8650000000000        -1.498201014702250E-011
   54.0550000000000        -1.502342540256053E-011
   54.2450000000000        -1.507232150743691E-011
   54.4350000000000        -1.513014988090843E-011
   54.6250000000000        -1.519744354821907E-011
   54.8150000000000        -1.527411760341776E-011
   55.0050000000000        -1.535999746220007E-011
   55.1950000000000        -1.545308411939457E-011
   55.3850000000000        -1.555194603792161E-011
   55.5750000000000        -1.565595048221099E-011
   55.7650000000000        -1.576359789015287E-011
   55.9550000000000        -1.587400520791647E-011
   56.1450000000000        -1.598506886876328E-011
   56.3350000000000        -1.609272635234013E-011
   56.5250000000000        -1.619228577109373E-011
   56.7150000000000        -1.628218063349099E-011
   56.9050000000000        -1.636265779587438E-011
   57.0950000000000        -1.643155961706091E-011
   57.2850000000000        -1.649051855019498E-011
   57.4750000000000        -1.654313851971698E-011
   57.6650000000000        -1.658898755321848E-011
   57.8550000000000        -1.662810833851845E-011
   58.0450000000000        -1.666275839177475E-011
   58.2350000000000        -1.669449914191908E-011
   58.4250000000000        -1.672340969437983E-011
   58.6150000000000        -1.674985025308738E-011
   58.8050000000000        -1.677452572968458E-011
   58.9950000000000        -1.679800166291964E-011
   59.1850000000000        -1.682079505075600E-011
   59.3750000000000        -1.684333084517936E-011
   59.5650000000000        -1.686588088820867E-011
   59.7550000000000        -1.688875167283391E-011
   59.9450000000000        -1.691232210388107E-011
   60.1350000000000        -1.693709793947017E-011
   60.3250000000000        -1.696389925214450E-011
   60.5150000000000        -1.699346253055278E-011
   60.7050000000000        -1.702582966203650E-011
   60.8950000000000        -1.705982067695842E-011
   61.0850000000000        -1.709318322725226E-011
   61.2750000000000        -1.712321173440094E-011
   61.4650000000000        -1.714841489647437E-011
   61.6550000000000        -1.716907617075652E-011
   61.8450000000000        -1.718483897716870E-011
   62.0350000000000        -1.719692510213393E-011
   62.2250000000000        -1.720710653834501E-011
   62.4150000000000        -1.721486735470170E-011
   62.6050000000000        -1.722031670513003E-011
   62.7950000000000        -1.722493295431915E-011
   62.9850000000000        -1.722952875859031E-011
   63.1750000000000        -1.723408514340915E-011
   63.3650000000000        -1.723880347055606E-011
   63.5550000000000        -1.724387724076561E-011
   63.7450000000000        -1.724976012923348E-011
   63.9350000000000        -1.725706692663269E-011
   64.1250000000000        -1.726633778680202E-011
   64.3150000000000        -1.727790293942202E-011
   64.5050000000000        -1.729221270059997E-011
   64.6950000000000        -1.731011982232198E-011
   64.8850000000000        -1.733158059299060E-011
   65.0750000000000        -1.735528426569273E-011
   65.2650000000000        -1.738113001387505E-011
   65.4550000000000        -1.740991739902681E-011
   65.6450000000000        -1.744154010714172E-011
   65.8350000000000        -1.747574869625629E-011
   66.0250000000000        -1.751232245801603E-011
   66.2150000000000        -1.755078089465038E-011
   66.4050000000000        -1.759055496167173E-011
   66.5950000000000        -1.763079933963298E-011
   66.7850000000000        -1.767110676055285E-011
   66.9750000000000        -1.771134130698839E-011
   67.1650000000000        -1.775134257174754E-011
   67.3550000000000        -1.779141542625796E-011
   67.5450000000000        -1.783202758168976E-011
   67.7350000000000        -1.787367768160007E-011
   67.9250000000000        -1.791670469320133E-011
   68.1150000000000        -1.796126721949588E-011
   68.3050000000000        -1.800740083504172E-011
   68.4950000000000        -1.805505056434357E-011
   68.6850000000000        -1.810394578261046E-011
   68.8750000000000        -1.815365590257204E-011
   69.0650000000000        -1.820410605188014E-011
   69.2550000000000        -1.825589791403009E-011
   69.4450000000000        -1.830983293472983E-011
   69.6350000000000        -1.836646726935196E-011
   69.8250000000000        -1.842587848283475E-011
   70.0150000000000        -1.848821871342364E-011
   70.2050000000000        -1.855381419963978E-011
   70.3950000000000        -1.862306216480090E-011
   70.5850000000000        -1.869628831790789E-011
   70.7750000000000        -1.877383404948033E-011
   70.9650000000000        -1.885608534850155E-011
   71.1550000000000        -1.894411194792937E-011
   71.3450000000000        -1.903848677020074E-011
   71.5350000000000        -1.913965002573376E-011
   71.7250000000000        -1.924664571338711E-011
   71.9150000000000        -1.935891660356162E-011
   72.1050000000000        -1.947541166370561E-011
   72.2950000000000        -1.959374981173305E-011
   72.4850000000000        -1.971352296673126E-011
   72.6750000000000        -1.983383261257078E-011
   72.8650000000000        -1.995456964561946E-011
   73.0550000000000        -2.007601252840521E-011
   73.2450000000000        -2.019815386966663E-011
   73.4350000000000        -2.032114371498266E-011
   73.6250000000000        -2.044441187827027E-011
   73.8150000000000        -2.056608543663203E-011
   74.0050000000000        -2.068260170265391E-011
   74.1950000000000        -2.079030863215106E-011
   74.3850000000000        -2.088751207031590E-011
   74.5750000000000        -2.097310391169851E-011
   74.7650000000000        -2.104594406566777E-011
   74.9550000000000        -2.110659870350620E-011
   75.1450000000000        -2.115682528091667E-011
   75.3350000000000        -2.120126376505915E-011
   75.5250000000000        -2.124103638176901E-011
   75.7150000000000        -2.127694742016988E-011
   75.9050000000000        -2.131227288238274E-011
   76.0950000000000        -2.134643611358651E-011
   76.2850000000000        -2.137920205073279E-011
   76.4750000000000        -2.141125913049910E-011
   76.6650000000000        -2.144369293013917E-011
   76.8550000000000        -2.147690406012831E-011
   77.0450000000000        -2.151067222633701E-011
   77.2350000000000        -2.154486470618081E-011
   77.4250000000000        -2.157861690183660E-011
   77.6150000000000        -2.160903271980154E-011
   77.8050000000000        -2.163295219263643E-011
   77.9950000000000        -2.164897984154032E-011
   78.1850000000000        -2.165645099282406E-011
   78.3750000000000        -2.165476528656810E-011
   78.5650000000000        -2.164481279770940E-011
   78.7550000000000        -2.162867712741241E-011
   78.9450000000000        -2.160887146804065E-011
   79.1350000000000        -2.158654436561718E-011
   79.3250000000000        -2.156204194525866E-011
   79.5150000000000        -2.153569740784057E-011
   79.7050000000000        -2.150662037159349E-011
   79.8950000000000        -2.147459394598045E-011
   80.0850000000000        -2.144278127773280E-011
   80.2750000000000        -2.141796353982765E-011
   80.4650000000000        -2.140496626676657E-011
   80.6550000000000        -2.140645311707233E-011
   80.8450000000000        -2.142470009574199E-011
   81.0350000000000        -2.146049237880811E-011
   81.2250000000000        -2.151321612352896E-011
   81.4150000000000        -2.158219441136266E-011
   81.6050000000000        -2.166670303956345E-011
   81.7950000000000        -2.176196043323332E-011
   81.9850000000000        -2.186352354504082E-011
   82.1750000000000        -2.196985251522076E-011
   82.3650000000000        -2.208002010662120E-011
   82.5550000000000        -2.219498710697262E-011
   82.7450000000000        -2.231282354091166E-011
   82.9350000000000        -2.242700903245347E-011
   83.1250000000000        -2.253267056512386E-011
   83.3150000000000        -2.262876278910557E-011
   83.5050000000000        -2.271570318713565E-011
   83.6950000000000        -2.279712529976007E-011
   83.8850000000000        -2.287417653474177E-011
   84.0750000000000        -2.294789593575304E-011
   84.2650000000000        -2.302144501618179E-011
   84.4550000000000        -2.309514719970249E-011
   84.6450000000000        -2.316935266542239E-011
   84.8350000000000        -2.324377068826975E-011
   85.0250000000000        -2.331746895009371E-011
   85.2150000000000        -2.338919770933634E-011
   85.4050000000000        -2.345823179032996E-011
   85.5950000000000        -2.352430741577837E-011
   85.7850000000000        -2.358835078540591E-011
   85.9750000000000        -2.365344124186216E-011
   86.1650000000000        -2.372219466349288E-011
   86.3550000000000        -2.379468917706224E-011
   86.5450000000000        -2.387056106905800E-011
   86.7350000000000        -2.394952493861242E-011
   86.9250000000000        -2.403052734511199E-011
   87.1150000000000        -2.411248801814260E-011
   87.3050000000000        -2.419450679315503E-011
   87.4950000000000        -2.427556728007756E-011
   87.6850000000000        -2.435514560084506E-011
   87.8750000000000        -2.443298384978581E-011
   88.0650000000000        -2.450885896777438E-011
   88.2550000000000        -2.458308664711464E-011
   88.4450000000000        -2.465636569910396E-011
   88.6350000000000        -2.472944080928922E-011
   88.8250000000000        -2.480305334962924E-011
   89.0150000000000        -2.487805972111957E-011
   89.2050000000000        -2.495538502197477E-011
   89.3950000000000        -2.503612537673545E-011
   89.5850000000000        -2.511883791175949E-011
   89.7750000000000        -2.519924479663644E-011
   89.9650000000000        -2.527606009670906E-011
   90.1550000000000        -2.534973686207740E-011
   90.3450000000000        -2.541999581257904E-011
   90.5350000000000        -2.548741994197467E-011
   90.7250000000000        -2.555253514473964E-011
   90.9150000000000        -2.561601193554617E-011
   91.1050000000000        -2.567845688584414E-011
   91.2950000000000        -2.573982012346206E-011
   91.4850000000000        -2.580013705425669E-011
   91.6750000000000        -2.585881812723852E-011
   91.8650000000000        -2.591443804463657E-011
   92.0550000000000        -2.596607527775096E-011
   92.2450000000000        -2.601385324728215E-011
   92.4350000000000        -2.605852891129930E-011
   92.6250000000000        -2.610048109200800E-011
   92.8150000000000        -2.613990809630016E-011
   93.0050000000000        -2.617683723376788E-011
   93.1950000000000        -2.621044789293795E-011
   93.3850000000000        -2.623900936533049E-011
   93.5750000000000        -2.626147961769196E-011
   93.7650000000000        -2.628081010810177E-011
   93.9550000000000        -2.630240174384152E-011
   94.1450000000000        -2.632923633299051E-011
   94.3350000000000        -2.636205703516188E-011
   94.5250000000000        -2.640118825285559E-011
   94.7150000000000        -2.644537142870266E-011
   94.9050000000000        -2.649336496674874E-011
   95.0950000000000        -2.654436743093224E-011
   95.2850000000000        -2.659770115566033E-011
   95.4750000000000        -2.665228368377637E-011
   95.6650000000000        -2.670832498450483E-011
   95.8550000000000        -2.676562126817491E-011
   96.0450000000000        -2.682286541058408E-011
   96.2350000000000        -2.688069340284645E-011
   96.4250000000000        -2.693931614551394E-011
   96.6150000000000        -2.699840374001913E-011
   96.8050000000000        -2.705712402460938E-011
   96.9950000000000        -2.711434347322252E-011
   97.1850000000000        -2.716910276169924E-011
   97.3750000000000        -2.722120110522868E-011
   97.5650000000000        -2.727069465998081E-011
   97.7550000000000        -2.731781958658561E-011
   97.9450000000000        -2.736339620028868E-011
   98.1350000000000        -2.740872487472110E-011
   98.3250000000000        -2.745555834232241E-011
   98.5150000000000        -2.750591718539027E-011
   98.7050000000000        -2.756090949054127E-011
   98.8950000000000        -2.762032066785142E-011
   99.0850000000000        -2.768381812809822E-011
   99.2750000000000        -2.775106325137308E-011
   99.4650000000000        -2.781953530313352E-011
   99.6550000000000        -2.788428513737174E-011
   99.8450000000000        -2.794147060156896E-011
   100.035000000000        -2.798857527802480E-011
   100.225000000000        -2.802197223681591E-011
   100.415000000000        -2.803975087985569E-011
   100.605000000000        -2.804240354428215E-011
   100.795000000000        -2.803057929614601E-011
   100.985000000000        -2.800578016239856E-011
   101.175000000000        -2.797435287420873E-011
   101.365000000000        -2.793916016999177E-011
   101.555000000000        -2.790024871463602E-011
   101.745000000000        -2.785896754506433E-011
   101.935000000000        -2.781286940047659E-011
   102.125000000000        -2.776336880463797E-011
   102.315000000000        -2.771730806607791E-011
   102.505000000000        -2.768511277258558E-011
   102.695000000000        -2.767283897304649E-011
   102.885000000000        -2.768090537103308E-011
   103.075000000000        -2.770982563431750E-011
   103.265000000000        -2.775697163503572E-011
   103.455000000000        -2.781978302761504E-011
   103.645000000000        -2.789591301662937E-011
   103.835000000000        -2.797994564775137E-011
   104.025000000000        -2.806783322756052E-011
   104.215000000000        -2.815718733339910E-011
   104.405000000000        -2.824668733520711E-011
   104.595000000000        -2.833688884969276E-011
   104.785000000000        -2.842874524106923E-011
   104.975000000000        -2.852291360001863E-011
   105.165000000000        -2.861919307409472E-011
   105.355000000000        -2.871675471453012E-011
   105.545000000000        -2.881462976370869E-011
   105.735000000000        -2.891178846447838E-011
   105.925000000000        -2.900735934238728E-011
   106.115000000000        -2.910101980452395E-011
   106.305000000000        -2.919240103563147E-011
   106.495000000000        -2.928192169764457E-011
   106.685000000000        -2.936969116222956E-011
   106.875000000000        -2.945600305445845E-011
   107.065000000000        -2.954127331101685E-011
   107.255000000000        -2.962478526664877E-011
   107.445000000000        -2.970623189778078E-011
   107.635000000000        -2.978521240026733E-011
   107.825000000000        -2.986136672808381E-011
   108.015000000000        -2.993462133510245E-011
   108.205000000000        -3.000514488417355E-011
   108.395000000000        -3.007315085986965E-011
   108.585000000000        -3.013901851511875E-011
   108.775000000000        -3.020359162558329E-011
   108.965000000000        -3.026758165213845E-011
   109.155000000000        -3.033184048082940E-011
   109.345000000000        -3.039616675920137E-011
   109.535000000000        -3.045979747175302E-011
   109.725000000000        -3.052225247350877E-011
   109.915000000000        -3.058243816015469E-011
   110.105000000000        -3.063949608691011E-011