  -1.42500000000000         0.000000000000000E+000
  -1.23500000000000         1.161639245452485E-020
  -1.04500000000000        -1.042361003127098E-019
 -0.855000000000000        -1.921308598321322E-018
 -0.665000000000000        -1.210869455434511E-017
 -0.475000000000000        -5.415332740439041E-017
 -0.285000000000000        -1.954909620979340E-016
 -9.499999999999975E-002   -6.102022414162804E-016
  9.500000000000020E-002   -1.628322303071409E-015
  0.285000000000000        -3.802015549863203E-015
  0.475000000000000        -7.921755222252378E-015
  0.665000000000000        -1.499800673672934E-014
  0.855000000000000        -2.640236022269184E-014
   1.04500000000000        -4.380240629217717E-014
   1.23500000000000        -6.871072305347325E-014
   1.42500000000000        -1.027827891413562E-013
   1.61500000000000        -1.469701375290008E-013
   1.80500000000000        -2.023350824830720E-013
   1.99500000000000        -2.700036941764566E-013
   2.18500000000000        -3.510933556801538E-013
   2.37500000000000        -4.465291247517004E-013
   2.56500000000000        -5.570010655373182E-013
   2.75500000000000        -6.829237539499158E-013
   2.94500000000000        -8.244662880681599E-013
   3.13500000000000        -9.816189047452040E-013
   3.32500000000000        -1.154305345582162E-012
   3.51500000000000        -1.342491506576425E-012
   3.70500000000000        -1.545993259235969E-012
   3.89500000000000        -1.764733879805547E-012
   4.08500000000000        -1.998604677310351E-012
   4.27500000000000        -2.247504850783275E-012
   4.46500000000000        -2.511307615271584E-012
   4.65500000000000        -2.789782413284336E-012
   4.84500000000000        -3.082554524589417E-012
   5.03500000000000        -3.389075123213226E-012
   5.22500000000000        -3.708702626906013E-012
   5.41500000000000        -4.041303627930303E-012
   5.60500000000000        -4.386185730422164E-012
   5.79500000000000        -4.742628262524282E-012
   5.98500000000000        -5.109803238957989E-012
   6.17500000000000        -5.486777951193431E-012
   6.36500000000000        -5.872448524113707E-012
   6.55500000000000        -6.265570918962862E-012
   6.74500000000000        -6.665397362582543E-012
   6.93500000000000        -7.071361159593802E-012
   7.12500000000000        -7.482982108385748E-012
   7.31500000000000        -7.900397252919085E-012
   7.50500000000000        -8.324269969267816E-012
   7.69500000000000        -8.755544391891805E-012
   7.88500000000000        -9.195685480714585E-012
   8.07500000000000        -9.646306221245965E-012
   8.26500000000000        -1.010905206812045E-011
   8.45500000000000        -1.058498042488691E-011
   8.64500000000000        -1.107499472613277E-011
   8.83500000000000        -1.158020651467514E-011
   9.02500000000000        -1.210155196189031E-011
   9.21500000000000        -1.264022143342343E-011
   9.40500000000000        -1.319627193586159E-011
   9.59500000000000        -1.376866064933707E-011
   9.78500000000000        -1.435502633577810E-011
   9.97500000000000        -1.495359832284443E-011
   10.1650000000000        -1.556252893855435E-011
   10.3550000000000        -1.617998593247889E-011
   10.5450000000000        -1.680509374654987E-011
   10.7350000000000        -1.743701126998690E-011
   10.9250000000000        -1.807552377497354E-011
   11.1150000000000        -1.872049262104538E-011
   11.3050000000000        -1.937169508448138E-011
   11.4950000000000        -2.002878836562514E-011
   11.6850000000000        -2.069134873881015E-011
   11.8750000000000        -2.135896950799741E-011
   12.0650000000000        -2.203138471747409E-011
   12.2550000000000        -2.270851463318133E-011
   12.4450000000000        -2.339043950160127E-011
   12.6350000000000        -2.407741708401270E-011
   12.8250000000000        -2.476954649155203E-011
   13.0150000000000        -2.546716429619646E-011
   13.2050000000000        -2.617050709287687E-011
   13.3950000000000        -2.687973133154160E-011
   13.5850000000000        -2.759488617263623E-011
   13.7750000000000        -2.831571104217911E-011
   13.9650000000000        -2.904173531319509E-011
   14.1550000000000        -2.977246063445096E-011
   14.3450000000000        -3.050774660122536E-011
   14.5350000000000        -3.124722821324879E-011
   14.7250000000000        -3.199081100009040E-011
   14.9150000000000        -3.273833382963532E-011
   15.1050000000000        -3.348963172447925E-011
   15.2950000000000        -3.424486212393691E-011
   15.4850000000000        -3.500482181303617E-011
   15.6750000000000        -3.577071264569002E-011
   15.8650000000000        -3.654345414844596E-011
   16.0550000000000        -3.732400677011988E-011
   16.2450000000000        -3.811344326956374E-011
   16.4350000000000        -3.891257836865674E-011
   16.6250000000000        -3.972209011072577E-011
   16.8150000000000        -4.054255786920766E-011
   17.0050000000000        -4.137451856795850E-011
   17.1950000000000        -4.221815875843973E-011
   17.3850000000000        -4.307388308480405E-011
   17.5750000000000        -4.394185019163903E-011
   17.7650000000000        -4.482238109820036E-011
   17.9550000000000        -4.571559000470370E-011
   18.1450000000000        -4.662159967742585E-011
   18.3350000000000        -4.754049039005509E-011
   18.5250000000000        -4.847233467192312E-011
   18.7150000000000        -4.941721488950698E-011
   18.9050000000000        -5.037525465645250E-011
   19.0950000000000        -5.134652493551115E-011
   19.2850000000000        -5.233102440794692E-011
   19.4750000000000        -5.332867101427671E-011
   19.6650000000000        -5.433924638275466E-011
   19.8550000000000        -5.536241307126144E-011
   20.0450000000000        -5.639773180537875E-011
   20.2350000000000        -5.744470342387402E-011
   20.4250000000000        -5.850280963352616E-011
   20.6150000000000        -5.957148307497686E-011
   20.8050000000000        -6.065002387313794E-011
   20.9950000000000        -6.173764861634509E-011
   21.1850000000000        -6.283360255047247E-011
   21.3750000000000        -6.393763152800109E-011
   21.5650000000000        -6.504904126538100E-011
   21.7550000000000        -6.616770356102923E-011
   21.9450000000000        -6.729341493550636E-011
   22.1350000000000        -6.842592226785902E-011
   22.3250000000000        -6.956514202590342E-011
   22.5150000000000        -7.071162636715172E-011
   22.7050000000000        -7.186668121116619E-011
   22.8950000000000        -7.303198193741358E-011
   23.0850000000000        -7.420925579576331E-011
   23.2750000000000        -7.540029597411038E-011
   23.4650000000000        -7.660664304198324E-011
   23.6550000000000        -7.782922435862038E-011
   23.8450000000000        -7.906957429507141E-011
   24.0350000000000        -8.032923939083302E-011
   24.2250000000000        -8.160935682108511E-011
   24.4150000000000        -8.291109745909936E-011
   24.6050000000000        -8.423521067273609E-011
   24.7950000000000        -8.558210318198171E-011
   24.9850000000000        -8.695167980829846E-011
   25.1750000000000        -8.834367701556849E-011
   25.3650000000000        -8.975744484457925E-011
   25.5550000000000        -9.119211218770810E-011
   25.7450000000000        -9.264680997945426E-011
   25.9350000000000        -9.412007419803937E-011
   26.1250000000000        -9.561036817021531E-011
   26.3150000000000        -9.711647289978151E-011
   26.5050000000000        -9.863741373371766E-011
   26.6950000000000        -1.001722104298906E-010
   26.8850000000000        -1.017200340169781E-010
   27.0750000000000        -1.032800995970214E-010
   27.2650000000000        -1.048515480102854E-010
   27.4550000000000        -1.064335887057587E-010
   27.6450000000000        -1.080257828036394E-010
   27.8350000000000        -1.096279736581735E-010
   28.0250000000000        -1.112400970258102E-010
   28.2150000000000        -1.128622135305345E-010
   28.4050000000000        -1.144943388330313E-010
   28.5950000000000        -1.161364369708852E-010
   28.7850000000000        -1.177879604822120E-010
   28.9750000000000        -1.194478866864118E-010
   29.1650000000000        -1.211146638038321E-010
   29.3550000000000        -1.227857820524810E-010
   29.5450000000000        -1.244577983080205E-010
   29.7350000000000        -1.261275595301643E-010
   29.9250000000000        -1.277921492696904E-010
   30.1150000000000        -1.294488739234972E-010
   30.3050000000000        -1.310952311166662E-010
   30.4950000000000        -1.327293659215676E-010
   30.6850000000000        -1.343506365357292E-010
   30.8750000000000        -1.359583557299787E-010
   31.0650000000000        -1.375523104318203E-010
   31.2550000000000        -1.391328693411569E-010
   31.4450000000000        -1.407022548587103E-010
   31.6350000000000        -1.422634187404608E-010
   31.8250000000000        -1.438190768222638E-010
   32.0150000000000        -1.453730871652659E-010
   32.2050000000000        -1.469285258559965E-010
   32.3950000000000        -1.484884116289563E-010
   32.5850000000000        -1.500550014626971E-010
   32.7750000000000        -1.516305527125789E-010
   32.9650000000000        -1.532162224238096E-010
   33.1550000000000        -1.548128548839706E-010
   33.3450000000000        -1.564209151168765E-010
   33.5350000000000        -1.580408939734972E-010
   33.7250000000000        -1.596733656479635E-010
   33.9150000000000        -1.613188627121283E-010
   34.1050000000000        -1.629776075283527E-010
   34.2950000000000        -1.646491621909517E-010
   34.4850000000000        -1.663325546390876E-010
   34.6750000000000        -1.680269417272463E-010
   34.8650000000000        -1.697313345755724E-010
   35.0550000000000        -1.714446502367616E-010
   35.2450000000000        -1.731657688682323E-010
   35.4350000000000        -1.748935055043701E-010
   35.6250000000000        -1.766270879448843E-010
   35.8150000000000        -1.783665048410842E-010
   36.0050000000000        -1.801122379283475E-010
   36.1950000000000        -1.818650403586292E-010
   36.3850000000000        -1.836256892938785E-010
   36.5750000000000        -1.853943364819743E-010
   36.7650000000000        -1.871715721909112E-010
   36.9550000000000        -1.889576305597322E-010
   37.1450000000000        -1.907529865848472E-010
   37.3350000000000        -1.925580593688374E-010
   37.5250000000000        -1.943731383038403E-010
   37.7150000000000        -1.961983889312890E-010
   37.9050000000000        -1.980338582221764E-010
   38.0950000000000        -1.998794769039762E-010
   38.2850000000000        -2.017351143384391E-010
   38.4750000000000        -2.036006244765261E-010
   38.6650000000000        -2.054765786747855E-010
   38.8550000000000        -2.073649237709629E-010
   39.0450000000000        -2.092676680192631E-010
   39.2350000000000        -2.111872961674340E-010
   39.4250000000000        -2.131265680945398E-010
   39.6150000000000        -2.150886455334085E-010
   39.8050000000000        -2.170752118426311E-010
   39.9950000000000        -2.190883742946651E-010
   40.1850000000000        -2.211294150855966E-010
   40.3750000000000        -2.231992058045518E-010
   40.5650000000000        -2.252979805802906E-010
   40.7550000000000        -2.274260153141555E-010
   40.9450000000000        -2.295836674825183E-010
   41.1350000000000        -2.317713444831676E-010
   41.3250000000000        -2.339888400234757E-010
   41.5150000000000        -2.362347976006451E-010
   41.7050000000000        -2.385071189682696E-010
   41.8950000000000        -2.408036467950268E-010
   42.0850000000000        -2.431217293022589E-010
   42.2750000000000        -2.454588263174965E-010
   42.4650000000000        -2.478124134478411E-010
   42.6550000000000        -2.501798460933649E-010
   42.8450000000000        -2.525587135202465E-010
   43.0350000000000        -2.549466555732262E-010
   43.2250000000000        -2.573417223073629E-010
   43.4150000000000        -2.597427054977237E-010
   43.6050000000000        -2.621478227544279E-010
   43.7950000000000        -2.645564230398629E-010
   43.9850000000000        -2.669677419704013E-010
   44.1750000000000        -2.693811345937996E-010
   44.3650000000000        -2.717958602903145E-010
   44.5550000000000        -2.742109968774465E-010
   44.7450000000000        -2.766256334767029E-010
   44.9350000000000        -2.790401050488380E-010
   45.1250000000000        -2.814565020857532E-010
   45.3150000000000        -2.838782317071077E-010
   45.5050000000000        -2.863089193783864E-010
   45.6950000000000        -2.887517017986909E-010
   45.8850000000000        -2.912086705668801E-010
   46.0750000000000        -2.936815585451001E-010
   46.2650000000000        -2.961712913252052E-010
   46.4550000000000        -2.986783011471390E-010
   46.6450000000000        -3.012030024902597E-010
   46.8350000000000        -3.037459678713730E-010
   47.0250000000000        -3.063075636725350E-010
   47.2150000000000        -3.088868322896923E-010
   47.4050000000000        -3.114816698916090E-010
   47.5950000000000        -3.140893357613559E-010
   47.7850000000000        -3.167070954347521E-010
   47.9750000000000        -3.193327035424512E-010
   48.1650000000000        -3.219638582981657E-010
   48.3550000000000        -3.245986610455503E-010
   48.5450000000000        -3.272349912361144E-010
   48.7350000000000        -3.298719758608484E-010
   48.9250000000000        -3.325087643382467E-010
   49.1150000000000        -3.351447806077218E-010
   49.3050000000000        -3.377796584379143E-010
   49.4950000000000        -3.404127296615351E-010
   49.6850000000000        -3.430437735366033E-010
   49.8750000000000        -3.456737423969869E-010
   50.0650000000000        -3.483051281951598E-010
   50.2550000000000        -3.509404760289547E-010
   50.4450000000000        -3.535827855386131E-010
   50.6350000000000        -3.562351766612947E-010
   50.8250000000000        -3.588988505786261E-010
   51.0150000000000        -3.615758312622689E-010
   51.2050000000000        -3.642664863288645E-010
   51.3950000000000        -3.669714252603078E-010
   51.5850000000000        -3.696917231750352E-010
   51.7750000000000        -3.724290464880247E-010
   51.9650000000000        -3.751837162290890E-010
   52.1550000000000        -3.779544430867041E-010
   52.3450000000000        -3.807390479875333E-010
   52.5350000000000        -3.835348542603166E-010
   52.7250000000000        -3.863399108343582E-010
   52.9150000000000        -3.891524964568520E-010
   53.1050000000000        -3.919716806520848E-010
   53.2950000000000        -3.947970017996391E-010
   53.4850000000000        -3.976280226753012E-010
   53.6750000000000        -4.004647351611407E-010
   53.8650000000000        -4.033076986264325E-010
   54.0550000000000        -4.061578990170094E-010
   54.2450000000000        -4.090166002794055E-010
   54.4350000000000        -4.118853811898354E-010
   54.6250000000000        -4.147660572341509E-010
   54.8150000000000        -4.176604097381587E-010
   55.0050000000000        -4.205702219234496E-010
   55.1950000000000        -4.234972087737947E-010
   55.3850000000000        -4.264423938888196E-010
   55.5750000000000        -4.294069482682050E-010
   55.7650000000000        -4.323916550720598E-010
   55.9550000000000        -4.353971154664630E-010
   56.1450000000000        -4.384237770510680E-010
   56.3350000000000        -4.414714416365931E-010
   56.5250000000000        -4.445390130649572E-010
   56.7150000000000        -4.476245102296088E-010
   56.9050000000000        -4.507262417056840E-010
   57.0950000000000        -4.538423201920411E-010
   57.2850000000000        -4.569702343601671E-010
   57.4750000000000        -4.601087172411151E-010
   57.6650000000000        -4.632566269976596E-010
   57.8550000000000        -4.664125325113382E-010
   58.0450000000000        -4.695753081662967E-010
   58.2350000000000        -4.727443807002125E-010
   58.4250000000000        -4.759192178402257E-010
   58.6150000000000        -4.790992763840768E-010
   58.8050000000000        -4.822841609363989E-010
   58.9950000000000        -4.854735961613571E-010
   59.1850000000000        -4.886674015683085E-010
   59.3750000000000        -4.918654982806444E-010
   59.5650000000000        -4.950678672894767E-010
   59.7550000000000        -4.982745330181637E-010
   59.9450000000000        -5.014855929251535E-010
   60.1350000000000        -5.047012154176385E-010
   60.3250000000000        -5.079216901421523E-010
   60.5150000000000        -5.111474971334534E-010
   60.7050000000000        -5.143792059037623E-010
   60.8950000000000        -5.176173124050272E-010
   61.0850000000000        -5.208619377610066E-010
   61.2750000000000        -5.241127220313832E-010
   61.4650000000000        -5.273687582200788E-010
   61.6550000000000        -5.306291196920436E-010
   61.8450000000000        -5.338930071649664E-010
   62.0350000000000        -5.371593585033675E-010
   62.2250000000000        -5.404278387037773E-010
   62.4150000000000        -5.436980589879386E-010
   62.6050000000000        -5.469694882985640E-010
   62.7950000000000        -5.502417793358880E-010
   62.9850000000000        -5.535149628212054E-010
   63.1750000000000        -5.567890002641524E-010
   63.3650000000000        -5.600639151757006E-010
   63.5550000000000        -5.633397455829636E-010
   63.7450000000000        -5.666165885271917E-010
   63.9350000000000        -5.698946544320723E-010
   64.1250000000000        -5.731742739593121E-010
   64.3150000000000        -5.764558627910571E-010
   64.5050000000000        -5.797398770762923E-010
   64.6950000000000        -5.830269036172850E-010
   64.8850000000000        -5.863177226087746E-010
   65.0750000000000        -5.896129042426214E-010
   65.2650000000000        -5.929127306297378E-010
   65.4550000000000        -5.962177336478940E-010
   65.6450000000000        -5.995284992413681E-010
   65.8350000000000        -6.028455188886077E-010
   66.0250000000000        -6.061692837459453E-010
   66.2150000000000        -6.095002014226538E-010
   66.4050000000000        -6.128385804859126E-010
   66.5950000000000        -6.161846123080893E-010
   66.7850000000000        -6.195382842349730E-010
   66.9750000000000        -6.228996328770993E-010
   67.1650000000000        -6.262685939316287E-010
   67.3550000000000        -6.296451430543633E-010
   67.5450000000000        -6.330293317936068E-010
   67.7350000000000        -6.364213135354054E-010
   67.9250000000000        -6.398213293126148E-010
   68.1150000000000        -6.432296613188219E-010
   68.3050000000000        -6.466466108560234E-010
   68.4950000000000        -6.500724736361378E-010
   68.6850000000000        -6.535075300704737E-010
   68.8750000000000        -6.569519730335299E-010
   69.0650000000000        -6.604059193134512E-010
   69.2550000000000        -6.638695333332443E-010
   69.4450000000000        -6.673431605207826E-010
   69.6350000000000        -6.708272698484417E-010
   69.8250000000000        -6.743224180831365E-010
   70.0150000000000        -6.778291036719189E-010
   70.2050000000000        -6.813479411942372E-010
   70.3950000000000        -6.848795530677820E-010
   70.5850000000000        -6.884247048168618E-010
   70.7750000000000        -6.919841426285870E-010
   70.9650000000000        -6.955587617556643E-010
   71.1550000000000        -6.991494550610176E-010
   71.3450000000000        -7.027575242958775E-010
   71.5350000000000        -7.063840800336939E-010
   71.7250000000000        -7.100305913056562E-010
   71.9150000000000        -7.136978054047810E-010
   72.1050000000000        -7.173869796150097E-010
   72.2950000000000        -7.210984618369892E-010
   72.4850000000000        -7.248326045434682E-010
   72.6750000000000        -7.285896005643474E-010
   72.8650000000000        -7.323694609362453E-010
   73.0550000000000        -7.361723370296824E-010
   73.2450000000000        -7.399983456970394E-010
   73.4350000000000        -7.438476355001558E-010
   73.6250000000000        -7.477203803087325E-010
   73.8150000000000        -7.516165120138986E-010
   74.0050000000000        -7.555354927746527E-010
   74.1950000000000        -7.594759006609071E-010
   74.3850000000000        -7.634358100548704E-010
   74.5750000000000        -7.674131552476272E-010
   74.7650000000000        -7.714055895413156E-010
   74.9550000000000        -7.754106139925809E-010
   75.1450000000000        -7.794260970486483E-010
   75.3350000000000        -7.834502075993294E-010
   75.5250000000000        -7.874825772793704E-010
   75.7150000000000        -7.915218014244018E-010
   75.9050000000000        -7.955678172990353E-010
   76.0950000000000        -7.996204651197072E-010
   76.2850000000000        -8.036794630221981E-010
   76.4750000000000        -8.077445618989856E-010
   76.6650000000000        -8.118157414917880E-010
   76.8550000000000        -8.158931652124386E-010
   77.0450000000000        -8.199769650346367E-010
   77.2350000000000        -8.240672206584469E-010
   77.4250000000000        -8.281640136229856E-010
   77.6150000000000        -8.322670950811444E-010
   77.8050000000000        -8.363754460565101E-010
   77.9950000000000        -8.404876169143465E-010
   78.1850000000000        -8.446020583962957E-010
   78.3750000000000        -8.487170682916196E-010
   78.5650000000000        -8.528308692051914E-010
   78.7550000000000        -8.569420971547490E-010
   78.9450000000000        -8.610497665136080E-010
   79.1350000000000        -8.651534683126046E-010
   79.3250000000000        -8.692526533725423E-010
   79.5150000000000        -8.733470442518032E-010
   79.7050000000000        -8.774362183875221E-010
   79.8950000000000        -8.815195599930086E-010
   80.0850000000000        -8.855965640869947E-010
   80.2750000000000        -8.896678168785467E-010
   80.4650000000000        -8.937353902321291E-010
   80.6550000000000        -8.978017040599181E-010
   80.8450000000000        -9.018698424166162E-010
   81.0350000000000        -9.059430900963001E-010
   81.2250000000000        -9.100248295205637E-010
   81.4150000000000        -9.141181122232413E-010
   81.6050000000000        -9.182260633968815E-010
   81.7950000000000        -9.223514593782752E-010
   81.9850000000000        -9.264956083615101E-010
   82.1750000000000        -9.306595983253910E-010
   82.3650000000000        -9.348441523172941E-010
   82.5550000000000        -9.390500059659070E-010
   82.7450000000000        -9.432782474179439E-010
   82.9350000000000        -9.475288789114534E-010
   83.1250000000000        -9.518005108502759E-010
   83.3150000000000        -9.560912937262004E-010
   83.5050000000000        -9.603994407101363E-010
   83.6950000000000        -9.647232609373123E-010
   83.8850000000000        -9.690623483240451E-010
   84.0750000000000        -9.734154480205139E-010
   84.2650000000000        -9.777825487796312E-010
   84.4550000000000        -9.821635971266632E-010
   84.6450000000000        -9.865587047155182E-010
   84.8350000000000        -9.909679511395235E-010
   85.0250000000000        -9.953913375770608E-010
   85.2150000000000        -9.998285893405592E-010
   85.4050000000000        -1.004279232706608E-009
   85.5950000000000        -1.008742717420885E-009
   85.7850000000000        -1.013218469524605E-009
   85.9750000000000        -1.017706290719339E-009
   86.1650000000000        -1.022206777196512E-009
   86.3550000000000        -1.026720724691466E-009
   86.5450000000000        -1.031248759083796E-009
   86.7350000000000        -1.035791537897709E-009
   86.9250000000000        -1.040349578560468E-009
   87.1150000000000        -1.044923138288851E-009
   87.3050000000000        -1.049512324007362E-009
   87.4950000000000        -1.054117050870250E-009
   87.6850000000000        -1.058737039573792E-009
   87.8750000000000        -1.063372006198571E-009
   88.0650000000000        -1.068021573436711E-009
   88.2550000000000        -1.072685372606325E-009
   88.4450000000000        -1.077363146362615E-009
   88.6350000000000        -1.082054791571985E-009
   88.8250000000000        -1.086760333870144E-009
   89.0150000000000        -1.091479951844844E-009
   89.2050000000000        -1.096213996564170E-009
   89.3950000000000        -1.100962998153194E-009
   89.5850000000000        -1.105727724207329E-009
   89.7750000000000        -1.110508156559663E-009
   89.9650000000000        -1.115303437230051E-009
   90.1550000000000        -1.120113059396412E-009
   90.3450000000000        -1.124936337237640E-009
   90.5350000000000        -1.129772657805192E-009
   90.7250000000000        -1.134621556815590E-009
   90.9150000000000        -1.139482621160193E-009
   91.1050000000000        -1.144355641351098E-009
   91.2950000000000        -1.149240434776814E-009
   91.4850000000000        -1.154136772998014E-009
   91.6750000000000        -1.159044486857431E-009
   91.8650000000000        -1.163963123886364E-009
   92.0550000000000        -1.168891973314393E-009
   92.2450000000000        -1.173830232491909E-009
   92.4350000000000        -1.178777237548360E-009
   92.6250000000000        -1.183732473478203E-009
   92.8150000000000        -1.188695420363323E-009
   93.0050000000000        -1.193665638554797E-009
   93.1950000000000        -1.198642618512155E-009
   93.3850000000000        -1.203625608754113E-009
   93.5750000000000        -1.208613442070980E-009
   93.7650000000000        -1.213604971008836E-009
   93.9550000000000        -1.218600149912059E-009
   94.1450000000000        -1.223599883671496E-009
   94.3350000000000        -1.228605259718596E-009
   94.5250000000000        -1.233617465344858E-009
   94.7150000000000        -1.238637711254681E-009
   94.9050000000000        -1.243666706487765E-009
   95.0950000000000        -1.248705189942046E-009
   95.2850000000000        -1.253753566111519E-009
   95.4750000000000        -1.258812316381197E-009
   95.6650000000000        -1.263881433911354E-009
   95.8550000000000        -1.268961479875308E-009
   96.0450000000000        -1.274052369993261E-009
   96.2350000000000        -1.279154168731330E-009
   96.4250000000000        -1.284267033486342E-009
   96.6150000000000        -1.289391108866626E-009
   96.8050000000000        -1.294526426907549E-009
   96.9950000000000        -1.299672815995977E-009
   97.1850000000000        -1.304829877427374E-009
   97.3750000000000        -1.309997075045423E-009
   97.5650000000000        -1.315173933847360E-009
   97.7550000000000        -1.320359939016215E-009
   97.9450000000000        -1.325554705290264E-009
   98.1350000000000        -1.330758029572325E-009
   98.3250000000000        -1.335970020742658E-009
   98.5150000000000        -1.341191141742407E-009
   98.7050000000000        -1.346422269273106E-009
   98.8950000000000        -1.351664287348813E-009
   99.0850000000000        -1.356917991126889E-009
   99.2750000000000        -1.362184138237490E-009
   99.4650000000000        -1.367463395162411E-009
   99.6550000000000        -1.372755561652681E-009
   99.8450000000000        -1.378059423514612E-009
   100.035000000000        -1.383373320481278E-009
   100.225000000000        -1.388695082120262E-009
   100.415000000000        -1.394021669931268E-009
   100.605000000000        -1.399350187454607E-009
   100.795000000000        -1.404677783278095E-009
   100.985000000000        -1.410001807587143E-009
   101.175000000000        -1.415319979739806E-009
   101.365000000000        -1.420632061679342E-009
   101.555000000000        -1.425936860604404E-009
   101.745000000000        -1.431234156190904E-009
   101.935000000000        -1.436523268271528E-009
   102.125000000000        -1.441803046563085E-009
   102.315000000000        -1.447073348417290E-009
   102.505000000000        -1.452335623628195E-009
   102.695000000000        -1.457593691270873E-009
   102.885000000000        -1.462851302437953E-009
   103.075000000000        -1.468112435311865E-009
   103.265000000000        -1.473381036178993E-009
   103.455000000000        -1.478660084533179E-009
   103.645000000000        -1.483952553729487E-009
   103.835000000000        -1.489260531479498E-009
   104.025000000000        -1.494584933075632E-009
   104.215000000000        -1.499926308105972E-009
   104.405000000000        -1.505284664262323E-009
   104.595000000000        -1.510660049293349E-009
   104.785000000000        -1.516052682025206E-009
   104.975000000000        -1.521462972484955E-009
   105.165000000000        -1.526891389193214E-009
   105.355000000000        -1.532338265853112E-009
   105.545000000000        -1.537803755984735E-009
   105.735000000000        -1.543287825163321E-009
   105.925000000000        -1.548790235601237E-009
   106.115000000000        -1.554310621713428E-009
   106.305000000000        -1.559848623126956E-009
   106.495000000000        -1.565403734106968E-009
   106.685000000000        -1.570975753372061E-009
   106.875000000000        -1.576564216748616E-009
   107.065000000000        -1.582169034532755E-009
   107.255000000000        -1.587789900606802E-009
   107.445000000000        -1.593426452934082E-009
   107.635000000000        -1.599078268727959E-009
   107.825000000000        -1.604744833646183E-009
   108.015000000000        -1.610425588084631E-009
   108.205000000000        -1.616119989753522E-009
   108.395000000000        -1.621827543140617E-009
   108.585000000000        -1.627547787080273E-009
   108.775000000000        -1.633280370176362E-009
   108.965000000000        -1.639025151897995E-009
   109.155000000000        -1.644782051204174E-009
   109.345000000000        -1.650551251280709E-009
   109.535000000000        -1.656332594572671E-009
   109.725000000000        -1.662125974319975E-009
   109.915000000000        -1.667931050512604E-009
   110.105000000000        -1.673747300820834E-009