  -1.42500000000000        -8.403598180878712E-019
  -1.23500000000000         5.337549778704019E-018
  -1.04500000000000         2.084755835317406E-017
 -0.855000000000000         8.877400758118262E-017
 -0.665000000000000         3.334733663003023E-016
 -0.475000000000000         1.272138214022099E-015
 -0.285000000000000         3.639408034968368E-015
 -9.499999999999975E-002    8.897086398570020E-015
  9.500000000000020E-002    1.843925623972545E-014
  0.285000000000000         3.815076479276496E-014
  0.475000000000000         5.776218557269503E-014
  0.665000000000000         6.678517295026520E-014
  0.855000000000000         1.007933064215875E-013
   1.04500000000000         1.505321134770294E-013
   1.23500000000000         2.672191939268186E-013
   1.42500000000000         2.475621435156206E-013
   1.61500000000000         2.892703627900656E-013
   1.80500000000000         3.268326208802347E-013
   1.99500000000000         3.856503150586840E-013
   2.18500000000000         4.444413959039815E-013
   2.37500000000000         5.031482226087108E-013
   2.56500000000000         5.597272195314847E-013
   2.75500000000000         6.161105921313415E-013
   2.94500000000000         6.708431298766306E-013
   3.13500000000000         7.185177699412438E-013
   3.32500000000000         7.242228047663280E-013
   3.51500000000000         7.420019977386409E-013
   3.70500000000000         7.499089748258003E-013
   3.89500000000000         7.589902643919038E-013
   4.08500000000000         7.656594412052123E-013
   4.27500000000000         7.697800108895675E-013
   4.46500000000000         7.682572456660380E-013
   4.65500000000000         7.540225374314301E-013
   4.84500000000000         7.301464799204577E-013
   5.03500000000000         7.043650927647173E-013
   5.22500000000000         7.039312168786529E-013
   5.41500000000000         6.748063499645087E-013
   5.60500000000000         6.311417318738252E-013
   5.79500000000000         5.946291760262794E-013
   5.98500000000000         5.519136347293124E-013
   6.17500000000000         4.658584562937053E-013
   6.36500000000000         3.576448443943220E-013
   6.55500000000000         3.393657343073819E-013
   6.74500000000000         3.119233228937505E-013
   6.93500000000000         2.461272809990798E-013
   7.12500000000000         1.973882406179555E-013
   7.31500000000000         1.818720553491092E-013
   7.50500000000000         1.911950958027702E-013
   7.69500000000000         1.987227046274063E-013
   7.88500000000000         2.190545876860480E-013
   8.07500000000000         2.408548743843568E-013
   8.26500000000000         2.427745685609859E-013
   8.45500000000000         2.489757527577960E-013
   8.64500000000000         2.800289104811899E-013
   8.83500000000000         3.185381023280053E-013
   9.02500000000000         4.232139193606397E-013
   9.21500000000000         4.713267107511124E-013
   9.40500000000000         4.441844296512028E-013
   9.59500000000000         4.556852830436822E-013
   9.78500000000000         4.994292413491625E-013
   9.97500000000000         5.092118264211965E-013
   10.1650000000000         5.078864029931662E-013
   10.3550000000000         5.099350369990893E-013
   10.5450000000000         5.157734785262385E-013
   10.7350000000000         5.197543421911556E-013
   10.9250000000000         5.253775487746700E-013
   11.1150000000000         5.308801053957290E-013
   11.3050000000000         5.357226314247510E-013
   11.4950000000000         5.429429101185976E-013
   11.6850000000000         5.510067542699088E-013
   11.8750000000000         5.583927827025179E-013
   12.0650000000000         5.647608504001178E-013
   12.2550000000000         5.692067968794244E-013
   12.4450000000000         5.692701779502582E-013
   12.6350000000000         5.665403325197341E-013
   12.8250000000000         5.571807254301668E-013
   13.0150000000000         5.221563569499323E-013
   13.2050000000000         4.973628479628825E-013
   13.3950000000000         4.576366469196616E-013
   13.5850000000000         4.133804383539548E-013
   13.7750000000000         3.599488760711374E-013
   13.9650000000000         3.110497955077397E-013
   14.1550000000000         2.796947409961870E-013
   14.3450000000000         2.572550517658991E-013
   14.5350000000000         2.438987026602519E-013
   14.7250000000000         2.370852077730765E-013
   14.9150000000000         2.410226476486220E-013
   15.1050000000000         2.497381946831110E-013
   15.2950000000000         3.011298434014190E-013
   15.4850000000000         3.674883708338214E-013
   15.6750000000000         3.800273785763425E-013
   15.8650000000000         4.173964416328310E-013
   16.0550000000000         4.750896125436809E-013
   16.2450000000000         4.833874389944608E-013
   16.4350000000000         5.101660516096809E-013
   16.6250000000000         5.424831219033203E-013
   16.8150000000000         5.762843236297419E-013
   17.0050000000000         5.879435351871860E-013
   17.1950000000000         6.066534300373620E-013
   17.3850000000000         6.183340699765019E-013
   17.5750000000000         6.386349276695223E-013
   17.7650000000000         6.456508687614176E-013
   17.9550000000000         6.579673552507356E-013
   18.1450000000000         6.683382628886196E-013
   18.3350000000000         6.776287826490932E-013
   18.5250000000000         6.846390391897073E-013
   18.7150000000000         6.872695723579841E-013
   18.9050000000000         6.696541995993535E-013
   19.0950000000000         6.435881511829613E-013
   19.2850000000000         6.109384643315087E-013
   19.4750000000000         5.734080374366922E-013
   19.6650000000000         5.282247957901382E-013
   19.8550000000000         4.759426211754780E-013
   20.0450000000000         4.169496339467929E-013
   20.2350000000000         3.612095735537077E-013
   20.4250000000000         3.124131837846790E-013
   20.6150000000000         2.662476585693618E-013
   20.8050000000000         2.231649846090962E-013
   20.9950000000000         1.851939138534353E-013
   21.1850000000000         1.511474823319485E-013
   21.3750000000000         1.212656590905158E-013
   21.5650000000000         1.075187500498247E-013
   21.7550000000000         1.042676931308074E-013
   21.9450000000000         9.191959262036574E-014
   22.1350000000000         8.676842985260049E-014
   22.3250000000000         1.132008445531974E-013
   22.5150000000000         1.529844110505685E-013
   22.7050000000000         1.910247894941468E-013
   22.8950000000000         2.216324887446997E-013
   23.0850000000000         2.772062596854762E-013
   23.2750000000000         3.529362278643893E-013
   23.4650000000000         3.147534916425010E-013
   23.6550000000000         3.989085093164880E-013
   23.8450000000000         4.801914982199281E-013
   24.0350000000000         5.149403612191149E-013
   24.2250000000000         6.063829050320835E-013
   24.4150000000000         6.699228354554159E-013
   24.6050000000000         7.704695873370078E-013
   24.7950000000000         7.286607653868547E-013
   24.9850000000000         7.945896376638872E-013
   25.1750000000000         7.800702956971762E-013
   25.3650000000000         7.946639382410529E-013
   25.5550000000000         7.985494826120447E-013
   25.7450000000000         7.917500455836024E-013
   25.9350000000000         7.828787807407951E-013
   26.1250000000000         7.691307789908484E-013
   26.3150000000000         7.499938200047129E-013
   26.5050000000000         7.311102531933893E-013
   26.6950000000000         7.085138816514252E-013
   26.8850000000000         6.797496885798848E-013
   27.0750000000000         6.415121453512051E-013
   27.2650000000000         6.084645852424405E-013
   27.4550000000000         5.823115108636076E-013
   27.6450000000000         5.529383363676372E-013
   27.8350000000000         5.369441512051053E-013
   28.0250000000000         4.927581574014511E-013
   28.2150000000000         4.539963631115073E-013
   28.4050000000000         4.073968887586025E-013
   28.5950000000000         3.023590634840498E-013
   28.7850000000000         2.359479326809559E-013
   28.9750000000000         2.357494940652007E-013
   29.1650000000000         1.787328202773512E-013
   29.3550000000000         1.224713328116005E-013
   29.5450000000000         8.759034171273998E-014
   29.7350000000000         5.436221205088891E-014
   29.9250000000000         3.191650884030040E-014
   30.1150000000000         1.960532665432458E-014
   30.3050000000000         3.383059791441261E-014
   30.4950000000000         6.432688443454626E-014
   30.6850000000000         5.344124958089227E-014
   30.8750000000000         1.293386719473346E-013
   31.0650000000000         1.685979250456804E-013
   31.2550000000000         2.197120230645241E-013
   31.4450000000000         3.427335909216571E-013
   31.6350000000000         4.209384951425231E-013
   31.8250000000000         4.894551467475193E-013
   32.0150000000000         5.177628524811833E-013
   32.2050000000000         6.473405729884918E-013
   32.3950000000000         7.511451575551302E-013
   32.5850000000000         7.838643711978845E-013
   32.7750000000000         7.594427277419321E-013
   32.9650000000000         7.976354305112691E-013
   33.1550000000000         8.364909387064430E-013
   33.3450000000000         8.572778099403895E-013
   33.5350000000000         8.834091530023541E-013
   33.7250000000000         8.904241131286588E-013
   33.9150000000000         8.829421645243779E-013
   34.1050000000000         8.613501674104567E-013
   34.2950000000000         8.270925008178807E-013
   34.4850000000000         7.837827086397914E-013
   34.6750000000000         7.319067608528742E-013
   34.8650000000000         6.798189142263716E-013
   35.0550000000000         6.244694441866861E-013
   35.2450000000000         5.687775094641865E-013
   35.4350000000000         4.811046788987244E-013
   35.6250000000000         4.396893320848270E-013
   35.8150000000000         4.045024327050025E-013
   36.0050000000000         4.078041496584428E-013
   36.1950000000000         3.783262988380628E-013
   36.3850000000000         3.370504303825716E-013
   36.5750000000000         3.257360000426947E-013
   36.7650000000000         3.067402147507564E-013
   36.9550000000000         2.899236839788498E-013
   37.1450000000000         2.604150493289248E-013
   37.3350000000000         2.386881125962739E-013
   37.5250000000000         2.209729381702986E-013
   37.7150000000000         2.107835548477312E-013
   37.9050000000000         2.097498999086734E-013
   38.0950000000000         2.141872023427427E-013
   38.2850000000000         2.222710241015618E-013
   38.4750000000000         3.284708387647384E-013
   38.6650000000000         3.289106822180873E-013
   38.8550000000000         3.664788293688573E-013
   39.0450000000000         4.243969586524240E-013
   39.2350000000000         4.868632110533113E-013
   39.4250000000000         5.548804794430261E-013
   39.6150000000000         5.854781109340678E-013
   39.8050000000000         6.626536472930407E-013
   39.9950000000000         6.428080569833678E-013
   40.1850000000000         6.595550252924252E-013
   40.3750000000000         6.707813340939632E-013
   40.5650000000000         6.812349423122519E-013
   40.7550000000000         6.859941860739287E-013
   40.9450000000000         6.813247114505808E-013
   41.1350000000000         6.481410104788526E-013
   41.3250000000000         6.031828576428946E-013
   41.5150000000000         5.532482606658776E-013
   41.7050000000000         5.425207790166045E-013
   41.8950000000000         5.156791015570251E-013
   42.0850000000000         5.015656430943157E-013
   42.2750000000000         4.901785848843296E-013
   42.4650000000000         4.796530695726256E-013
   42.6550000000000         4.606961648573704E-013
   42.8450000000000         4.514477352658583E-013
   43.0350000000000         4.313582348165236E-013
   43.2250000000000         4.412091605819680E-013
   43.4150000000000         4.307867546194837E-013
   43.6050000000000         4.294507297911541E-013
   43.7950000000000         4.316416936548179E-013
   43.9850000000000         4.212458604991999E-013
   44.1750000000000         4.040880307898091E-013
   44.3650000000000         3.818941660558180E-013
   44.5550000000000         3.616562596929067E-013
   44.7450000000000         3.939309577137170E-013
   44.9350000000000         4.161602349163226E-013
   45.1250000000000         4.469829300843166E-013
   45.3150000000000         4.832533614573808E-013
   45.5050000000000         5.170004662020084E-013
   45.6950000000000         5.740434852982204E-013
   45.8850000000000         6.452067729444705E-013
   46.0750000000000         6.071971146091519E-013
   46.2650000000000         6.332115938438706E-013
   46.4550000000000         6.639274679321547E-013
   46.6450000000000         6.866111173897368E-013
   46.8350000000000         6.829630123201995E-013
   47.0250000000000         6.491795995068411E-013
   47.2150000000000         6.414523496628235E-013
   47.4050000000000         6.089080184630443E-013
   47.5950000000000         5.780647782513729E-013
   47.7850000000000         5.445985754149740E-013
   47.9750000000000         4.748035818688315E-013
   48.1650000000000         3.945867168047665E-013
   48.3550000000000         3.642806500504856E-013
   48.5450000000000         3.733454827519353E-013
   48.7350000000000         3.394062203990982E-013
   48.9250000000000         2.986328615791194E-013
   49.1150000000000         2.772770772964893E-013
   49.3050000000000         2.503443446158015E-013
   49.4950000000000         1.895067930333245E-013
   49.6850000000000         1.848673810172313E-013
   49.8750000000000         1.919147602886026E-013
   50.0650000000000         1.598370869449764E-013
   50.2550000000000         1.562119570771899E-013
   50.4450000000000         1.629475570923737E-013
   50.6350000000000         1.804264447298946E-013
   50.8250000000000         2.131684740305491E-013
   51.0150000000000         2.143845623942564E-013
   51.2050000000000         2.193200964697766E-013
   51.3950000000000         2.522497621696391E-013
   51.5850000000000         3.370333861047286E-013
   51.7750000000000         4.264688695222291E-013
   51.9650000000000         3.872800001475187E-013
   52.1550000000000         4.264832208687763E-013
   52.3450000000000         4.974115878495103E-013
   52.5350000000000         5.835968264503840E-013
   52.7250000000000         6.694353030630228E-013
   52.9150000000000         6.809131146547600E-013
   53.1050000000000         7.197456345181768E-013
   53.2950000000000         7.431874415748203E-013
   53.4850000000000         8.230745640228807E-013
   53.6750000000000         9.157044890149003E-013
   53.8650000000000         9.194531648860813E-013
   54.0550000000000         9.362830390469114E-013
   54.2450000000000         9.420284576354701E-013
   54.4350000000000         9.422886429466176E-013
   54.6250000000000         9.269913868839232E-013
   54.8150000000000         9.063574981055558E-013
   55.0050000000000         8.732340152350298E-013
   55.1950000000000         8.761354123941034E-013
   55.3850000000000         8.690484002582551E-013
   55.5750000000000         8.626637211953507E-013
   55.7650000000000         8.414893920342431E-013
   55.9550000000000         8.154345773493755E-013
   56.1450000000000         7.092840656896281E-013
   56.3350000000000         5.827413020544931E-013
   56.5250000000000         5.113218360584273E-013
   56.7150000000000         4.541253306877975E-013
   56.9050000000000         3.609062406521223E-013
   57.0950000000000         3.063874889756848E-013
   57.2850000000000         2.960990857485117E-013
   57.4750000000000         2.783916872359309E-013
   57.6650000000000         2.299742639536545E-013
   57.8550000000000         1.897678843125870E-013
   58.0450000000000         1.402884583232662E-013
   58.2350000000000         1.136283803241258E-013
   58.4250000000000         8.806945490143152E-014
   58.6150000000000         7.390210245025057E-014
   58.8050000000000         7.448797030906376E-014
   58.9950000000000         8.225970533977523E-014
   59.1850000000000         8.975589877119991E-014
   59.3750000000000         8.852326056690148E-014
   59.5650000000000         8.149098373054164E-014
   59.7550000000000         7.705589433493914E-014
   59.9450000000000         8.080539133173444E-014
   60.1350000000000         9.455078591609033E-014
   60.3250000000000         1.181767076567117E-013
   60.5150000000000         1.367889929486808E-013
   60.7050000000000         1.610916026991486E-013
   60.8950000000000         2.821430195574277E-013
   61.0850000000000         3.526722350792046E-013
   61.2750000000000         4.458391361977088E-013
   61.4650000000000         5.461203054276279E-013
   61.6550000000000         5.935138690631615E-013
   61.8450000000000         6.582991495849018E-013
   62.0350000000000         6.823693393587079E-013
   62.2250000000000         7.039527343776617E-013
   62.4150000000000         7.008802620937707E-013
   62.6050000000000         7.413721273211789E-013
   62.7950000000000         7.754959702110229E-013
   62.9850000000000         7.720417540875826E-013
   63.1750000000000         7.785098990005527E-013
   63.3650000000000         7.832027628703451E-013
   63.5550000000000         7.886222403643552E-013
   63.7450000000000         7.901919622889359E-013
   63.9350000000000         7.672234533958084E-013
   64.1250000000000         7.114169670302336E-013
   64.3150000000000         6.329270681802524E-013
   64.5050000000000         5.855675511182340E-013
   64.6950000000000         4.740045477257932E-013
   64.8850000000000         5.408276615532817E-013
   65.0750000000000         4.658512609607598E-013
   65.2650000000000         4.249672699614331E-013
   65.4550000000000         4.220012059930042E-013
   65.6450000000000         3.916638649339277E-013
   65.8350000000000         3.706860769375426E-013
   66.0250000000000         3.564842234553797E-013
   66.2150000000000         3.319417788088626E-013
   66.4050000000000         2.991225064536549E-013
   66.5950000000000         2.814057041513845E-013
   66.7850000000000         2.522513172624725E-013
   66.9750000000000         2.357643039939067E-013
   67.1650000000000         2.226706549665446E-013
   67.3550000000000         2.096452653073852E-013
   67.5450000000000         1.965029690924303E-013
   67.7350000000000         1.906359565993020E-013
   67.9250000000000         1.970856955540109E-013
   68.1150000000000         2.272600143563999E-013
   68.3050000000000         2.841580054302787E-013
   68.4950000000000         3.669689922396615E-013
   68.6850000000000         4.404739081499495E-013
   68.8750000000000         4.902084376113462E-013
   69.0650000000000         5.300591766335980E-013
   69.2550000000000         5.796137992037390E-013
   69.4450000000000         6.217607271952161E-013
   69.6350000000000         6.556538695795692E-013
   69.8250000000000         6.751182012753505E-013
   70.0150000000000         6.745867813297369E-013
   70.2050000000000         6.653548238285592E-013
   70.3950000000000         6.631948184880031E-013
   70.5850000000000         6.687942024353477E-013
   70.7750000000000         6.725032448244717E-013
   70.9650000000000         6.673791348786485E-013
   71.1550000000000         6.263222740691962E-013
   71.3450000000000         6.408065537852185E-013
   71.5350000000000         6.161677880339042E-013
   71.7250000000000         6.362030264954243E-013
   71.9150000000000         6.379870270558378E-013
   72.1050000000000         6.325290081945086E-013
   72.2950000000000         6.215501768027863E-013
   72.4850000000000         6.072634814421658E-013
   72.6750000000000         6.036825482707428E-013
   72.8650000000000         6.114317077466904E-013
   73.0550000000000         6.260758280545819E-013
   73.2450000000000         6.396627982835488E-013
   73.4350000000000         6.438204715976704E-013
   73.6250000000000         6.364699260299913E-013
   73.8150000000000         6.436667230163923E-013
   74.0050000000000         6.622019223650621E-013
   74.1950000000000         6.741911123046204E-013
   74.3850000000000         6.614599356497161E-013
   74.5750000000000         6.410853151760306E-013
   74.7650000000000         6.140707911342315E-013
   74.9550000000000         5.884703360447389E-013
   75.1450000000000         5.806902852488417E-013
   75.3350000000000         5.973667102267579E-013
   75.5250000000000         5.935690526123513E-013
   75.7150000000000         5.851759254612823E-013
   75.9050000000000         5.731369902890009E-013
   76.0950000000000         5.549800259411095E-013
   76.2850000000000         5.500940460043401E-013
   76.4750000000000         5.563697094048958E-013
   76.6650000000000         5.580526955631310E-013
   76.8550000000000         5.414008271095078E-013
   77.0450000000000         5.162783479180944E-013
   77.2350000000000         4.817195846254394E-013
   77.4250000000000         4.319450175237669E-013
   77.6150000000000         3.763657473669685E-013
   77.8050000000000         3.361636962481953E-013
   77.9950000000000         3.112503462813003E-013
   78.1850000000000         2.830169041085552E-013
   78.3750000000000         2.511332276157452E-013
   78.5650000000000         2.478436775919301E-013
   78.7550000000000         2.547367722094717E-013
   78.9450000000000         2.487463306331169E-013
   79.1350000000000         2.434258476131954E-013
   79.3250000000000         2.274224227556814E-013
   79.5150000000000         2.063660135544542E-013
   79.7050000000000         1.900755853078816E-013
   79.8950000000000         1.914782266021606E-013
   80.0850000000000         2.401992374897304E-013
   80.2750000000000         2.988925160936266E-013
   80.4650000000000         3.256386759755217E-013
   80.6550000000000         3.286384107482643E-013
   80.8450000000000         3.711032078967645E-013
   81.0350000000000         4.275969728410411E-013
   81.2250000000000         5.134618538267467E-013
   81.4150000000000         6.241832022941562E-013
   81.6050000000000         6.799650768170921E-013
   81.7950000000000         6.374463934498195E-013
   81.9850000000000         6.665461677826174E-013
   82.1750000000000         7.188782853004157E-013
   82.3650000000000         7.575125824208099E-013
   82.5550000000000         8.141819219493538E-013
   82.7450000000000         8.245439255871769E-013
   82.9350000000000         8.451894189319555E-013
   83.1250000000000         8.463314259323760E-013
   83.3150000000000         8.590393802656474E-013
   83.5050000000000         8.679422289023872E-013
   83.6950000000000         8.736961001844845E-013
   83.8850000000000         8.730572687978742E-013
   84.0750000000000         8.576895038651334E-013
   84.2650000000000         8.408112410051392E-013
   84.4550000000000         8.315208335759250E-013
   84.6450000000000         8.317242197410377E-013
   84.8350000000000         8.343645742759953E-013
   85.0250000000000         8.241098190553874E-013
   85.2150000000000         7.913720167739532E-013
   85.4050000000000         7.577727142061444E-013
   85.5950000000000         7.307856275135756E-013
   85.7850000000000         6.449048457580760E-013
   85.9750000000000         6.041348905029606E-013
   86.1650000000000         5.495882969010404E-013
   86.3550000000000         4.686473825723388E-013
   86.5450000000000         3.818094311379893E-013
   86.7350000000000         3.024371583032526E-013
   86.9250000000000         2.511765046306968E-013
   87.1150000000000         2.385480232385208E-013
   87.3050000000000         2.065642488100016E-013
   87.4950000000000         1.694670202475194E-013
   87.6850000000000         1.493405186819205E-013
   87.8750000000000         1.107938679253931E-013
   88.0650000000000         9.037897052354369E-014
   88.2550000000000         1.018383876950436E-013
   88.4450000000000         1.141839247167397E-013
   88.6350000000000         1.170245243661801E-013
   88.8250000000000         1.161582241921549E-013
   89.0150000000000         1.373767105126046E-013
   89.2050000000000         1.698377006617347E-013
   89.3950000000000         2.909577748146258E-013
   89.5850000000000         3.947356928093407E-013
   89.7750000000000         4.546654048888864E-013
   89.9650000000000         4.993073015299345E-013
   90.1550000000000         5.485522854271927E-013
   90.3450000000000         5.690525826038043E-013
   90.5350000000000         6.348654380675181E-013
   90.7250000000000         6.806715794381352E-013
   90.9150000000000         7.392728544658971E-013
   91.1050000000000         7.703255870533784E-013
   91.2950000000000         7.959698292885381E-013
   91.4850000000000         8.659855711084062E-013
   91.6750000000000         9.294055058736508E-013
   91.8650000000000         9.586295543570685E-013
   92.0550000000000         9.705705406112057E-013
   92.2450000000000         9.762943882179788E-013
   92.4350000000000         9.788193245824770E-013
   92.6250000000000         9.775680583959171E-013
   92.8150000000000         9.816250027806782E-013
   93.0050000000000         9.798851050904073E-013
   93.1950000000000         9.528568281502865E-013
   93.3850000000000         8.755717156922363E-013
   93.5750000000000         6.714229781433607E-013
   93.7650000000000         5.478718232897363E-013
   93.9550000000000         5.341004248229583E-013
   94.1450000000000         4.755895268069685E-013
   94.3350000000000         3.708752353542059E-013
   94.5250000000000         3.218759975833371E-013
   94.7150000000000         2.791531405336475E-013
   94.9050000000000         2.310997683903703E-013
   95.0950000000000         2.852711863322227E-013
   95.2850000000000         2.787909057421367E-013
   95.4750000000000         2.679948268258879E-013
   95.6650000000000         2.438145235902506E-013
   95.8550000000000         2.257481377949418E-013
   96.0450000000000         2.271516302817948E-013
   96.2350000000000         2.202402312324703E-013
   96.4250000000000         2.187171508982058E-013
   96.6150000000000         2.116712690602609E-013
   96.8050000000000         1.869698364260161E-013
   96.9950000000000         1.555000372590411E-013
   97.1850000000000         1.412201475681982E-013
   97.3750000000000         1.571469171818719E-013
   97.5650000000000         1.903155123858169E-013
   97.7550000000000         2.256850194492528E-013
   97.9450000000000         2.601915744373875E-013
   98.1350000000000         2.911796647098665E-013
   98.3250000000000         3.362228429410234E-013
   98.5150000000000         4.281478700744273E-013
   98.7050000000000         5.067462796866577E-013
   98.8950000000000         5.598543882664197E-013
   99.0850000000000         6.084253016945769E-013
   99.2750000000000         6.765756753459034E-013
   99.4650000000000         7.259135962362469E-013
   99.6550000000000         7.444986559958132E-013
   99.8450000000000         7.559313919960024E-013
   100.035000000000         7.473198816228319E-013
   100.225000000000         7.508228936025464E-013
   100.415000000000         7.507841754506222E-013
   100.605000000000         7.488648915335723E-013
   100.795000000000         7.409175817784641E-013
   100.985000000000         7.392705278534383E-013
   101.175000000000         7.557899370838091E-013
   101.365000000000         7.564055236574212E-013
   101.555000000000         7.462612061367398E-013
   101.745000000000         7.292815004448004E-013
   101.935000000000         7.036732196390546E-013
   102.125000000000         6.722740548598601E-013
   102.315000000000         7.178183183789002E-013
   102.505000000000         7.535442582033280E-013
   102.695000000000         6.961464243104812E-013
   102.885000000000         6.700346071613247E-013
   103.075000000000         6.781487316905324E-013
   103.265000000000         5.966933864530913E-013
   103.455000000000         6.180491039792244E-013
   103.645000000000         5.314508177484740E-013
   103.835000000000         5.330005356072689E-013
   104.025000000000         5.277525617267212E-013
   104.215000000000         4.952769345524924E-013
   104.405000000000         5.073917061879423E-013
   104.595000000000         5.130310146500882E-013
   104.785000000000         5.167634308364203E-013
   104.975000000000         5.123099769737545E-013
   105.165000000000         4.994962797036751E-013
   105.355000000000         4.893235880548094E-013
   105.545000000000         4.916880309068546E-013
   105.735000000000         5.060632477866604E-013
   105.925000000000         5.174248784819148E-013
   106.115000000000         5.085496448042478E-013
   106.305000000000         4.784002066407162E-013
   106.495000000000         4.468737657323962E-013
   106.685000000000         4.224367130712845E-013
   106.875000000000         4.126375544796720E-013
   107.065000000000         4.070336428871378E-013
   107.255000000000         3.937124019326237E-013
   107.445000000000         3.754251317483232E-013
   107.635000000000         3.582944509427006E-013
   107.825000000000         3.577114577724893E-013
   108.015000000000         3.743398289399374E-013
   108.205000000000         3.941280492243287E-013
   108.395000000000         4.081327622191576E-013
   108.585000000000         4.174508251148178E-013
   108.775000000000         4.223239232160845E-013
   108.965000000000         4.352909165594741E-013
   109.155000000000         4.479103992797796E-013
   109.345000000000         4.715698699498620E-013
   109.535000000000         4.840045238281463E-013
   109.725000000000         4.841536921354080E-013
   109.915000000000         4.779068876479114E-013
   110.105000000000         4.862121362498309E-013