  -1.42500000000000         3.217837245020734E-019
  -1.23500000000000        -3.530994050464250E-018
  -1.04500000000000        -4.712520790142323E-017
 -0.855000000000000        -2.318646387261822E-016
 -0.665000000000000        -8.824722131307897E-016
 -0.475000000000000        -2.750498666024882E-015
 -0.285000000000000        -7.572677136421136E-015
 -9.499999999999975E-002   -1.671492471847043E-014
  9.500000000000020E-002   -3.201033753841176E-014
  0.285000000000000        -5.390710320214355E-014
  0.475000000000000        -8.189783496088052E-014
  0.665000000000000        -1.198920213707903E-013
  0.855000000000000        -1.660856671335971E-013
   1.04500000000000        -2.079853377232889E-013
   1.23500000000000        -2.538434716506061E-013
   1.42500000000000        -2.802017257551684E-013
   1.61500000000000        -3.096287137514326E-013
   1.80500000000000        -3.408217933327779E-013
   1.99500000000000        -3.717742329726503E-013
   2.18500000000000        -3.973991016024791E-013
   2.37500000000000        -4.165144519133244E-013
   2.56500000000000        -4.279985492238242E-013
   2.75500000000000        -4.326827065275973E-013
   2.94500000000000        -4.324122592465389E-013
   3.13500000000000        -4.302998382247614E-013
   3.32500000000000        -4.293551290112169E-013
   3.51500000000000        -4.242546167667988E-013
   3.70500000000000        -4.221293049870815E-013
   3.89500000000000        -4.191184746599956E-013
   4.08500000000000        -4.163262041030601E-013
   4.27500000000000        -4.128141555508064E-013
   4.46500000000000        -4.064275214527510E-013
   4.65500000000000        -3.960474596212685E-013
   4.84500000000000        -3.808445240644510E-013
   5.03500000000000        -3.630721625756485E-013
   5.22500000000000        -3.593766573823497E-013
   5.41500000000000        -3.401967165531451E-013
   5.60500000000000        -3.202335072094056E-013
   5.79500000000000        -2.972976269137699E-013
   5.98500000000000        -2.714608255328383E-013
   6.17500000000000        -2.408825674469632E-013
   6.36500000000000        -2.064216600797384E-013
   6.55500000000000        -1.857077221751665E-013
   6.74500000000000        -1.700097892404109E-013
   6.93500000000000        -1.567078055592409E-013
   7.12500000000000        -1.605040371576494E-013
   7.31500000000000        -1.788801056895851E-013
   7.50500000000000        -2.050334148270452E-013
   7.69500000000000        -2.456140221272745E-013
   7.88500000000000        -2.902950611800191E-013
   8.07500000000000        -3.358755219697304E-013
   8.26500000000000        -3.651664790017728E-013
   8.45500000000000        -3.901923678507047E-013
   8.64500000000000        -4.209830276038657E-013
   8.83500000000000        -4.469157527096259E-013
   9.02500000000000        -4.798898703030233E-013
   9.21500000000000        -4.814690001395471E-013
   9.40500000000000        -4.525820231944674E-013
   9.59500000000000        -3.871737663589749E-013
   9.78500000000000        -3.381246710608327E-013
   9.97500000000000        -2.869426217059185E-013
   10.1650000000000        -2.361877621778500E-013
   10.3550000000000        -2.119340760789205E-013
   10.5450000000000        -1.886346084775688E-013
   10.7350000000000        -1.826864695185468E-013
   10.9250000000000        -1.788460134402782E-013
   11.1150000000000        -1.726763812786221E-013
   11.3050000000000        -1.631805459212720E-013
   11.4950000000000        -1.514429928328238E-013
   11.6850000000000        -1.401771745771358E-013
   11.8750000000000        -1.328099803166347E-013
   12.0650000000000        -1.306012806246592E-013
   12.2550000000000        -1.328241748673038E-013
   12.4450000000000        -1.399643764953128E-013
   12.6350000000000        -1.427098373378829E-013
   12.8250000000000        -1.520331608065669E-013
   13.0150000000000        -1.585870370073864E-013
   13.2050000000000        -1.629208305906035E-013
   13.3950000000000        -1.642826157870503E-013
   13.5850000000000        -1.570644999508554E-013
   13.7750000000000        -1.440277416377075E-013
   13.9650000000000        -1.302229983347943E-013
   14.1550000000000        -1.263336708732562E-013
   14.3450000000000        -1.162228600839542E-013
   14.5350000000000        -1.136059506420470E-013
   14.7250000000000        -1.091424571554629E-013
   14.9150000000000        -1.045724459560014E-013
   15.1050000000000        -1.089336458098871E-013
   15.2950000000000        -1.310052532295946E-013
   15.4850000000000        -1.642976053903992E-013
   15.6750000000000        -1.897692549057222E-013
   15.8650000000000        -2.163744852625370E-013
   16.0550000000000        -2.460907969513769E-013
   16.2450000000000        -2.686592700588032E-013
   16.4350000000000        -2.874416336853057E-013
   16.6250000000000        -3.034907593592268E-013
   16.8150000000000        -3.183639963697078E-013
   17.0050000000000        -3.235316268803540E-013
   17.1950000000000        -3.347406061799237E-013
   17.3850000000000        -3.391351930930596E-013
   17.5750000000000        -3.480276932507264E-013
   17.7650000000000        -3.511911341270932E-013
   17.9550000000000        -3.545918620176961E-013
   18.1450000000000        -3.568155098914315E-013
   18.3350000000000        -3.588246326539039E-013
   18.5250000000000        -3.611062525150422E-013
   18.7150000000000        -3.645304532322348E-013
   18.9050000000000        -3.664961804195536E-013
   19.0950000000000        -3.664596503350487E-013
   19.2850000000000        -3.641865344608451E-013
   19.4750000000000        -3.581374556270808E-013
   19.6650000000000        -3.487900284998538E-013
   19.8550000000000        -3.366217620643873E-013
   20.0450000000000        -3.227945811070083E-013
   20.2350000000000        -3.084374281680943E-013
   20.4250000000000        -2.927211024533522E-013
   20.6150000000000        -2.733339808970637E-013
   20.8050000000000        -2.516328267607254E-013
   20.9950000000000        -2.307255102550209E-013
   21.1850000000000        -2.236854127775510E-013
   21.3750000000000        -2.044531814763283E-013
   21.5650000000000        -2.009018910884368E-013
   21.7550000000000        -1.952653415217310E-013
   21.9450000000000        -1.882536807615907E-013
   22.1350000000000        -1.859397698546904E-013
   22.3250000000000        -2.012349917980383E-013
   22.5150000000000        -2.374100489248689E-013
   22.7050000000000        -2.838194524343471E-013
   22.8950000000000        -3.316657092063307E-013
   23.0850000000000        -3.813385040819457E-013
   23.2750000000000        -4.240135602710005E-013
   23.4650000000000        -4.497021818357183E-013
   23.6550000000000        -4.922055350111501E-013
   23.8450000000000        -5.350459642822020E-013
   24.0350000000000        -5.665466617853867E-013
   24.2250000000000        -5.989808244376418E-013
   24.4150000000000        -6.197389369091752E-013
   24.6050000000000        -6.310054185303091E-013
   24.7950000000000        -6.283688939368910E-013
   24.9850000000000        -6.210687244668011E-013
   25.1750000000000        -6.030643141485720E-013
   25.3650000000000        -5.789339090881255E-013
   25.5550000000000        -5.548600725010839E-013
   25.7450000000000        -5.143054526028861E-013
   25.9350000000000        -4.717383266164437E-013
   26.1250000000000        -4.379711188435251E-013
   26.3150000000000        -4.109724202188489E-013
   26.5050000000000        -3.838188985266880E-013
   26.6950000000000        -3.608557040042184E-013
   26.8850000000000        -3.391133782796846E-013
   27.0750000000000        -3.153139396299646E-013
   27.2650000000000        -2.934150196459077E-013
   27.4550000000000        -2.812576844184554E-013
   27.6450000000000        -2.769184668509322E-013
   27.8350000000000        -2.751388671093274E-013
   28.0250000000000        -2.768182018707521E-013
   28.2150000000000        -2.772520158624922E-013
   28.4050000000000        -2.762558270625777E-013
   28.5950000000000        -2.610906779215570E-013
   28.7850000000000        -2.327615754315262E-013
   28.9750000000000        -1.897759894840950E-013
   29.1650000000000        -1.202529426207859E-013
   29.3550000000000        -2.487553713675326E-014
   29.5450000000000         6.246629904922703E-014
   29.7350000000000         1.432543661425234E-013
   29.9250000000000         2.178694105082080E-013
   30.1150000000000         2.871872752830573E-013
   30.3050000000000         3.385703121213183E-013
   30.4950000000000         3.563487739574384E-013
   30.6850000000000         3.753855931310062E-013
   30.8750000000000         3.812878783394889E-013
   31.0650000000000         3.710745846220074E-013
   31.2550000000000         3.095122377610909E-013
   31.4450000000000         2.277461441260170E-013
   31.6350000000000         1.525152340033704E-013
   31.8250000000000         4.564373409556843E-014
   32.0150000000000        -3.956641906932387E-014
   32.2050000000000        -1.231878733880483E-013
   32.3950000000000        -1.857080548729543E-013
   32.5850000000000        -2.482386742675859E-013
   32.7750000000000        -2.802897880571711E-013
   32.9650000000000        -3.036772556876493E-013
   33.1550000000000        -3.165588017963001E-013
   33.3450000000000        -3.301557815760196E-013
   33.5350000000000        -3.460614361621428E-013
   33.7250000000000        -3.608141190766014E-013
   33.9150000000000        -3.669737412604696E-013
   34.1050000000000        -3.548433898783652E-013
   34.2950000000000        -3.279164968699576E-013
   34.4850000000000        -3.045606654462789E-013
   34.6750000000000        -2.771678716765647E-013
   34.8650000000000        -2.471693313871656E-013
   35.0550000000000        -2.161487612617457E-013
   35.2450000000000        -1.833242290038289E-013
   35.4350000000000        -1.619336392350871E-013
   35.6250000000000        -1.616192710729157E-013
   35.8150000000000        -1.749637413699985E-013
   36.0050000000000        -1.958266764064762E-013
   36.1950000000000        -2.173547082449888E-013
   36.3850000000000        -2.215582505956778E-013
   36.5750000000000        -2.379091645748836E-013
   36.7650000000000        -2.443950106384923E-013
   36.9550000000000        -2.575528059299842E-013
   37.1450000000000        -2.691622957102502E-013
   37.3350000000000        -2.771786984108830E-013
   37.5250000000000        -2.817643336830427E-013
   37.7150000000000        -2.830654692130034E-013
   37.9050000000000        -2.811465626702615E-013
   38.0950000000000        -2.775277746009652E-013
   38.2850000000000        -2.734820948532458E-013
   38.4750000000000        -2.893091460490581E-013
   38.6650000000000        -3.432381694687002E-013
   38.8550000000000        -3.988684798616456E-013
   39.0450000000000        -4.676980573581567E-013
   39.2350000000000        -5.441490009664134E-013
   39.4250000000000        -6.317316277811588E-013
   39.6150000000000        -6.783620596639474E-013
   39.8050000000000        -7.367352579380136E-013
   39.9950000000000        -7.722531550533661E-013
   40.1850000000000        -7.963968981578579E-013
   40.3750000000000        -8.028824593853444E-013
   40.5650000000000        -8.105251558477289E-013
   40.7550000000000        -8.204275484164402E-013
   40.9450000000000        -8.317128057216307E-013
   41.1350000000000        -8.259983284965516E-013
   41.3250000000000        -7.884220737234821E-013
   41.5150000000000        -7.302989045708614E-013
   41.7050000000000        -6.705390341427303E-013
   41.8950000000000        -5.970825616380118E-013
   42.0850000000000        -5.267176732804354E-013
   42.2750000000000        -4.567898921630884E-013
   42.4650000000000        -3.835322764272482E-013
   42.6550000000000        -3.167529462043330E-013
   42.8450000000000        -2.513746841519444E-013
   43.0350000000000        -1.973595888412737E-013
   43.2250000000000        -1.638907541271484E-013
   43.4150000000000        -1.145170732292559E-013
   43.6050000000000        -9.648279032254909E-014
   43.7950000000000        -7.530872862785384E-014
   43.9850000000000        -5.744301550569190E-014
   44.1750000000000        -3.692723315272150E-014
   44.3650000000000        -1.138201155231151E-014
   44.5550000000000         1.385007965728517E-014
   44.7450000000000         4.571388400605295E-015
   44.9350000000000        -5.333697451584998E-014
   45.1250000000000        -1.477170204820863E-013
   45.3150000000000        -2.481454272598092E-013
   45.5050000000000        -3.350345990553501E-013
   45.6950000000000        -3.929736256144530E-013
   45.8850000000000        -4.409753471135217E-013
   46.0750000000000        -4.666150106661012E-013
   46.2650000000000        -4.785884163095926E-013
   46.4550000000000        -4.900698389715932E-013
   46.6450000000000        -5.059290302643894E-013
   46.8350000000000        -5.160781176923108E-013
   47.0250000000000        -4.895516896212001E-013
   47.2150000000000        -4.312738160545170E-013
   47.4050000000000        -3.553536795008090E-013
   47.5950000000000        -2.796067492910446E-013
   47.7850000000000        -2.174081524341473E-013
   47.9750000000000        -1.536467594262066E-013
   48.1650000000000        -1.010524008402420E-013
   48.3550000000000        -4.231144541069286E-014
   48.5450000000000        -1.812837035768222E-014
   48.7350000000000         5.433444201228196E-015
   48.9250000000000         2.139080119644194E-014
   49.1150000000000         3.153571420041822E-014
   49.3050000000000         5.004450337023641E-014
   49.4950000000000         5.615923968275137E-014
   49.6850000000000         2.977880012635148E-014
   49.8750000000000        -3.925035426548453E-014
   50.0650000000000        -1.097516792884992E-013
   50.2550000000000        -1.928442067414141E-013
   50.4450000000000        -2.792690588167933E-013
   50.6350000000000        -3.125427880822353E-013
   50.8250000000000        -3.686084850800982E-013
   51.0150000000000        -3.787917715447818E-013
   51.2050000000000        -3.956749265287968E-013
   51.3950000000000        -4.254566006702923E-013
   51.5850000000000        -4.716176803861992E-013
   51.7750000000000        -4.805104729873892E-013
   51.9650000000000        -4.447954723224234E-013
   52.1550000000000        -3.844333300334988E-013
   52.3450000000000        -3.102873117462446E-013
   52.5350000000000        -2.562410320795399E-013
   52.7250000000000        -2.085608989625710E-013
   52.9150000000000        -1.827859484444843E-013
   53.1050000000000        -1.699986792622184E-013
   53.2950000000000        -1.578872052086701E-013
   53.4850000000000        -1.576623317808318E-013
   53.6750000000000        -1.731573255492842E-013
   53.8650000000000        -2.004688444574804E-013
   54.0550000000000        -2.354812138375002E-013
   54.2450000000000        -2.792146269664959E-013
   54.4350000000000        -3.295050937863618E-013
   54.6250000000000        -3.788492989572321E-013
   54.8150000000000        -4.282460189236987E-013
   55.0050000000000        -4.757524945743657E-013
   55.1950000000000        -5.041070548413920E-013
   55.3850000000000        -5.365447191274525E-013
   55.5750000000000        -5.582389049712348E-013
   55.7650000000000        -5.748917049433407E-013
   55.9550000000000        -5.872905873050114E-013
   56.1450000000000        -5.818005795035163E-013
   56.3350000000000        -5.514360897264969E-013
   56.5250000000000        -4.965577918903710E-013
   56.7150000000000        -4.497039175544332E-013
   56.9050000000000        -3.974241075338909E-013
   57.0950000000000        -3.278582207453538E-013
   57.2850000000000        -2.927621280343243E-013
   57.4750000000000        -2.611322879868110E-013
   57.6650000000000        -2.214891172920983E-013
   57.8550000000000        -1.903086227075882E-013
   58.0450000000000        -1.744287799903705E-013
   58.2350000000000        -1.596843794235523E-013
   58.4250000000000        -1.446372254264356E-013
   58.6150000000000        -1.336844451794014E-013
   58.8050000000000        -1.260574137385777E-013
   58.9950000000000        -1.210576729462329E-013
   59.1850000000000        -1.188727253312206E-013
   59.3750000000000        -1.183461633357077E-013
   59.5650000000000        -1.190227106569800E-013
   59.7550000000000        -1.217223906613720E-013
   59.9450000000000        -1.263874098350395E-013
   60.1350000000000        -1.344108595239424E-013
   60.3250000000000        -1.477082212584904E-013
   60.5150000000000        -1.634841830391815E-013
   60.7050000000000        -1.772224641578616E-013
   60.8950000000000        -1.805776929149789E-013
   61.0850000000000        -1.706070470201568E-013
   61.2750000000000        -1.454825019132842E-013
   61.4650000000000        -1.198139409649358E-013
   61.6550000000000        -9.767315674198656E-014
   61.8450000000000        -6.825112128093402E-014
   62.0350000000000        -5.897124677411963E-014
   62.2250000000000        -4.820176597416117E-014
   62.4150000000000        -3.349103778047647E-014
   62.6050000000000        -2.387054567563786E-014
   62.7950000000000        -2.472155105192577E-014
   62.9850000000000        -2.365533601289761E-014
   63.1750000000000        -2.430660944863689E-014
   63.3650000000000        -2.535999209772750E-014
   63.5550000000000        -2.804811537125194E-014
   63.7450000000000        -3.387702639579905E-014
   63.9350000000000        -4.303663043793977E-014
   64.1250000000000        -5.455137134444904E-014
   64.3150000000000        -6.718707728713761E-014
   64.5050000000000        -8.344198774396659E-014
   64.6950000000000        -1.050540303823960E-013
   64.8850000000000        -1.208488187609856E-013
   65.0750000000000        -1.286635254720146E-013
   65.2650000000000        -1.433969817103355E-013
   65.4550000000000        -1.596281251502145E-013
   65.6450000000000        -1.732424865856672E-013
   65.8350000000000        -1.868479251467113E-013
   66.0250000000000        -1.981390407452858E-013
   66.2150000000000        -2.066866080373196E-013
   66.4050000000000        -2.119877816610464E-013
   66.5950000000000        -2.116372495100130E-013
   66.7850000000000        -2.126513917517492E-013
   66.9750000000000        -2.108701496749989E-013
   67.1650000000000        -2.101957951581706E-013
   67.3550000000000        -2.116237260041893E-013
   67.5450000000000        -2.158726469621557E-013
   67.7350000000000        -2.225494573567956E-013
   67.9250000000000        -2.303664542354775E-013
   68.1150000000000        -2.387127699175602E-013
   68.3050000000000        -2.469042358281633E-013
   68.4950000000000        -2.546718620860278E-013
   68.6850000000000        -2.600146459866003E-013
   68.8750000000000        -2.632497746615440E-013
   69.0650000000000        -2.678044285816336E-013
   69.2550000000000        -2.773730677336087E-013
   69.4450000000000        -2.903639922637176E-013
   69.6350000000000        -3.057868984955286E-013
   69.8250000000000        -3.195942960601261E-013
   70.0150000000000        -3.366186575072059E-013
   70.2050000000000        -3.538601447679396E-013
   70.3950000000000        -3.750658042964088E-013
   70.5850000000000        -3.957358073561366E-013
   70.7750000000000        -4.205350513011768E-013
   70.9650000000000        -4.452680962906529E-013
   71.1550000000000        -4.813276871599628E-013
   71.3450000000000        -5.120914946440056E-013
   71.5350000000000        -5.527848793877312E-013
   71.7250000000000        -5.734855169634368E-013
   71.9150000000000        -6.083133269786873E-013
   72.1050000000000        -6.179504640107431E-013
   72.2950000000000        -6.277142520675738E-013
   72.4850000000000        -6.330558005452094E-013
   72.6750000000000        -6.333615240813033E-013
   72.8650000000000        -6.375546132731475E-013
   73.0550000000000        -6.407915213137598E-013
   73.2450000000000        -6.449068077538015E-013
   73.4350000000000        -6.497231429413220E-013
   73.6250000000000        -6.478364706123908E-013
   73.8150000000000        -6.329378279324349E-013
   74.0050000000000        -5.935491828241935E-013
   74.1950000000000        -5.402079697774742E-013
   74.3850000000000        -4.829861161681620E-013
   74.5750000000000        -4.179806352276838E-013
   74.7650000000000        -3.487578276066974E-013
   74.9550000000000        -2.897120443767326E-013
   75.1450000000000        -2.389887704703145E-013
   75.3350000000000        -2.287847468189107E-013
   75.5250000000000        -1.898743764428244E-013
   75.7150000000000        -1.881365540927867E-013
   75.9050000000000        -1.837104165688480E-013
   76.0950000000000        -1.759025434707721E-013
   76.2850000000000        -1.690020580689919E-013
   76.4750000000000        -1.684408868394839E-013
   76.6650000000000        -1.729675304245253E-013
   76.8550000000000        -1.766233115664394E-013
   77.0450000000000        -1.788310695777144E-013
   77.2350000000000        -1.810897708833397E-013
   77.4250000000000        -1.741964991776763E-013
   77.6150000000000        -1.459700057163231E-013
   77.8050000000000        -1.058139188615113E-013
   77.9950000000000        -6.289817486359406E-014
   78.1850000000000        -1.574552285999090E-014
   78.3750000000000         3.348979923850329E-014
   78.5650000000000         7.127324137931169E-014
   78.7550000000000         9.857591964168102E-014
   78.9450000000000         1.099047053242148E-013
   79.1350000000000         1.251174254491733E-013
   79.3250000000000         1.328027888509827E-013
   79.5150000000000         1.445081313394494E-013
   79.7050000000000         1.615659344193246E-013
   79.8950000000000         1.755543351916023E-013
   80.0850000000000         1.593158568888784E-013
   80.2750000000000         1.019234894810984E-013
   80.4650000000000         3.488991116184270E-014
   80.6550000000000        -5.054096701196115E-014
   80.8450000000000        -1.415324926686404E-013
   81.0350000000000        -2.352283817116288E-013
   81.2250000000000        -3.197584048235744E-013
   81.4150000000000        -4.063288355311064E-013
   81.6050000000000        -4.832356718455966E-013
   81.7950000000000        -5.194737352058202E-013
   81.9850000000000        -5.496116522414864E-013
   82.1750000000000        -5.696406654420736E-013
   82.3650000000000        -5.900181914046253E-013
   82.5550000000000        -6.201607596629967E-013
   82.7450000000000        -6.202227554847906E-013
   82.9350000000000        -5.817297870604687E-013
   83.1250000000000        -5.304968726278391E-013
   83.3150000000000        -4.810002219165216E-013
   83.5050000000000        -4.341618626106669E-013
   83.6950000000000        -4.229130071200543E-013
   83.8850000000000        -3.881526242662150E-013
   84.0750000000000        -3.878410705893155E-013
   84.2650000000000        -3.863597760291404E-013
   84.4550000000000        -3.894526820833602E-013
   84.6450000000000        -3.916574833893583E-013
   84.8350000000000        -3.916901255302698E-013
   85.0250000000000        -3.840810515639846E-013
   85.2150000000000        -3.709585194111187E-013
   85.4050000000000        -3.557160173637889E-013
   85.5950000000000        -3.398168820931817E-013
   85.7850000000000        -3.343238508282782E-013
   85.9750000000000        -3.508388487112437E-013
   86.1650000000000        -3.728813789804761E-013
   86.3550000000000        -3.902187638549102E-013
   86.5450000000000        -4.084327308372536E-013
   86.7350000000000        -4.227658960514947E-013
   86.9250000000000        -4.298910144702475E-013
   87.1150000000000        -4.328529121676963E-013
   87.3050000000000        -4.305026142790519E-013
   87.4950000000000        -4.227656691160528E-013
   87.6850000000000        -4.149008652785598E-013
   87.8750000000000        -4.044491235714132E-013
   88.0650000000000        -3.942363289398117E-013
   88.2550000000000        -3.871076641154453E-013
   88.4450000000000        -3.842507778775151E-013
   88.6350000000000        -3.849609082829956E-013
   88.8250000000000        -3.899079374014893E-013
   89.0150000000000        -3.996328151283362E-013
   89.2050000000000        -4.143177201893882E-013
   89.3950000000000        -4.355807509757822E-013
   89.5850000000000        -4.350775124352138E-013
   89.7750000000000        -4.113107494273676E-013
   89.9650000000000        -3.972713566001934E-013
   90.1550000000000        -3.782735420139705E-013
   90.3450000000000        -3.612943580033297E-013
   90.5350000000000        -3.484333198453659E-013
   90.7250000000000        -3.369898671542487E-013
   90.9150000000000        -3.311868781777519E-013
   91.1050000000000        -3.261283881166565E-013
   91.2950000000000        -3.198004289139548E-013
   91.4850000000000        -3.151146320821820E-013
   91.6750000000000        -3.025808729897297E-013
   91.8650000000000        -2.828919417263917E-013
   92.0550000000000        -2.606578805304208E-013
   92.2450000000000        -2.422681145348591E-013
   92.4350000000000        -2.280020330139889E-013
   92.6250000000000        -2.135998691828482E-013
   92.8150000000000        -2.014212286293020E-013
   93.0050000000000        -1.873065341889561E-013
   93.1950000000000        -1.664898781275362E-013
   93.3850000000000        -1.341571996885949E-013
   93.5750000000000        -1.023717725374939E-013
   93.7650000000000        -1.011070738814995E-013
   93.9550000000000        -1.261733023264261E-013
   94.1450000000000        -1.562960571366643E-013
   94.3350000000000        -1.891850183513379E-013
   94.5250000000000        -2.227225363192439E-013
   94.7150000000000        -2.423635252288864E-013
   94.9050000000000        -2.628316120983328E-013
   95.0950000000000        -2.740364319384708E-013
   95.2850000000000        -2.873711967783353E-013
   95.4750000000000        -2.871817307588491E-013
   95.6650000000000        -3.027266979617966E-013
   95.8550000000000        -3.003920775128000E-013
   96.0450000000000        -3.021778425835409E-013
   96.2350000000000        -3.065378654415953E-013
   96.4250000000000        -3.105436363215550E-013
   96.6150000000000        -3.114310426803145E-013
   96.8050000000000        -3.066772161644017E-013
   96.9950000000000        -2.956327692371676E-013
   97.1850000000000        -2.807807936755787E-013
   97.3750000000000        -2.676228224237841E-013
   97.5650000000000        -2.533619644407176E-013
   97.7550000000000        -2.426898945572244E-013
   97.9450000000000        -2.370639338962061E-013
   98.1350000000000        -2.400800074975335E-013
   98.3250000000000        -2.529038619901223E-013
   98.5150000000000        -2.771892229346871E-013
   98.7050000000000        -3.016771470759049E-013
   98.8950000000000        -3.237036667150670E-013
   99.0850000000000        -3.446906516722946E-013
   99.2750000000000        -3.631527512209042E-013
   99.4650000000000        -3.576056883627158E-013
   99.6550000000000        -3.239715141447861E-013
   99.8450000000000        -2.779807405628501E-013
   100.035000000000        -2.178579589723625E-013
   100.225000000000        -1.336889756709023E-013
   100.415000000000        -5.345463527409088E-014
   100.605000000000         2.553185183762249E-014
   100.795000000000         9.893391801649478E-014
   100.985000000000         1.621095951145424E-013
   101.175000000000         1.687039647783961E-013
   101.365000000000         2.017455532947952E-013
   101.555000000000         2.078487136078300E-013
   101.745000000000         2.266899134627194E-013
   101.935000000000         2.585537137766043E-013
   102.125000000000         2.625051897878811E-013
   102.315000000000         2.223446897915812E-013
   102.505000000000         1.165531364435645E-013
   102.695000000000         1.264475344154620E-014
   102.885000000000        -9.755420593198658E-014
   103.075000000000        -2.068696181145020E-013
   103.265000000000        -2.894040736563472E-013
   103.455000000000        -3.717684798100876E-013
   103.645000000000        -4.295998256039623E-013
   103.835000000000        -4.549541862065254E-013
   104.025000000000        -4.701782328371413E-013
   104.215000000000        -4.703913023058799E-013
   104.405000000000        -4.717139798836069E-013
   104.595000000000        -4.777756462812333E-013
   104.785000000000        -4.891337366288098E-013
   104.975000000000        -5.021121470492220E-013
   105.165000000000        -5.113560011201400E-013
   105.355000000000        -5.156086350420065E-013
   105.545000000000        -5.146550405217650E-013
   105.735000000000        -5.080681254750350E-013
   105.925000000000        -4.979411156712963E-013
   106.115000000000        -4.879584857673303E-013
   106.305000000000        -4.739492101012782E-013
   106.495000000000        -4.683735479313057E-013
   106.685000000000        -4.555155529633473E-013
   106.875000000000        -4.530306810248687E-013
   107.065000000000        -4.445509669583494E-013
   107.255000000000        -4.345222502197784E-013
   107.445000000000        -4.228107090644277E-013
   107.635000000000        -4.085630013204234E-013
   107.825000000000        -3.930615020110045E-013
   108.015000000000        -3.780396245009401E-013
   108.205000000000        -3.643135236157203E-013
   108.395000000000        -3.515388521326823E-013
   108.585000000000        -3.418048873314872E-013
   108.775000000000        -3.379120649268714E-013
   108.965000000000        -3.356671619696605E-013
   109.155000000000        -3.407415610928030E-013
   109.345000000000        -3.363771586121591E-013
   109.535000000000        -3.334198156156648E-013
   109.725000000000        -3.240012554975146E-013
   109.915000000000        -3.095322881436965E-013
   110.105000000000        -2.910774671765101E-013