  -1.42500000000000        -7.983418271834777E-020
  -1.23500000000000         3.473988635401863E-019
  -1.04500000000000         2.834984136068603E-018
 -0.855000000000000         1.324903289983249E-017
 -0.665000000000000         5.336253341857351E-017
 -0.475000000000000         2.058956335492017E-016
 -0.285000000000000         6.724925272032960E-016
 -9.499999999999975E-002    1.863459498389443E-015
  9.500000000000020E-002    4.460412049027513E-015
  0.285000000000000         9.836464047114099E-015
  0.475000000000000         1.894819433183280E-014
  0.665000000000000         3.078019339151401E-014
  0.855000000000000         4.670014893184002E-014
   1.04500000000000         7.057606382220863E-014
   1.23500000000000         1.102624380255742E-013
   1.42500000000000         1.591666650826060E-013
   1.61500000000000         2.101657531816461E-013
   1.80500000000000         2.686955366303247E-013
   1.99500000000000         3.363814155445218E-013
   2.18500000000000         4.152401280859750E-013
   2.37500000000000         5.052611418446808E-013
   2.56500000000000         6.062343088479997E-013
   2.75500000000000         7.179389009559679E-013
   2.94500000000000         8.401995045467253E-013
   3.13500000000000         9.721887900294232E-013
   3.32500000000000         1.109249144626642E-012
   3.51500000000000         1.248540500864614E-012
   3.70500000000000         1.390272043258237E-012
   3.89500000000000         1.533617470983919E-012
   4.08500000000000         1.678459193015645E-012
   4.27500000000000         1.824325940964649E-012
   4.46500000000000         1.970439480337431E-012
   4.65500000000000         2.115056059731691E-012
   4.84500000000000         2.256052116380120E-012
   5.03500000000000         2.392330715785212E-012
   5.22500000000000         2.526118865201333E-012
   5.41500000000000         2.657098934051432E-012
   5.60500000000000         2.781164001826074E-012
   5.79500000000000         2.897612238076584E-012
   5.98500000000000         3.006533805098366E-012
   6.17500000000000         3.103222153745553E-012
   6.36500000000000         3.181454967310915E-012
   6.55500000000000         3.247670972287577E-012
   6.74500000000000         3.309543432721685E-012
   6.93500000000000         3.362558240091504E-012
   7.12500000000000         3.404692214645122E-012
   7.31500000000000         3.440721942761993E-012
   7.50500000000000         3.476163322121421E-012
   7.69500000000000         3.513205513162288E-012
   7.88500000000000         3.552894355932067E-012
   8.07500000000000         3.596585754828755E-012
   8.26500000000000         3.642530551908564E-012
   8.45500000000000         3.689246832433848E-012
   8.64500000000000         3.739502275441551E-012
   8.83500000000000         3.796366141658426E-012
   9.02500000000000         3.866832583718845E-012
   9.21500000000000         3.951813943579461E-012
   9.40500000000000         4.038787501917683E-012
   9.59500000000000         4.124275124623696E-012
   9.78500000000000         4.215011004441016E-012
   9.97500000000000         4.310831905879200E-012
   10.1650000000000         4.407456237673564E-012
   10.3550000000000         4.504149274472828E-012
   10.5450000000000         4.601591583447734E-012
   10.7350000000000         4.699966726415887E-012
   10.9250000000000         4.799254256057641E-012
   11.1150000000000         4.899598733203827E-012
   11.3050000000000         5.000925993201774E-012
   11.4950000000000         5.103399219648392E-012
   11.6850000000000         5.207324437765300E-012
   11.8750000000000         5.312717393777679E-012
   12.0650000000000         5.419416988922430E-012
   12.2550000000000         5.527143915413988E-012
   12.4450000000000         5.635299228022806E-012
   12.6350000000000         5.743201226517455E-012
   12.8250000000000         5.849954727022695E-012
   13.0150000000000         5.952491749848804E-012
   13.2050000000000         6.049346074315523E-012
   13.3950000000000         6.140071026329364E-012
   13.5850000000000         6.222817649430356E-012
   13.7750000000000         6.296283934300739E-012
   13.9650000000000         6.360028808100734E-012
   14.1550000000000         6.416149539068605E-012
   14.3450000000000         6.467159769381004E-012
   14.5350000000000         6.514769376051488E-012
   14.7250000000000         6.560462847542653E-012
   14.9150000000000         6.605883093807717E-012
   15.1050000000000         6.652505373829230E-012
   15.2950000000000         6.704837837447260E-012
   15.4850000000000         6.768356567799608E-012
   15.6750000000000         6.839370563993574E-012
   15.8650000000000         6.915125826913447E-012
   16.0550000000000         6.999912002060212E-012
   16.2450000000000         7.090967321956337E-012
   16.4350000000000         7.185354903563729E-012
   16.6250000000000         7.285356575047466E-012
   16.8150000000000         7.391639482373105E-012
   17.0050000000000         7.502241128960716E-012
   17.1950000000000         7.615727840657046E-012
   17.3850000000000         7.732101653158363E-012
   17.5750000000000         7.851513707934735E-012
   17.7650000000000         7.973520858595677E-012
   17.9550000000000         8.097364589876830E-012
   18.1450000000000         8.223363623600067E-012
   18.3350000000000         8.351230492926153E-012
   18.5250000000000         8.480645936000838E-012
   18.7150000000000         8.610977254097869E-012
   18.9050000000000         8.739885012433812E-012
   19.0950000000000         8.864643035758135E-012
   19.2850000000000         8.983823064232008E-012
   19.4750000000000         9.096335981899989E-012
   19.6650000000000         9.200991101056537E-012
   19.8550000000000         9.296387005668269E-012
   20.0450000000000         9.381211769904884E-012
   20.2350000000000         9.455136894617432E-012
   20.4250000000000         9.519131056564580E-012
   20.6150000000000         9.574103836588213E-012
   20.8050000000000         9.620598037690167E-012
   20.9950000000000         9.659392133044109E-012
   21.1850000000000         9.691344565681718E-012
   21.3750000000000         9.717223814116853E-012
   21.5650000000000         9.738958332985187E-012
   21.7550000000000         9.759078045087347E-012
   21.9450000000000         9.777715837233709E-012
   22.1350000000000         9.794691199368639E-012
   22.3250000000000         9.813688280437191E-012
   22.5150000000000         9.838975879719546E-012
   22.7050000000000         9.871656753771298E-012
   22.8950000000000         9.910859195203985E-012
   23.0850000000000         9.958248876304852E-012
   23.2750000000000         1.001811241262209E-011
   23.4650000000000         1.008154293597525E-011
   23.6550000000000         1.014934082606635E-011
   23.8450000000000         1.023285532678231E-011
   24.0350000000000         1.032739285342902E-011
   24.2250000000000         1.043391856372288E-011
   24.4150000000000         1.055516760906919E-011
   24.6050000000000         1.069200488923447E-011
   24.7950000000000         1.083442227274324E-011
   24.9850000000000         1.097913106103306E-011
   25.1750000000000         1.112872375470236E-011
   25.3650000000000         1.127832350692649E-011
   25.5550000000000         1.142967878190754E-011
   25.7450000000000         1.158075723708612E-011
   25.9350000000000         1.173034697558694E-011
   26.1250000000000         1.187778788376144E-011
   26.3150000000000         1.202210472066602E-011
   26.5050000000000         1.216280960761984E-011
   26.6950000000000         1.229957390043010E-011
   26.8850000000000         1.243145893960207E-011
   27.0750000000000         1.255697881382552E-011
   27.2650000000000         1.267572660323192E-011
   27.4550000000000         1.278885033236199E-011
   27.6450000000000         1.289669906784896E-011
   27.8350000000000         1.300023790416837E-011
   28.0250000000000         1.309805962348599E-011
   28.2150000000000         1.318800130293473E-011
   28.4050000000000         1.326983366186238E-011
   28.5950000000000         1.333726047732544E-011
   28.7850000000000         1.338839964196112E-011
   28.9750000000000         1.343321089750200E-011
   29.1650000000000         1.347258671736454E-011
   29.3550000000000         1.350120111190799E-011
   29.5450000000000         1.352115697098781E-011
   29.7350000000000         1.353464246359535E-011
   29.9250000000000         1.354283894208001E-011
   30.1150000000000         1.354773351645200E-011
   30.3050000000000         1.355280992928603E-011
   30.4950000000000         1.356213489010918E-011
   30.6850000000000         1.357332286284065E-011
   30.8750000000000         1.359068695538583E-011
   31.0650000000000         1.361899093210017E-011
   31.2550000000000         1.365588037717063E-011
   31.4450000000000         1.370931271049931E-011
   31.6350000000000         1.378186155867542E-011
   31.8250000000000         1.386834895465497E-011
   32.0150000000000         1.396403466458169E-011
   32.2050000000000         1.407471949000131E-011
   32.3950000000000         1.420757563440296E-011
   32.5850000000000         1.435340153963449E-011
   32.7750000000000         1.450001571403378E-011
   32.9650000000000         1.464793813906783E-011
   33.1550000000000         1.480318014414351E-011
   33.3450000000000         1.496408817526497E-011
   33.5350000000000         1.512945343674452E-011
   33.7250000000000         1.529796759702697E-011
   33.9150000000000         1.546643739340401E-011
   34.1050000000000         1.563214516493782E-011
   34.2950000000000         1.579254721841950E-011
   34.4850000000000         1.594558036331798E-011
   34.6750000000000         1.608957086291978E-011
   34.8650000000000         1.622368480205232E-011
   35.0550000000000         1.634759219610156E-011
   35.2450000000000         1.646095065669839E-011
   35.4350000000000         1.656068946459286E-011
   35.6250000000000         1.664816489563630E-011
   35.8150000000000         1.672836311329134E-011
   36.0050000000000         1.680553223861586E-011
   36.1950000000000         1.688021463122303E-011
   36.3850000000000         1.694817542049899E-011
   36.5750000000000         1.701114013138939E-011
   36.7650000000000         1.707122537179477E-011
   36.9550000000000         1.712790844217408E-011
   37.1450000000000         1.718019062183832E-011
   37.3350000000000         1.722760542222121E-011
   37.5250000000000         1.727127322204404E-011
   37.7150000000000         1.731229008888075E-011
   37.9050000000000         1.735224076708261E-011
   38.0950000000000         1.739251479179649E-011
   38.2850000000000         1.743397832330870E-011
   38.4750000000000         1.748629880028100E-011
   38.6650000000000         1.754875004477436E-011
   38.8550000000000         1.761481204837512E-011
   39.0450000000000         1.768994524823715E-011
   39.2350000000000         1.777651496435919E-011
   39.4250000000000         1.787548061495634E-011
   39.6150000000000         1.798381468104217E-011
   39.8050000000000         1.810238719807374E-011
   39.9950000000000         1.822640605998000E-011
   40.1850000000000         1.835013055279620E-011
   40.3750000000000         1.847651250693791E-011
   40.5650000000000         1.860495405319650E-011
   40.7550000000000         1.873484082039319E-011
   40.9450000000000         1.886473611565802E-011
   41.1350000000000         1.899103535924131E-011
   41.3250000000000         1.910991112671288E-011
   41.5150000000000         1.921977208295221E-011
   41.7050000000000         1.932387014172204E-011
   41.8950000000000         1.942439913037654E-011
   42.0850000000000         1.952103738111842E-011
   42.2750000000000         1.961525308277638E-011
   42.4650000000000         1.970738708994980E-011
   42.6550000000000         1.979672026722065E-011
   42.8450000000000         1.988337393773235E-011
   43.0350000000000         1.996724050489018E-011
   43.2250000000000         2.005013440745304E-011
   43.4150000000000         2.013297401939717E-011
   43.6050000000000         2.021469658041618E-011
   43.7950000000000         2.029650036064355E-011
   43.9850000000000         2.037752467828818E-011
   44.1750000000000         2.045593139796064E-011
   44.3650000000000         2.053059970666097E-011
   44.5550000000000         2.060123699710710E-011
   44.7450000000000         2.067301778276073E-011
   44.9350000000000         2.074997644606059E-011
   45.1250000000000         2.083197504673564E-011
   45.3150000000000         2.092034749443210E-011
   45.5050000000000         2.101537160805975E-011
   45.6950000000000         2.111902078345227E-011
   45.8850000000000         2.123484955798533E-011
   46.0750000000000         2.135382792730293E-011
   46.2650000000000         2.147166675460597E-011
   46.4550000000000         2.159489496547469E-011
   46.6450000000000         2.172319613108026E-011
   46.8350000000000         2.185330567340271E-011
   47.0250000000000         2.197985922152628E-011
   47.2150000000000         2.210246925669740E-011
   47.4050000000000         2.222125349166936E-011
   47.5950000000000         2.233401590735723E-011
   47.7850000000000         2.244066892595552E-011
   47.9750000000000         2.253751213089749E-011
   48.1650000000000         2.262010420927148E-011
   48.3550000000000         2.269219660912273E-011
   48.5450000000000         2.276227109173897E-011
   48.7350000000000         2.282998250353830E-011
   48.9250000000000         2.289059621632623E-011
   49.1150000000000         2.294530766051942E-011
   49.3050000000000         2.299543169560109E-011
   49.4950000000000         2.303721755367776E-011
   49.6850000000000         2.307278310021255E-011
   49.8750000000000         2.310857740363661E-011
   50.0650000000000         2.314199382912380E-011
   50.2550000000000         2.317201848830591E-011
   50.4450000000000         2.320233864215202E-011
   50.6350000000000         2.323495917232513E-011
   50.8250000000000         2.327235068960738E-011
   51.0150000000000         2.331296822806773E-011
   51.2050000000000         2.335417017065982E-011
   51.3950000000000         2.339896930723055E-011
   51.5850000000000         2.345495120631663E-011
   51.7750000000000         2.352748392060119E-011
   51.9650000000000         2.360479006321982E-011
   52.1550000000000         2.368209756921637E-011
   52.3450000000000         2.376986757604460E-011
   52.5350000000000         2.387256337540309E-011
   52.7250000000000         2.399160142770686E-011
   52.9150000000000         2.411988452739005E-011
   53.1050000000000         2.425294710856148E-011
   53.2950000000000         2.439192575079032E-011
   53.4850000000000         2.454072064132209E-011
   53.6750000000000         2.470590465136069E-011
   53.8650000000000         2.488024462848128E-011
   54.0550000000000         2.505653956785492E-011
   54.2450000000000         2.523497916003974E-011
   54.4350000000000         2.541398928459504E-011
   54.6250000000000         2.559157088742894E-011
   54.8150000000000         2.576573903150294E-011
   55.0050000000000         2.593480022527030E-011
   55.1950000000000         2.610099032089506E-011
   55.3850000000000         2.626678278309704E-011
   55.5750000000000         2.643129543463513E-011
   55.7650000000000         2.659318998039194E-011
   55.9550000000000         2.675059775748339E-011
   56.1450000000000         2.689544602857210E-011
   56.3350000000000         2.701818843850780E-011
   56.5250000000000         2.712212443662851E-011
   56.7150000000000         2.721384191746941E-011
   56.9050000000000         2.729126991674670E-011
   57.0950000000000         2.735466282106134E-011
   57.2850000000000         2.741189904566014E-011
   57.4750000000000         2.746647566909366E-011
   57.6650000000000         2.751477043445666E-011
   57.8550000000000         2.755464593854196E-011
   58.0450000000000         2.758600129109236E-011
   58.2350000000000         2.761012339076387E-011
   58.4250000000000         2.762928468511030E-011
   58.6150000000000         2.764467198305870E-011
   58.8050000000000         2.765876903997084E-011
   58.9950000000000         2.767366006915747E-011
   59.1850000000000         2.769000155154802E-011
   59.3750000000000         2.770693807168514E-011
   59.5650000000000         2.772308942489340E-011
   59.7550000000000         2.773815137830962E-011
   59.9450000000000         2.775314820044795E-011
   60.1350000000000         2.776980703728649E-011
   60.3250000000000         2.779001614917591E-011
   60.5150000000000         2.781423789073342E-011
   60.7050000000000         2.784253654731997E-011
   60.8950000000000         2.788464383643434E-011
   61.0850000000000         2.794495128562482E-011
   61.2750000000000         2.802080986589613E-011
   61.4650000000000         2.811504601285054E-011
   61.6550000000000         2.822331125942716E-011
   61.8450000000000         2.834223349619872E-011
   62.0350000000000         2.846959700264836E-011
   62.2250000000000         2.860129759965331E-011
   62.4150000000000         2.873475673431810E-011
   62.6050000000000         2.887177071131252E-011
   62.7950000000000         2.901587318057808E-011
   62.9850000000000         2.916288926438645E-011
   63.1750000000000         2.931019167142982E-011
   63.3650000000000         2.945855437430756E-011
   63.5550000000000         2.960787774961484E-011
   63.7450000000000         2.975786509886691E-011
   63.9350000000000         2.990581956335697E-011
   64.1250000000000         3.004629040329744E-011
   64.3150000000000         3.017400308664244E-011
   64.5050000000000         3.028976007547580E-011
   64.6950000000000         3.039041942486598E-011
   64.8850000000000         3.048682848474749E-011
   65.0750000000000         3.058246298238632E-011
   65.2650000000000         3.066709074282392E-011
   65.4550000000000         3.074755274803960E-011
   65.6450000000000         3.082485092977766E-011
   65.8350000000000         3.089727417425545E-011
   66.0250000000000         3.096635535279277E-011
   66.2150000000000         3.103175582300788E-011
   66.4050000000000         3.109170693010782E-011
   66.5950000000000         3.114685711011531E-011
   66.7850000000000         3.119755452714962E-011
   66.9750000000000         3.124391601116899E-011
   67.1650000000000         3.128746733227023E-011
   67.3550000000000         3.132853734469625E-011
   67.5450000000000         3.136712142696423E-011
   67.7350000000000         3.140389962490495E-011
   67.9250000000000         3.144073318185951E-011
   68.1150000000000         3.148104602430101E-011
   68.3050000000000         3.152963073618073E-011
   68.4950000000000         3.159148780095938E-011
   68.6850000000000         3.166819487649639E-011
   68.8750000000000         3.175660969934372E-011
   69.0650000000000         3.185353512269698E-011
   69.2550000000000         3.195895405540154E-011
   69.4450000000000         3.207308463540943E-011
   69.6350000000000         3.219443902210304E-011
   69.8250000000000         3.232086236883424E-011
   70.0150000000000         3.244908434218173E-011
   70.2050000000000         3.257637879467177E-011
   70.3950000000000         3.270259101069184E-011
   70.5850000000000         3.282912996767957E-011
   70.7750000000000         3.295655322516925E-011
   70.9650000000000         3.308384205124104E-011
   71.1550000000000         3.320674368509109E-011
   71.3450000000000         3.332712092373724E-011
   71.5350000000000         3.344653348621007E-011
   71.7250000000000         3.356550871359036E-011
   71.9150000000000         3.368655676867772E-011
   72.1050000000000         3.380725579202650E-011
   72.2950000000000         3.392639331460125E-011
   72.4850000000000         3.404313061213452E-011
   72.6750000000000         3.415817048495724E-011
   72.8650000000000         3.427360633927890E-011
   73.0550000000000         3.439116955518002E-011
   73.2450000000000         3.451141472468214E-011
   73.4350000000000         3.463334563532084E-011
   73.6250000000000         3.475497322309548E-011
   73.8150000000000         3.487658620475489E-011
   74.0050000000000         3.500064372606613E-011
   74.1950000000000         3.512760106435974E-011
   74.3850000000000         3.525448791391541E-011
   74.5750000000000         3.537822971274386E-011
   74.7650000000000         3.549746954284334E-011
   74.9550000000000         3.561171094992533E-011
   75.1450000000000         3.572278120894822E-011
   75.3350000000000         3.583469662351841E-011
   75.5250000000000         3.594783552098812E-011
   75.7150000000000         3.605981629390510E-011
   75.9050000000000         3.616985602090138E-011
   76.0950000000000         3.627702713744325E-011
   76.2850000000000         3.638200917427807E-011
   76.4750000000000         3.648712323104194E-011
   76.6650000000000         3.659299335951391E-011
   76.8550000000000         3.669744144416781E-011
   77.0450000000000         3.679792096579543E-011
   77.2350000000000         3.689273076938707E-011
   77.4250000000000         3.697952890659124E-011
   77.6150000000000         3.705631842925586E-011
   77.8050000000000         3.712400872639930E-011
   77.9950000000000         3.718551306043961E-011
   78.1850000000000         3.724196844922664E-011
   78.3750000000000         3.729271271174045E-011
   78.5650000000000         3.734011551773517E-011
   78.7550000000000         3.738786066046631E-011
   78.9450000000000         3.743569155523636E-011
   79.1350000000000         3.748244791216976E-011
   79.3250000000000         3.752717849785480E-011
   79.5150000000000         3.756838839930426E-011
   79.7050000000000         3.760605035119618E-011
   79.8950000000000         3.764229796332763E-011
   80.0850000000000         3.768330732241636E-011
   80.2750000000000         3.773452103900679E-011
   80.4650000000000         3.779385150225335E-011
   80.6550000000000         3.785600782549210E-011
   80.8450000000000         3.792248327926338E-011
   81.0350000000000         3.799835979643347E-011
   81.2250000000000         3.808776038496692E-011
   81.4150000000000         3.819583666529840E-011
   81.6050000000000         3.831973075181397E-011
   81.7950000000000         3.844488484148932E-011
   81.9850000000000         3.856876413480640E-011
   82.1750000000000         3.870037945784930E-011
   82.3650000000000         3.884063659028282E-011
   82.5550000000000         3.898994756819799E-011
   82.7450000000000         3.914562652371395E-011
   82.9350000000000         3.930425119144328E-011
   83.1250000000000         3.946494567170539E-011
   83.3150000000000         3.962695589829420E-011
   83.5050000000000         3.979101915116516E-011
   83.6950000000000         3.995647479242841E-011
   83.8850000000000         4.012241636248174E-011
   84.0750000000000         4.028683730588473E-011
   84.2650000000000         4.044819487664740E-011
   84.4550000000000         4.060706642373261E-011
   84.6450000000000         4.076507470379772E-011
   84.8350000000000         4.092335313922932E-011
   85.0250000000000         4.108090820659581E-011
   85.2150000000000         4.123437898099959E-011
   85.4050000000000         4.138154773044270E-011
   85.5950000000000         4.152296077290608E-011
   85.7850000000000         4.165365136786690E-011
   85.9750000000000         4.177231014281169E-011
   86.1650000000000         4.188191384561507E-011
   86.3550000000000         4.197864623516504E-011
   86.5450000000000         4.205943963246752E-011
   86.7350000000000         4.212444305846444E-011
   86.9250000000000         4.217703635644317E-011
   87.1150000000000         4.222356018659073E-011
   87.3050000000000         4.226584585243534E-011
   87.4950000000000         4.230156882299580E-011
   87.6850000000000         4.233185553919411E-011
   87.8750000000000         4.235656830592180E-011
   88.0650000000000         4.237567972557447E-011
   88.2550000000000         4.239394037460524E-011
   88.4450000000000         4.241446249428435E-011
   88.6350000000000         4.243642729694724E-011
   88.8250000000000         4.245857965806027E-011
   89.0150000000000         4.248266547685723E-011
   89.2050000000000         4.251185084591880E-011
   89.3950000000000         4.255562641608905E-011
   89.5850000000000         4.262076729551332E-011
   89.7750000000000         4.270146039979465E-011
   89.9650000000000         4.279208780690444E-011
   90.1550000000000         4.289163446766536E-011
   90.3450000000000         4.299780693012831E-011
   90.5350000000000         4.311217914209208E-011
   90.7250000000000         4.323715515875512E-011
   90.9150000000000         4.337204987997601E-011
   91.1050000000000         4.351546173192033E-011
   91.2950000000000         4.366425979647282E-011
   91.4850000000000         4.382214555951054E-011
   91.6750000000000         4.399270771182383E-011
   91.8650000000000         4.417207104254577E-011
   92.0550000000000         4.435534505156774E-011
   92.2450000000000         4.454029721980651E-011
   92.4350000000000         4.472603302252255E-011
   92.6250000000000         4.491188982390550E-011
   92.8150000000000         4.509801316471730E-011
   93.0050000000000         4.528435662496503E-011
   93.1950000000000         4.546796710862290E-011
   93.3850000000000         4.564166782028795E-011
   93.5750000000000         4.578863231620232E-011
   93.7650000000000         4.590446532233848E-011
   93.9550000000000         4.600725268590918E-011
   94.1450000000000         4.610317323131401E-011
   94.3350000000000         4.618358738371933E-011
   94.5250000000000         4.624939875084842E-011
   94.7150000000000         4.630649651896952E-011
   94.9050000000000         4.635497054531730E-011
   95.0950000000000         4.640402578601594E-011
   95.2850000000000         4.645761168476300E-011
   95.4750000000000         4.650955632935697E-011
   95.6650000000000         4.655817821764650E-011
   95.8550000000000         4.660278667047809E-011
   96.0450000000000         4.664581214844539E-011
   96.2350000000000         4.668831437528924E-011
   96.4250000000000         4.673001532659164E-011
   96.6150000000000         4.677090222648771E-011
   96.8050000000000         4.680877313150890E-011
   96.9950000000000         4.684130776950897E-011
   97.1850000000000         4.686949618706757E-011
   97.3750000000000         4.689784105821883E-011
   97.5650000000000         4.693084998902777E-011
   97.7550000000000         4.697037003955210E-011
   97.9450000000000         4.701652831597133E-011
   98.1350000000000         4.706890858369032E-011
   98.3250000000000         4.712851182191715E-011
   98.5150000000000         4.720112703965361E-011
   98.7050000000000         4.728994198388090E-011
   98.8950000000000         4.739126904733645E-011
   99.0850000000000         4.750225561788275E-011
   99.2750000000000         4.762433071070161E-011
   99.4650000000000         4.775756719150191E-011
   99.6550000000000         4.789725635546395E-011
   99.8450000000000         4.803979721002317E-011
   100.035000000000         4.818260608101696E-011
   100.225000000000         4.832492964466337E-011
   100.415000000000         4.846758231622343E-011
   100.605000000000         4.861004897758691E-011
   100.795000000000         4.875157831255156E-011
   100.985000000000         4.889219618296658E-011
   101.175000000000         4.903422692713563E-011
   101.365000000000         4.917788549590603E-011
   101.555000000000         4.932063883523648E-011
   101.745000000000         4.946081539236174E-011
   101.935000000000         4.959694609076970E-011
   102.125000000000         4.972766108184710E-011
   102.315000000000         4.985971985730477E-011
   102.505000000000         4.999949930208009E-011
   102.695000000000         5.013721991691890E-011
   102.885000000000         5.026700711490873E-011
   103.075000000000         5.039508453209966E-011
   103.265000000000         5.051619453332328E-011
   103.455000000000         5.063159506991436E-011
   103.645000000000         5.074079756247850E-011
   103.835000000000         5.084192044104729E-011
   104.025000000000         5.094269198529400E-011
   104.215000000000         5.103987978744054E-011
   104.405000000000         5.113513330831090E-011
   104.595000000000         5.123207346679049E-011
   104.785000000000         5.132990393911172E-011
   104.975000000000         5.142766591285368E-011
   105.165000000000         5.152378750723803E-011
   105.355000000000         5.161772539467510E-011
   105.545000000000         5.171092149847645E-011
   105.735000000000         5.180570786995234E-011
   105.925000000000         5.190293924194786E-011
   106.115000000000         5.200040682166005E-011
   106.305000000000         5.209416705754731E-011
   106.495000000000         5.218206808492276E-011
   106.685000000000         5.226465258040911E-011
   106.875000000000         5.234398463582647E-011
   107.065000000000         5.242185339957630E-011
   107.255000000000         5.249792427383418E-011
   107.445000000000         5.257099233953388E-011
   107.635000000000         5.264069569988952E-011
   107.825000000000         5.270871626121746E-011
   108.015000000000         5.277826113345516E-011
   108.205000000000         5.285126558188077E-011
   108.395000000000         5.292748035896789E-011
   108.585000000000         5.300591079976463E-011
   108.775000000000         5.308568940085606E-011
   108.965000000000         5.316716281063474E-011
   109.155000000000         5.325106693563948E-011
   109.345000000000         5.333841756121630E-011
   109.535000000000         5.342919712862522E-011
   109.725000000000         5.352117215914176E-011
   109.915000000000         5.361256791422117E-011
   110.105000000000         5.370415922149147E-011