  -1.42500000000000        -6.566507627853394E-020
  -1.23500000000000         4.286619486813408E-019
  -1.04500000000000         4.498941927342364E-018
 -0.855000000000000         2.290393496294128E-017
 -0.665000000000000         9.623250250404554E-017
 -0.475000000000000         3.176073526830928E-016
 -0.285000000000000         8.802269717708701E-016
 -9.499999999999975E-002    2.431048520810961E-015
  9.500000000000020E-002    5.849492595663244E-015
  0.285000000000000         1.238495662211932E-014
  0.475000000000000         2.301018814177952E-014
  0.665000000000000         3.816399000018314E-014
  0.855000000000000         5.785124446166958E-014
   1.04500000000000         8.602840598314527E-014
   1.23500000000000         1.308036179761079E-013
   1.42500000000000         1.857190066393401E-013
   1.61500000000000         2.459399225751125E-013
   1.80500000000000         3.152334183251283E-013
   1.99500000000000         3.924399898327719E-013
   2.18500000000000         4.796058791028740E-013
   2.37500000000000         5.781549014927240E-013
   2.56500000000000         6.878849210089827E-013
   2.75500000000000         8.084624327889180E-013
   2.94500000000000         9.394928636532668E-013
   3.13500000000000         1.080352940558965E-012
   3.32500000000000         1.226703523748778E-012
   3.51500000000000         1.375468953266297E-012
   3.70500000000000         1.526464787141915E-012
   3.89500000000000         1.678775829157143E-012
   4.08500000000000         1.832280505717699E-012
   4.27500000000000         1.986617998055023E-012
   4.46500000000000         2.141016453335218E-012
   4.65500000000000         2.293505878430768E-012
   4.84500000000000         2.441774928936291E-012
   5.03500000000000         2.584817786410014E-012
   5.22500000000000         2.725131408536062E-012
   5.41500000000000         2.862622962966398E-012
   5.60500000000000         2.993337860334017E-012
   5.79500000000000         3.116354879590722E-012
   5.98500000000000         3.229764207951852E-012
   6.17500000000000         3.328788779484641E-012
   6.36500000000000         3.409621021210315E-012
   6.55500000000000         3.476938872867055E-012
   6.74500000000000         3.538788866607606E-012
   6.93500000000000         3.593699984654017E-012
   7.12500000000000         3.638619652813428E-012
   7.31500000000000         3.679067933475761E-012
   7.50500000000000         3.720089978722096E-012
   7.69500000000000         3.762018357229344E-012
   7.88500000000000         3.807077664835228E-012
   8.07500000000000         3.857766848404379E-012
   8.26500000000000         3.911594794817253E-012
   8.45500000000000         3.965770907992250E-012
   8.64500000000000         4.023770281543746E-012
   8.83500000000000         4.089299240852100E-012
   9.02500000000000         4.169731752659772E-012
   9.21500000000000         4.261193053487764E-012
   9.40500000000000         4.351534603517858E-012
   9.59500000000000         4.441800537781265E-012
   9.78500000000000         4.537189359655502E-012
   9.97500000000000         4.639457162971638E-012
   10.1650000000000         4.743542581059806E-012
   10.3550000000000         4.846737834074626E-012
   10.5450000000000         4.950401556074676E-012
   10.7350000000000         5.054773680116121E-012
   10.9250000000000         5.160134706521203E-012
   11.1150000000000         5.266204683422679E-012
   11.3050000000000         5.372539236598183E-012
   11.4950000000000         5.479441586897263E-012
   11.6850000000000         5.587825471486619E-012
   11.8750000000000         5.698441768076092E-012
   12.0650000000000         5.811576158591591E-012
   12.2550000000000         5.926727516745222E-012
   12.4450000000000         6.042631484837815E-012
   12.6350000000000         6.157833536189154E-012
   12.8250000000000         6.271290381661321E-012
   13.0150000000000         6.380165291171886E-012
   13.2050000000000         6.482632157712656E-012
   13.3950000000000         6.577601624856148E-012
   13.5850000000000         6.662462134518219E-012
   13.7750000000000         6.735461279008828E-012
   13.9650000000000         6.796527304855122E-012
   14.1550000000000         6.848670915969941E-012
   14.3450000000000         6.895440427161517E-012
   14.5350000000000         6.939176796200157E-012
   14.7250000000000         6.981500396724082E-012
   14.9150000000000         7.024256585015793E-012
   15.1050000000000         7.069867148212272E-012
   15.2950000000000         7.123823240158978E-012
   15.4850000000000         7.191013416260709E-012
   15.6750000000000         7.267945629272494E-012
   15.8650000000000         7.351840664761895E-012
   16.0550000000000         7.445929327706851E-012
   16.2450000000000         7.547127574953648E-012
   16.4350000000000         7.650419905394525E-012
   16.6250000000000         7.758187088356302E-012
   16.8150000000000         7.872731028557431E-012
   17.0050000000000         7.991875696149004E-012
   17.1950000000000         8.114051077383153E-012
   17.3850000000000         8.239313471310585E-012
   17.5750000000000         8.368156301014178E-012
   17.7650000000000         8.500432987510173E-012
   17.9550000000000         8.635385025752543E-012
   18.1450000000000         8.772831673098565E-012
   18.3350000000000         8.911976138723257E-012
   18.5250000000000         9.052398316572549E-012
   18.7150000000000         9.193598350629320E-012
   18.9050000000000         9.333167015161370E-012
   19.0950000000000         9.468224816010524E-012
   19.2850000000000         9.597184435506532E-012
   19.4750000000000         9.718750483263407E-012
   19.6650000000000         9.831703800528327E-012
   19.8550000000000         9.934760991699416E-012
   20.0450000000000         1.002685324731260E-011
   20.2350000000000         1.010768870809819E-011
   20.4250000000000         1.017764959119564E-011
   20.6150000000000         1.023671541141924E-011
   20.8050000000000         1.028548724053803E-011
   20.9950000000000         1.032531546719756E-011
   21.1850000000000         1.035743366552342E-011
   21.3750000000000         1.038310739433547E-011
   21.5650000000000         1.040419145936093E-011
   21.7550000000000         1.042287318841986E-011
   21.9450000000000         1.043932890348098E-011
   22.1350000000000         1.045415723641861E-011
   22.3250000000000         1.047300859473850E-011
   22.5150000000000         1.050105109873513E-011
   22.7050000000000         1.053880004526537E-011
   22.8950000000000         1.058624188794993E-011
   23.0850000000000         1.064228936530802E-011
   23.2750000000000         1.070935879243403E-011
   23.4650000000000         1.078454568925754E-011
   23.6550000000000         1.086789648441015E-011
   23.8450000000000         1.096745126530492E-011
   24.0350000000000         1.108034241481582E-011
   24.2250000000000         1.120547991888010E-011
   24.4150000000000         1.134496300463384E-011
   24.6050000000000         1.150014882215189E-011
   24.7950000000000         1.166119988272479E-011
   24.9850000000000         1.182386914444975E-011
   25.1750000000000         1.198950011989866E-011
   25.3650000000000         1.215353087506702E-011
   25.5550000000000         1.231760026092855E-011
   25.7450000000000         1.247930399740367E-011
   25.9350000000000         1.263806660514068E-011
   26.1250000000000         1.279387095955569E-011
   26.3150000000000         1.294469044803329E-011
   26.5050000000000         1.309004960396232E-011
   26.6950000000000         1.323004988058803E-011
   26.8850000000000         1.336457209840766E-011
   27.0750000000000         1.349289550513015E-011
   27.2650000000000         1.361509471452776E-011
   27.4550000000000         1.373216374071861E-011
   27.6450000000000         1.384383719095873E-011
   27.8350000000000         1.395021478595928E-011
   28.0250000000000         1.404981244238265E-011
   28.2150000000000         1.414098481159159E-011
   28.4050000000000         1.422306174944522E-011
   28.5950000000000         1.428716611006885E-011
   28.7850000000000         1.433234857329162E-011
   28.9750000000000         1.436676657024713E-011
   29.1650000000000         1.439420739325287E-011
   29.3550000000000         1.441511737109150E-011
   29.5450000000000         1.442694138861730E-011
   29.7350000000000         1.443109611521679E-011
   29.9250000000000         1.443200010811140E-011
   30.1150000000000         1.442974259048528E-011
   30.3050000000000         1.442596144598243E-011
   30.4950000000000         1.442773638471913E-011
   30.6850000000000         1.443403647509362E-011
   30.8750000000000         1.444833498391939E-011
   31.0650000000000         1.447436584330422E-011
   31.2550000000000         1.451514868080486E-011
   31.4450000000000         1.457287882211835E-011
   31.6350000000000         1.465118128406552E-011
   31.8250000000000         1.474816400604631E-011
   32.0150000000000         1.485477513832624E-011
   32.2050000000000         1.497679929324905E-011
   32.3950000000000         1.511914616046332E-011
   32.5850000000000         1.527919506487254E-011
   32.7750000000000         1.544368241012184E-011
   32.9650000000000         1.560936637494089E-011
   33.1550000000000         1.578308373674410E-011
   33.3450000000000         1.596227199323598E-011
   33.5350000000000         1.614460060276023E-011
   33.7250000000000         1.632821880036037E-011
   33.9150000000000         1.650998989568144E-011
   34.1050000000000         1.668744434651117E-011
   34.2950000000000         1.685827848109804E-011
   34.4850000000000         1.702052264891032E-011
   34.6750000000000         1.717219170838904E-011
   34.8650000000000         1.731233535498222E-011
   35.0550000000000         1.744119971368059E-011
   35.2450000000000         1.755595397908128E-011
   35.4350000000000         1.765456392779686E-011
   35.6250000000000         1.774140165546245E-011
   35.8150000000000         1.782015529586800E-011
   36.0050000000000         1.789636577642630E-011
   36.1950000000000         1.797039236350744E-011
   36.3850000000000         1.803644685483881E-011
   36.5750000000000         1.809689609201931E-011
   36.7650000000000         1.815415156084002E-011
   36.9550000000000         1.820753882474865E-011
   37.1450000000000         1.825587743987937E-011
   37.3350000000000         1.829890739963422E-011
   37.5250000000000         1.833849756002931E-011
   37.7150000000000         1.837657048068659E-011
   37.9050000000000         1.841511468618875E-011
   38.0950000000000         1.845537625465860E-011
   38.2850000000000         1.849786970872467E-011
   38.4750000000000         1.855234710344987E-011
   38.6650000000000         1.861963885464475E-011
   38.8550000000000         1.869463150152833E-011
   39.0450000000000         1.878220549167443E-011
   39.2350000000000         1.888442477164214E-011
   39.4250000000000         1.900028600333722E-011
   39.6150000000000         1.912953789184878E-011
   39.8050000000000         1.927142715171678E-011
   39.9950000000000         1.941907083740623E-011
   40.1850000000000         1.956927257150515E-011
   40.3750000000000         1.972288197757061E-011
   40.5650000000000         1.987875000326937E-011
   40.7550000000000         2.003528506182745E-011
   40.9450000000000         2.019033676048426E-011
   41.1350000000000         2.033886057250959E-011
   41.3250000000000         2.047639562606664E-011
   41.5150000000000         2.060256567296679E-011
   41.7050000000000         2.071979508826008E-011
   41.8950000000000         2.082976470632677E-011
   42.0850000000000         2.093420422642434E-011
   42.2750000000000         2.103524985104479E-011
   42.4650000000000         2.113149993932821E-011
   42.6550000000000         2.122251544130858E-011
   42.8450000000000         2.130878439906937E-011
   43.0350000000000         2.138994473382324E-011
   43.2250000000000         2.146811783742092E-011
   43.4150000000000         2.154372156051635E-011
   43.6050000000000         2.161636808053453E-011
   43.7950000000000         2.168801843459586E-011
   43.9850000000000         2.175795723117397E-011
   44.1750000000000         2.182422036670509E-011
   44.3650000000000         2.188615575070856E-011
   44.5550000000000         2.194517643882480E-011
   44.7450000000000         2.200938629329893E-011
   44.9350000000000         2.208291393612064E-011
   45.1250000000000         2.216217166905476E-011
   45.3150000000000         2.224772570710621E-011
   45.5050000000000         2.234089072041727E-011
   45.6950000000000         2.244433676586966E-011
   45.8850000000000         2.256099847648067E-011
   46.0750000000000         2.268418975650837E-011
   46.2650000000000         2.281153425005896E-011
   46.4550000000000         2.294693503568951E-011
   46.6450000000000         2.308862417112937E-011
   46.8350000000000         2.323164427922678E-011
   47.0250000000000         2.337063415207097E-011
   47.2150000000000         2.350574778024664E-011
   47.4050000000000         2.363617049474010E-011
   47.5950000000000         2.375742796312944E-011
   47.7850000000000         2.387072891325990E-011
   47.9750000000000         2.397208724609125E-011
   48.1650000000000         2.405802389162027E-011
   48.3550000000000         2.413514790612737E-011
   48.5450000000000         2.420945561342811E-011
   48.7350000000000         2.428261297861188E-011
   48.9250000000000         2.435112625393559E-011
   49.1150000000000         2.441411665763768E-011
   49.3050000000000         2.447234292222411E-011
   49.4950000000000         2.452209627948355E-011
   49.6850000000000         2.456331424084514E-011
   49.8750000000000         2.460307343627011E-011
   50.0650000000000         2.464541947234165E-011
   50.2550000000000         2.468752076435964E-011
   50.4450000000000         2.472782974188957E-011
   50.6350000000000         2.476598339100149E-011
   50.8250000000000         2.480329637776187E-011
   51.0150000000000         2.484147890616643E-011
   51.2050000000000         2.487918287392938E-011
   51.3950000000000         2.491956699859560E-011
   51.5850000000000         2.497038409473630E-011
   51.7750000000000         2.503512387320275E-011
   51.9650000000000         2.510503454736893E-011
   52.1550000000000         2.517643335220019E-011
   52.3450000000000         2.526005059099644E-011
   52.5350000000000         2.535991618334887E-011
   52.7250000000000         2.547721116438149E-011
   52.9150000000000         2.560729361725499E-011
   53.1050000000000         2.574266421619376E-011
   53.2950000000000         2.588285931942541E-011
   53.4850000000000         2.603440916153389E-011
   53.6750000000000         2.620327977366264E-011
   53.8650000000000         2.638352134408272E-011
   54.0550000000000         2.656970659688365E-011
   54.2450000000000         2.675973397026572E-011
   54.4350000000000         2.695222081023288E-011
   54.6250000000000         2.714671501230053E-011
   54.8150000000000         2.734050416081442E-011
   55.0050000000000         2.753016480831968E-011
   55.1950000000000         2.771566325543543E-011
   55.3850000000000         2.789837315703885E-011
   55.5750000000000         2.808107454357172E-011
   55.7650000000000         2.826261057001693E-011
   55.9550000000000         2.843935121521215E-011
   56.1450000000000         2.860160022571196E-011
   56.3350000000000         2.873999907097089E-011
   56.5250000000000         2.885499555627306E-011
   56.7150000000000         2.895196174535940E-011
   56.9050000000000         2.903595949899619E-011
   57.0950000000000         2.910853878428348E-011
   57.2850000000000         2.917363752448955E-011
   57.4750000000000         2.922961249981673E-011
   57.6650000000000         2.927627387480083E-011
   57.8550000000000         2.931599520206805E-011
   58.0450000000000         2.934691716537438E-011
   58.2350000000000         2.937143912943737E-011
   58.4250000000000         2.939146418437659E-011
   58.6150000000000         2.940643213225762E-011
   58.8050000000000         2.941734765580095E-011
   58.9950000000000         2.942663042373041E-011
   59.1850000000000         2.943662433035131E-011
   59.3750000000000         2.944782823164821E-011
   59.5650000000000         2.945859099267961E-011
   59.7550000000000         2.946687288822565E-011
   59.9450000000000         2.947215917667845E-011
   60.1350000000000         2.947654230513703E-011
   60.3250000000000         2.948411145437653E-011
   60.5150000000000         2.949783096124424E-011
   60.7050000000000         2.951930786765518E-011
   60.8950000000000         2.955745029372323E-011
   61.0850000000000         2.961582336349339E-011
   61.2750000000000         2.969432238879753E-011
   61.4650000000000         2.979450536315576E-011
   61.6550000000000         2.991394955616594E-011
   61.8450000000000         3.005012545362270E-011
   62.0350000000000         3.019670851884085E-011
   62.2250000000000         3.035033465886850E-011
   62.4150000000000         3.050727264579230E-011
   62.6050000000000         3.066424378861394E-011
   62.7950000000000         3.082482078496835E-011
   62.9850000000000         3.098857250337956E-011
   63.1750000000000         3.115265472221698E-011
   63.3650000000000         3.131656991511708E-011
   63.5550000000000         3.147915014388618E-011
   63.7450000000000         3.164056632865962E-011
   63.9350000000000         3.180004530549035E-011
   64.1250000000000         3.195107669400025E-011
   64.3150000000000         3.208879968961204E-011
   64.5050000000000         3.221474584492899E-011
   64.6950000000000         3.232347733752764E-011
   64.8850000000000         3.242555615981386E-011
   65.0750000000000         3.252346689341259E-011
   65.2650000000000         3.260709798803366E-011
   65.4550000000000         3.268283955816365E-011
   65.6450000000000         3.275320390256100E-011
   65.8350000000000         3.281751823792193E-011
   66.0250000000000         3.287503853997612E-011
   66.2150000000000         3.292625859264075E-011
   66.4050000000000         3.297101134022384E-011
   66.5950000000000         3.301062797370313E-011
   66.7850000000000         3.304551118034387E-011
   66.9750000000000         3.307550859771475E-011
   67.1650000000000         3.310259148386373E-011
   67.3550000000000         3.312877272247939E-011
   67.5450000000000         3.315583305866214E-011
   67.7350000000000         3.318477589222367E-011
   67.9250000000000         3.321613177565585E-011
   68.1150000000000         3.325186292852735E-011
   68.3050000000000         3.329695448105113E-011
   68.4950000000000         3.336004317140247E-011
   68.6850000000000         3.344302467387273E-011
   68.8750000000000         3.354042403879608E-011
   69.0650000000000         3.364889383763811E-011
   69.2550000000000         3.376681298275869E-011
   69.4450000000000         3.389359598430802E-011
   69.6350000000000         3.402799717358832E-011
   69.8250000000000         3.416974911291793E-011
   70.0150000000000         3.431717805881855E-011
   70.2050000000000         3.446621438438206E-011
   70.3950000000000         3.461496167199605E-011
   70.5850000000000         3.476375091280414E-011
   70.7750000000000         3.491256756279875E-011
   70.9650000000000         3.506152650157467E-011
   71.1550000000000         3.520903685377326E-011
   71.3450000000000         3.535526961590837E-011
   71.5350000000000         3.549924352800752E-011
   71.7250000000000         3.564054131153300E-011
   71.9150000000000         3.578090338119716E-011
   72.1050000000000         3.591956516386756E-011
   72.2950000000000         3.605672401115146E-011
   72.4850000000000         3.619130247270937E-011
   72.6750000000000         3.632246181001173E-011
   72.8650000000000         3.645077258425907E-011
   73.0550000000000         3.657796377958733E-011
   73.2450000000000         3.670612440147846E-011
   73.4350000000000         3.683563258318406E-011
   73.6250000000000         3.696427278272325E-011
   73.8150000000000         3.709166225692466E-011
   74.0050000000000         3.721841730020466E-011
   74.1950000000000         3.734392745668239E-011
   74.3850000000000         3.746813007966331E-011
   74.5750000000000         3.758929132913610E-011
   74.7650000000000         3.770469835472424E-011
   74.9550000000000         3.781260445272696E-011
   75.1450000000000         3.791469958120457E-011
   75.3350000000000         3.801672516815843E-011
   75.5250000000000         3.812061460440633E-011
   75.7150000000000         3.822533161339587E-011
   75.9050000000000         3.833119603175330E-011
   76.0950000000000         3.843739389805104E-011
   76.2850000000000         3.854437903068356E-011
   76.4750000000000         3.865444176256587E-011
   76.6650000000000         3.876825440443356E-011
   76.8550000000000         3.888341524721612E-011
   77.0450000000000         3.899641063701079E-011
   77.2350000000000         3.910376600916597E-011
   77.4250000000000         3.920056380728835E-011
   77.6150000000000         3.928369175055289E-011
   77.8050000000000         3.935719485525285E-011
   77.9950000000000         3.942535731775473E-011
   78.1850000000000         3.948808059682312E-011
   78.3750000000000         3.954387297333811E-011
   78.5650000000000         3.959515352713013E-011
   78.7550000000000         3.964596386318333E-011
   78.9450000000000         3.969773450819584E-011
   79.1350000000000         3.975054016848521E-011
   79.3250000000000         3.980175538849337E-011
   79.5150000000000         3.984854054490766E-011
   79.7050000000000         3.988990405699458E-011
   79.8950000000000         3.992884983982852E-011
   80.0850000000000         3.997278946568741E-011
   80.2750000000000         4.002755276860270E-011
   80.4650000000000         4.008971805223602E-011
   80.6550000000000         4.015479162181969E-011
   80.8450000000000         4.022541596601500E-011
   81.0350000000000         4.030454766173005E-011
   81.2250000000000         4.039955353192287E-011
   81.4150000000000         4.051268939754672E-011
   81.6050000000000         4.063949168581781E-011
   81.7950000000000         4.076856307764054E-011
   81.9850000000000         4.089488319431609E-011
   82.1750000000000         4.102727726232324E-011
   82.3650000000000         4.116765539794295E-011
   82.5550000000000         4.131686571905678E-011
   82.7450000000000         4.147525921293118E-011
   82.9350000000000         4.163732992702849E-011
   83.1250000000000         4.179873858738981E-011
   83.3150000000000         4.196114431259969E-011
   83.5050000000000         4.212841553471671E-011
   83.6950000000000         4.230131378598719E-011
   83.8850000000000         4.247760751361876E-011
   84.0750000000000         4.265537636559612E-011
   84.2650000000000         4.283239119284927E-011
   84.4550000000000         4.300768858385334E-011
   84.6450000000000         4.318166553705811E-011
   84.8350000000000         4.335540496308920E-011
   85.0250000000000         4.352861371447904E-011
   85.2150000000000         4.369852155042641E-011
   85.4050000000000         4.386280780184538E-011
   85.5950000000000         4.402019856981494E-011
   85.7850000000000         4.416538190269327E-011
   85.9750000000000         4.429707272306167E-011
   86.1650000000000         4.441802954059190E-011
   86.3550000000000         4.452672121702978E-011
   86.5450000000000         4.461902214577029E-011
   86.7350000000000         4.469197870790333E-011
   86.9250000000000         4.474824567071351E-011
   87.1150000000000         4.479386006832659E-011
   87.3050000000000         4.483066974428541E-011
   87.4950000000000         4.485843377479470E-011
   87.6850000000000         4.487936948689624E-011
   87.8750000000000         4.489511140712554E-011
   88.0650000000000         4.490657977426445E-011
   88.2550000000000         4.491799559025472E-011
   88.4450000000000         4.493411784015846E-011
   88.6350000000000         4.495483811983465E-011
   88.8250000000000         4.497880011471175E-011
   89.0150000000000         4.500725495313126E-011
   89.2050000000000         4.504236409371998E-011
   89.3950000000000         4.509266376375390E-011
   89.5850000000000         4.516378805267179E-011
   89.7750000000000         4.525097697716934E-011
   89.9650000000000         4.534906047500677E-011
   90.1550000000000         4.545509561946163E-011
   90.3450000000000         4.556678218989450E-011
   90.5350000000000         4.568651537268204E-011
   90.7250000000000         4.581875181268343E-011
   90.9150000000000         4.596441681213683E-011
   91.1050000000000         4.612099967458109E-011
   91.2950000000000         4.628538294387054E-011
   91.4850000000000         4.646001601882077E-011
   91.6750000000000         4.664699592162395E-011
   91.8650000000000         4.684288305134002E-011
   92.0550000000000         4.704220938504903E-011
   92.2450000000000         4.724141879948238E-011
   92.4350000000000         4.743866551982915E-011
   92.6250000000000         4.763352455615487E-011
   92.8150000000000         4.782646566766012E-011
   93.0050000000000         4.801790702497460E-011
   93.1950000000000         4.820557720851086E-011
   93.3850000000000         4.838183879037688E-011
   93.5750000000000         4.853284169110904E-011
   93.7650000000000         4.865879141993761E-011
   93.9550000000000         4.876809656626392E-011
   94.1450000000000         4.886537325043747E-011
   94.3350000000000         4.895020893725350E-011
   94.5250000000000         4.901951348171453E-011
   94.7150000000000         4.907656080956489E-011
   94.9050000000000         4.912232751586610E-011
   95.0950000000000         4.916593986251413E-011
   95.2850000000000         4.921230550399446E-011
   95.4750000000000         4.925694976965044E-011
   95.6650000000000         4.929803935811385E-011
   95.8550000000000         4.933387549508510E-011
   96.0450000000000         4.936620539450729E-011
   96.2350000000000         4.939641546967478E-011
   96.4250000000000         4.942605517392689E-011
   96.6150000000000         4.945667055241084E-011
   96.8050000000000         4.948637876549045E-011
   96.9950000000000         4.951265723030928E-011
   97.1850000000000         4.953622723808850E-011
   97.3750000000000         4.956164604297410E-011
   97.5650000000000         4.959404765113642E-011
   97.7550000000000         4.963578392128105E-011
   97.9450000000000         4.968675141762687E-011
   98.1350000000000         4.974568830106447E-011
   98.3250000000000         4.981647988867116E-011
   98.5150000000000         4.990341452262036E-011
   98.7050000000000         5.000669857325225E-011
   98.8950000000000         5.012597662012887E-011
   99.0850000000000         5.025556571892769E-011
   99.2750000000000         5.039572826472989E-011
   99.4650000000000         5.054579143263156E-011
   99.6550000000000         5.069778024011363E-011
   99.8450000000000         5.084713630527250E-011
   100.035000000000         5.099653961176834E-011
   100.225000000000         5.114615620462355E-011
   100.415000000000         5.129088255605976E-011
   100.605000000000         5.143078596565910E-011
   100.795000000000         5.156760462829532E-011
   100.985000000000         5.170622055138587E-011
   101.175000000000         5.185051338647562E-011
   101.365000000000         5.199889176649230E-011
   101.555000000000         5.214749122768354E-011
   101.745000000000         5.229287278715509E-011
   101.935000000000         5.243220419848228E-011
   102.125000000000         5.256682554479321E-011
   102.315000000000         5.270821086360531E-011
   102.505000000000         5.285559286933415E-011
   102.695000000000         5.300022197767571E-011
   102.885000000000         5.314085412227980E-011
   103.075000000000         5.327675039597142E-011
   103.265000000000         5.340787581181698E-011
   103.455000000000         5.352929782745083E-011
   103.645000000000         5.364317465096672E-011
   103.835000000000         5.375352848271108E-011
   104.025000000000         5.386158949229494E-011
   104.215000000000         5.396608634516923E-011
   104.405000000000         5.406701732930051E-011
   104.595000000000         5.416851824065543E-011
   104.785000000000         5.427087080423545E-011
   104.975000000000         5.437330582343475E-011
   105.165000000000         5.447290894083541E-011
   105.355000000000         5.456830460077128E-011
   105.545000000000         5.466209664706523E-011
   105.735000000000         5.475840521455725E-011
   105.925000000000         5.485874078425711E-011
   106.115000000000         5.496047054319272E-011
   106.305000000000         5.505916253575766E-011
   106.495000000000         5.515252882570582E-011
   106.685000000000         5.524120446383791E-011
   106.875000000000         5.532787934161508E-011
   107.065000000000         5.541509920758787E-011
   107.255000000000         5.550215511187083E-011
   107.445000000000         5.558654845912473E-011
   107.635000000000         5.566687064819535E-011
   107.825000000000         5.574449036985879E-011
   108.015000000000         5.582295288322388E-011
   108.205000000000         5.590517932049282E-011
   108.395000000000         5.599204367330724E-011
   108.585000000000         5.608223354803629E-011
   108.775000000000         5.617288346653682E-011
   108.965000000000         5.626284516204538E-011
   109.155000000000         5.635362416959470E-011
   109.345000000000         5.644785830620492E-011
   109.535000000000         5.654595566488748E-011
   109.725000000000         5.664487315140958E-011
   109.915000000000         5.674182071813876E-011
   110.105000000000         5.683717135747942E-011