  -1.42500000000000        -6.912113292477256E-019
  -1.23500000000000         5.894653697246406E-018
  -1.04500000000000         3.695039870971175E-017
 -0.855000000000000         1.567863700860662E-016
 -0.665000000000000         6.150932882413470E-016
 -0.475000000000000         1.715168292590728E-015
 -0.285000000000000         4.207143487280614E-015
 -9.499999999999975E-002    1.211729387103614E-014
  9.500000000000020E-002    2.386632796951421E-014
  0.285000000000000         4.492803020370763E-014
  0.475000000000000         6.691651210850494E-014
  0.665000000000000         9.259719166416463E-014
  0.855000000000000         1.146370658251663E-013
   1.04500000000000         1.819646344008937E-013
   1.23500000000000         2.893533865776602E-013
   1.42500000000000         2.887033361932054E-013
   1.61500000000000         3.452010420780827E-013
   1.80500000000000         3.842041763431347E-013
   1.99500000000000         4.284965763689032E-013
   2.18500000000000         4.890391001584871E-013
   2.37500000000000         5.483190302609880E-013
   2.56500000000000         6.067338067522614E-013
   2.75500000000000         6.625031593523180E-013
   2.94500000000000         7.167645339566181E-013
   3.13500000000000         7.659731176823129E-013
   3.32500000000000         7.745593369472913E-013
   3.51500000000000         7.913925527108052E-013
   3.70500000000000         7.980372775588634E-013
   3.89500000000000         8.052368489172216E-013
   4.08500000000000         8.106018517202036E-013
   4.27500000000000         8.140033307779447E-013
   4.46500000000000         8.112435669083156E-013
   4.65500000000000         7.939082762027459E-013
   4.84500000000000         7.668185712238054E-013
   5.03500000000000         7.388957179732809E-013
   5.22500000000000         7.380897780903864E-013
   5.41500000000000         7.091897422289436E-013
   5.60500000000000         6.667565458512572E-013
   5.79500000000000         6.281594463245736E-013
   5.98500000000000         5.656229574768064E-013
   6.17500000000000         4.767409533946532E-013
   6.36500000000000         3.741247489808606E-013
   6.55500000000000         3.344842158269237E-013
   6.74500000000000         3.165683498630900E-013
   6.93500000000000         2.614434190464976E-013
   7.12500000000000         2.113951931578360E-013
   7.31500000000000         2.143761822351440E-013
   7.50500000000000         2.174348203578534E-013
   7.69500000000000         2.239165323500277E-013
   7.88500000000000         2.503919687645384E-013
   8.07500000000000         2.831783845949301E-013
   8.26500000000000         2.834315776458458E-013
   8.45500000000000         2.868432978804406E-013
   8.64500000000000         3.236764237142604E-013
   8.83500000000000         3.661020953210449E-013
   9.02500000000000         4.805559237070859E-013
   9.21500000000000         4.821946113244079E-013
   9.40500000000000         4.687690732028965E-013
   9.59500000000000         4.813986558856012E-013
   9.78500000000000         5.226942059484748E-013
   9.97500000000000         5.538089868529654E-013
   10.1650000000000         5.418269930224824E-013
   10.3550000000000         5.444388281861613E-013
   10.5450000000000         5.467582454985741E-013
   10.7350000000000         5.518956917797847E-013
   10.9250000000000         5.571677440631833E-013
   11.1150000000000         5.593583285839456E-013
   11.3050000000000         5.599527574739959E-013
   11.4950000000000         5.653351404110424E-013
   11.6850000000000         5.755478552663839E-013
   11.8750000000000         5.888342140965054E-013
   12.0650000000000         6.020541071192526E-013
   12.2550000000000         6.100654523926833E-013
   12.4450000000000         6.099763170030182E-013
   12.6350000000000         6.026768551163503E-013
   12.8250000000000         5.916057288011883E-013
   13.0150000000000         5.544459502573975E-013
   13.2050000000000         5.241526449086149E-013
   13.3950000000000         4.755259566018239E-013
   13.5850000000000         4.177425661568235E-013
   13.7750000000000         3.506694811127439E-013
   13.9650000000000         2.921307909535166E-013
   14.1550000000000         2.567493260445552E-013
   14.3450000000000         2.355613180773131E-013
   14.5350000000000         2.248215139083768E-013
   14.7250000000000         2.206900705539807E-013
   14.9150000000000         2.293750693587618E-013
   15.1050000000000         2.507361221831283E-013
   15.2950000000000         3.172227404137640E-013
   15.4850000000000         3.900422711834149E-013
   15.6750000000000         4.197704973617010E-013
   15.8650000000000         4.633351393688240E-013
   16.0550000000000         5.270718389991577E-013
   16.2450000000000         5.381728688618515E-013
   16.4350000000000         5.491148199894823E-013
   16.6250000000000         5.852765796081686E-013
   16.8150000000000         6.204491067194915E-013
   17.0050000000000         6.337052889813007E-013
   17.1950000000000         6.523513555886608E-013
   17.3850000000000         6.662001594369593E-013
   17.5750000000000         6.900401532324535E-013
   17.7650000000000         7.023460204095826E-013
   17.9550000000000         7.182017505627511E-013
   18.1450000000000         7.286050636058840E-013
   18.3350000000000         7.360735219171813E-013
   18.5250000000000         7.420546659701263E-013
   18.7150000000000         7.442614819958766E-013
   18.9050000000000         7.248823551835956E-013
   19.0950000000000         6.967787063864346E-013
   19.2850000000000         6.606909725189438E-013
   19.4750000000000         6.189516354481421E-013
   19.6650000000000         5.700306515510184E-013
   19.8550000000000         5.147818870920269E-013
   20.0450000000000         4.546102772572985E-013
   20.2350000000000         3.962893099594373E-013
   20.4250000000000         3.401410384348054E-013
   20.6150000000000         2.816044376030436E-013
   20.8050000000000         2.317832373315454E-013
   20.9950000000000         1.874612538214997E-013
   21.1850000000000         1.506250443454430E-013
   21.3750000000000         1.196247326234789E-013
   21.5650000000000         1.023127939603177E-013
   21.7550000000000         9.433698560729458E-014
   21.9450000000000         7.888106766767468E-014
   22.1350000000000         7.720664746524797E-014
   22.3250000000000         1.212287032705017E-013
   22.5150000000000         1.739555493255139E-013
   22.7050000000000         2.234017825717581E-013
   22.8950000000000         2.759860351604569E-013
   23.0850000000000         3.139874107142094E-013
   23.2750000000000         3.920065590331748E-013
   23.4650000000000         3.994344601616758E-013
   23.6550000000000         4.779423309184753E-013
   23.8450000000000         5.700027311317153E-013
   24.0350000000000         6.183251584567367E-013
   24.2250000000000         6.989117264303717E-013
   24.4150000000000         7.693312815037510E-013
   24.6050000000000         8.642036397389564E-013
   24.7950000000000         8.310706820810605E-013
   24.9850000000000         8.812373360763637E-013
   25.1750000000000         8.622466160174713E-013
   25.3650000000000         8.643929120705133E-013
   25.5550000000000         8.626532548929411E-013
   25.7450000000000         8.394913395819846E-013
   25.9350000000000         8.316940050181660E-013
   26.1250000000000         8.083518309292365E-013
   26.3150000000000         7.792217319928658E-013
   26.5050000000000         7.508746462074999E-013
   26.6950000000000         7.228124761684058E-013
   26.8850000000000         6.932108693013704E-013
   27.0750000000000         6.575618330405791E-013
   27.2650000000000         6.287456343026703E-013
   27.4550000000000         6.035599045484614E-013
   27.6450000000000         5.719500979791519E-013
   27.8350000000000         5.478140599213791E-013
   28.0250000000000         5.005823234825128E-013
   28.2150000000000         4.591268260851968E-013
   28.4050000000000         4.048409407951543E-013
   28.5950000000000         2.699418026114893E-013
   28.7850000000000         2.056630734177163E-013
   28.9750000000000         1.566316313770744E-013
   29.1650000000000         1.322191371043484E-013
   29.3550000000000         8.788589277603718E-014
   29.5450000000000         3.657744960085347E-014
   29.7350000000000         7.156514604339889E-015
   29.9250000000000         2.359200075677840E-015
   30.1150000000000        -2.612254350845931E-014
   30.3050000000000        -1.367897757413232E-014
   30.4950000000000         3.236254322359852E-014
   30.6850000000000         3.395419756046673E-014
   30.8750000000000         1.165564216580674E-013
   31.0650000000000         1.574526244981145E-013
   31.2550000000000         2.718404018243228E-013
   31.4450000000000         3.358452962124448E-013
   31.6350000000000         4.883911453368140E-013
   31.8250000000000         5.324796123556216E-013
   32.0150000000000         5.897428326963414E-013
   32.2050000000000         6.947219559648270E-013
   32.3950000000000         8.036661199748241E-013
   32.5850000000000         8.810591895959579E-013
   32.7750000000000         8.503865498704139E-013
   32.9650000000000         8.936551850669251E-013
   33.1550000000000         9.349486233879165E-013
   33.3450000000000         9.512435502107692E-013
   33.5350000000000         9.680049710971092E-013
   33.7250000000000         9.648181615359283E-013
   33.9150000000000         9.485617892121475E-013
   34.1050000000000         9.193797984693111E-013
   34.2950000000000         8.788742498134141E-013
   34.4850000000000         8.289590955790612E-013
   34.6750000000000         7.675573199864220E-013
   34.8650000000000         7.076389599418030E-013
   35.0550000000000         6.488279737251896E-013
   35.2450000000000         5.591116620716493E-013
   35.4350000000000         4.788877980923165E-013
   35.6250000000000         4.351935457560015E-013
   35.8150000000000         3.937921427234521E-013
   36.0050000000000         4.084234421007609E-013
   36.1950000000000         3.708037903322970E-013
   36.3850000000000         3.245066447346526E-013
   36.5750000000000         3.118011150601343E-013
   36.7650000000000         2.908880304209860E-013
   36.9550000000000         2.710831686172542E-013
   37.1450000000000         2.377443590745473E-013
   37.3350000000000         2.152025857133070E-013
   37.5250000000000         2.015359447613203E-013
   37.7150000000000         1.992316411048120E-013
   37.9050000000000         2.064968378653074E-013
   38.0950000000000         2.173091460277793E-013
   38.2850000000000         2.299903704571830E-013
   38.4750000000000         3.434558898080419E-013
   38.6650000000000         3.648783332960390E-013
   38.8550000000000         4.245179496889557E-013
   39.0450000000000         4.973135255331893E-013
   39.2350000000000         5.786788951794524E-013
   39.4250000000000         6.409130174003226E-013
   39.6150000000000         7.196331774582027E-013
   39.8050000000000         7.739379790470755E-013
   39.9950000000000         7.802060808419477E-013
   40.1850000000000         8.008648044098556E-013
   40.3750000000000         8.160763120686506E-013
   40.5650000000000         8.246397479182196E-013
   40.7550000000000         8.230977105879499E-013
   40.9450000000000         8.090254331679849E-013
   41.1350000000000         7.543831144670511E-013
   41.3250000000000         6.933542913965489E-013
   41.5150000000000         6.347514654471635E-013
   41.7050000000000         5.992423797453906E-013
   41.8950000000000         5.583325472723231E-013
   42.0850000000000         5.410308221758397E-013
   42.2750000000000         5.226073317236619E-013
   42.4650000000000         4.905514923123586E-013
   42.6550000000000         4.675064232703652E-013
   42.8450000000000         4.405878689485169E-013
   43.0350000000000         4.137314442501267E-013
   43.2250000000000         4.091433304623321E-013
   43.4150000000000         3.866853337000682E-013
   43.6050000000000         3.780148770176895E-013
   43.7950000000000         3.761993762594687E-013
   43.9850000000000         3.599984824574375E-013
   44.1750000000000         3.375082073438470E-013
   44.3650000000000         3.144432032189427E-013
   44.5550000000000         3.068271980046608E-013
   44.7450000000000         3.690660069861779E-013
   44.9350000000000         4.049091806108782E-013
   45.1250000000000         4.293827450113971E-013
   45.3150000000000         4.711860765827702E-013
   45.5050000000000         5.094982740599832E-013
   45.6950000000000         5.794074675440944E-013
   45.8850000000000         6.486105388876096E-013
   46.0750000000000         6.481397771934408E-013
   46.2650000000000         6.923285759707919E-013
   46.4550000000000         7.329428517190661E-013
   46.6450000000000         7.585217318585151E-013
   46.8350000000000         7.469530902194599E-013
   47.0250000000000         7.160982028772952E-013
   47.2150000000000         7.061505147612039E-013
   47.4050000000000         6.667201641172696E-013
   47.5950000000000         6.096742399810926E-013
   47.7850000000000         5.829673403396509E-013
   47.9750000000000         4.839624789376614E-013
   48.1650000000000         4.206337897889281E-013
   48.3550000000000         3.911979418648408E-013
   48.5450000000000         3.909884507745083E-013
   48.7350000000000         3.790890774756832E-013
   48.9250000000000         3.421032943528768E-013
   49.1150000000000         3.209535867216691E-013
   49.3050000000000         2.919544615564880E-013
   49.4950000000000         2.317650885429823E-013
   49.6850000000000         2.021081889474039E-013
   49.8750000000000         2.164096576313217E-013
   50.0650000000000         2.293380904901086E-013
   50.2550000000000         2.138334044360774E-013
   50.4450000000000         2.104716221947827E-013
   50.6350000000000         1.911457368780176E-013
   50.8250000000000         2.016225448101285E-013
   51.0150000000000         2.002988068168316E-013
   51.2050000000000         1.965850643721237E-013
   51.3950000000000         2.285109847459523E-013
   51.5850000000000         3.064058167351685E-013
   51.7750000000000         3.750655355433300E-013
   51.9650000000000         3.608362977847675E-013
   52.1550000000000         3.907300688600436E-013
   52.3450000000000         4.894513921530511E-013
   52.5350000000000         5.617653694514050E-013
   52.7250000000000         6.729186414183763E-013
   52.9150000000000         6.963703361974814E-013
   53.1050000000000         7.285833368421810E-013
   53.2950000000000         7.471545919119828E-013
   53.4850000000000         8.481069039667581E-013
   53.6750000000000         9.294784868620902E-013
   53.8650000000000         9.678012017703701E-013
   54.0550000000000         9.920435645551606E-013
   54.2450000000000         1.008244576308754E-012
   54.4350000000000         1.017932686503476E-012
   54.6250000000000         1.029374703682425E-012
   54.8150000000000         1.010511070148010E-012
   55.0050000000000         9.859167983283341E-013
   55.1950000000000         9.666984344691054E-013
   55.3850000000000         9.565636876721677E-013
   55.5750000000000         9.666088021474335E-013
   55.7650000000000         9.442967393810368E-013
   55.9550000000000         9.161311047792475E-013
   56.1450000000000         7.917532162714474E-013
   56.3350000000000         6.650767338226230E-013
   56.5250000000000         5.454125851474881E-013
   56.7150000000000         4.752841420771593E-013
   56.9050000000000         4.089027383100410E-013
   57.0950000000000         3.550897383982643E-013
   57.2850000000000         3.301601585077186E-013
   57.4750000000000         2.590501080941529E-013
   57.6650000000000         2.321222601595915E-013
   57.8550000000000         1.859969742321797E-013
   58.0450000000000         1.394973763607937E-013
   58.2350000000000         1.186285611443099E-013
   58.4250000000000         9.216149084754902E-014
   58.6150000000000         6.539585526866375E-014
   58.8050000000000         4.950439255570402E-014
   58.9950000000000         4.820895407013377E-014
   59.1850000000000         5.699006299203816E-014
   59.3750000000000         6.094574013316804E-014
   59.5650000000000         5.234648125000947E-014
   59.7550000000000         3.483136660296706E-014
   59.9450000000000         2.081377500545702E-014
   60.1350000000000         2.532441929534221E-014
   60.3250000000000         5.435083585733693E-014
   60.5150000000000         9.006502590794725E-014
   60.7050000000000         1.360076731545573E-013
   60.8950000000000         2.654915486144039E-013
   61.0850000000000         3.489618173873411E-013
   61.2750000000000         4.773437121299024E-013
   61.4650000000000         5.772139126935149E-013
   61.6550000000000         6.800933821504571E-013
   61.8450000000000         7.533371173944599E-013
   62.0350000000000         7.896425164807832E-013
   62.2250000000000         8.274747469681036E-013
   62.4150000000000         8.245040627561074E-013
   62.6050000000000         8.278237564189837E-013
   62.7950000000000         8.624604157327942E-013
   62.9850000000000         8.612418833325398E-013
   63.1750000000000         8.659393675876748E-013
   63.3650000000000         8.594837155712720E-013
   63.5550000000000         8.518871135771508E-013
   63.7450000000000         8.472306208801029E-013
   63.9350000000000         8.314954510223488E-013
   64.1250000000000         7.583086385555965E-013
   64.3150000000000         6.914071047264091E-013
   64.5050000000000         6.343418986098619E-013
   64.6950000000000         5.102001287443056E-013
   64.8850000000000         5.643137900581115E-013
   65.0750000000000         4.663255109811364E-013
   65.2650000000000         4.140018008194797E-013
   65.4550000000000         3.832778847594046E-013
   65.6450000000000         3.573994246863525E-013
   65.8350000000000         3.195935791128348E-013
   66.0250000000000         2.858832846155443E-013
   66.2150000000000         2.532751644858292E-013
   66.4050000000000         2.178063890204373E-013
   66.5950000000000         1.992108054983511E-013
   66.7850000000000         1.679808433515798E-013
   66.9750000000000         1.477814447628989E-013
   67.1650000000000         1.373015673314888E-013
   67.3550000000000         1.382904180965638E-013
   67.5450000000000         1.465552259323071E-013
   67.7350000000000         1.581061799786480E-013
   67.9250000000000         1.719557508864998E-013
   68.1150000000000         2.041616477607944E-013
   68.3050000000000         2.704862735419981E-013
   68.4950000000000         3.936052038406786E-013
   68.6850000000000         4.798842958463740E-013
   68.8750000000000         5.453721770308298E-013
   69.0650000000000         5.964151792011061E-013
   69.2550000000000         6.448389799629326E-013
   69.4450000000000         6.897189310826182E-013
   69.6350000000000         7.250304297627230E-013
   69.8250000000000         7.670952473909935E-013
   70.0150000000000         7.847883936682102E-013
   70.2050000000000         7.840150333160178E-013
   70.3950000000000         7.817458889365915E-013
   70.5850000000000         7.844566458853068E-013
   70.7750000000000         7.820344066895119E-013
   70.9650000000000         7.859544225307128E-013
   71.1550000000000         7.667861269282978E-013
   71.3450000000000         7.725061060728573E-013
   71.5350000000000         7.430087581286214E-013
   71.7250000000000         7.443363316132795E-013
   71.9150000000000         7.331591385357963E-013
   72.1050000000000         7.264385737841391E-013
   72.2950000000000         7.173387660464984E-013
   72.4850000000000         6.992766187735320E-013
   72.6750000000000         6.813479844091977E-013
   72.8650000000000         6.692917445101731E-013
   73.0550000000000         6.695629431556627E-013
   73.2450000000000         6.794962346456830E-013
   73.4350000000000         6.837477833080805E-013
   73.6250000000000         6.703595802622722E-013
   73.8150000000000         6.705822534368704E-013
   74.0050000000000         6.636813600368687E-013
   74.1950000000000         6.574781818339124E-013
   74.3850000000000         6.499178495442626E-013
   74.5750000000000         6.254637238534344E-013
   74.7650000000000         5.893470718112290E-013
   74.9550000000000         5.465065913753307E-013
   75.1450000000000         5.281789715467860E-013
   75.3350000000000         5.457745753359223E-013
   75.5250000000000         5.477984377999086E-013
   75.7150000000000         5.544858673532969E-013
   75.9050000000000         5.598764311457913E-013
   76.0950000000000         5.579958456726526E-013
   76.2850000000000         5.681634451958611E-013
   76.4750000000000         5.903916272494322E-013
   76.6650000000000         6.076361818842503E-013
   76.8550000000000         6.045832158269535E-013
   77.0450000000000         5.848419399063469E-013
   77.2350000000000         5.452146090956732E-013
   77.4250000000000         4.737095816661241E-013
   77.6150000000000         4.013214000659850E-013
   77.8050000000000         3.723954915124086E-013
   77.9950000000000         3.451041137705340E-013
   78.1850000000000         3.151409290545674E-013
   78.3750000000000         2.721472447874835E-013
   78.5650000000000         2.676480582863967E-013
   78.7550000000000         2.671975843788872E-013
   78.9450000000000         2.777565736475244E-013
   79.1350000000000         2.780924820301043E-013
   79.3250000000000         2.610150970031350E-013
   79.5150000000000         2.314602336735253E-013
   79.7050000000000         2.039451567151769E-013
   79.8950000000000         2.060104520631825E-013
   80.0850000000000         2.565119253987676E-013
   80.2750000000000         3.199438947622994E-013
   80.4650000000000         3.344275119041953E-013
   80.6550000000000         3.505574310818712E-013
   80.8450000000000         3.928567183423846E-013
   81.0350000000000         4.401084997107385E-013
   81.2250000000000         5.599532917926758E-013
   81.4150000000000         6.309505568792498E-013
   81.6050000000000         7.038103722902010E-013
   81.7950000000000         6.548358574227352E-013
   81.9850000000000         6.748495812673316E-013
   82.1750000000000         7.187721872289300E-013
   82.3650000000000         7.588923982417365E-013
   82.5550000000000         8.117425608512052E-013
   82.7450000000000         8.555573746688290E-013
   82.9350000000000         8.504501421448860E-013
   83.1250000000000         8.485883879742139E-013
   83.3150000000000         8.609455616035271E-013
   83.5050000000000         8.998041448914374E-013
   83.6950000000000         9.201774474292656E-013
   83.8850000000000         9.355460013240665E-013
   84.0750000000000         9.357050721217532E-013
   84.2650000000000         9.276088989639317E-013
   84.4550000000000         9.176267958158896E-013
   84.6450000000000         9.137095537079125E-013
   84.8350000000000         9.151265097772576E-013
   85.0250000000000         9.081235048527239E-013
   85.2150000000000         8.803800314353593E-013
   85.4050000000000         8.489489308696055E-013
   85.5950000000000         8.077959951255739E-013
   85.7850000000000         7.204496141200270E-013
   85.9750000000000         6.657695476525404E-013
   86.1650000000000         6.074601105605886E-013
   86.3550000000000         5.366627993118102E-013
   86.5450000000000         4.349259242723434E-013
   86.7350000000000         3.330378876542932E-013
   86.9250000000000         2.592459314003142E-013
   87.1150000000000         2.209056224215601E-013
   87.3050000000000         1.665646508289891E-013
   87.4950000000000         1.256883019004793E-013
   87.6850000000000         9.468761495779927E-014
   87.8750000000000         7.101680850855749E-014
   88.0650000000000         4.970284558521857E-014
   88.2550000000000         7.046363852287595E-014
   88.4450000000000         9.924425520077866E-014
   88.6350000000000         1.188639519168509E-013
   88.8250000000000         1.333675731052344E-013
   89.0150000000000         1.661570418370320E-013
   89.2050000000000         2.034128590968845E-013
   89.3950000000000         3.260573517866008E-013
   89.5850000000000         4.226193736646992E-013
   89.7750000000000         4.951587789410821E-013
   89.9650000000000         5.372990930318280E-013
   90.1550000000000         5.788603222825063E-013
   90.3450000000000         5.967877875373111E-013
   90.5350000000000         6.635615049630889E-013
   90.7250000000000         7.284010213672626E-013
   90.9150000000000         8.049147623528185E-013
   91.1050000000000         8.433258949553523E-013
   91.2950000000000         8.870243080914295E-013
   91.4850000000000         9.512185861214807E-013
   91.6750000000000         1.016990917069861E-012
   91.8650000000000         1.044978869415188E-012
   92.0550000000000         1.053193064363833E-012
   92.2450000000000         1.043748140197725E-012
   92.4350000000000         1.032533126610380E-012
   92.6250000000000         1.018614624186469E-012
   92.8150000000000         1.012344444289893E-012
   93.0050000000000         1.002827737967696E-012
   93.1950000000000         9.726478782034598E-013
   93.3850000000000         8.827371940705607E-013
   93.5750000000000         7.067670241624933E-013
   93.7650000000000         6.190195950855611E-013
   93.9550000000000         5.315608925596935E-013
   94.1450000000000         4.924042040041245E-013
   94.3350000000000         4.006030256382411E-013
   94.5250000000000         3.289184950042095E-013
   94.7150000000000         2.715796928941975E-013
   94.9050000000000         2.101751102765406E-013
   95.0950000000000         2.489022228606095E-013
   95.2850000000000         2.391571611427277E-013
   95.4750000000000         2.307824773413301E-013
   95.6650000000000         2.017395064840404E-013
   95.8550000000000         1.754829879503862E-013
   96.0450000000000         1.648317428094915E-013
   96.2350000000000         1.531690484270981E-013
   96.4250000000000         1.588278384371857E-013
   96.6150000000000         1.634393034991544E-013
   96.8050000000000         1.492787289177720E-013
   96.9950000000000         1.273366902278209E-013
   97.1850000000000         1.207686548167476E-013
   97.3750000000000         1.467977123999428E-013
   97.5650000000000         1.942718472035578E-013
   97.7550000000000         2.450573122135835E-013
   97.9450000000000         2.914426493214478E-013
   98.1350000000000         3.289455973900837E-013
   98.3250000000000         4.162290089959618E-013
   98.5150000000000         4.988724009957425E-013
   98.7050000000000         5.883281319714987E-013
   98.8950000000000         6.672302562034742E-013
   99.0850000000000         6.968655206262274E-013
   99.2750000000000         7.785296983442805E-013
   99.4650000000000         8.010825953575161E-013
   99.6550000000000         7.987995886642468E-013
   99.8450000000000         7.733695182711859E-013
   100.035000000000         7.992968658954866E-013
   100.225000000000         7.756146378436416E-013
   100.415000000000         7.478206404323262E-013
   100.605000000000         7.248468290343259E-013
   100.795000000000         7.153496197681605E-013
   100.985000000000         7.437653601322653E-013
   101.175000000000         7.751065881810023E-013
   101.365000000000         7.867710962050699E-013
   101.555000000000         7.774337584393077E-013
   101.745000000000         7.528984465245631E-013
   101.935000000000         7.137479884983973E-013
   102.125000000000         7.033188147745596E-013
   102.315000000000         7.849476990370047E-013
   102.505000000000         7.664418349508723E-013
   102.695000000000         7.559698318024359E-013
   102.885000000000         7.243685324511273E-013
   103.075000000000         7.061185590397353E-013
   103.265000000000         6.741489761766119E-013
   103.455000000000         6.039775041794503E-013
   103.645000000000         5.947259012510424E-013
   103.835000000000         5.668933802684852E-013
   104.025000000000         5.705909311407036E-013
   104.215000000000         5.293759412202455E-013
   104.405000000000         5.330554706879213E-013
   104.595000000000         5.353751751532824E-013
   104.785000000000         5.420202309522318E-013
   104.975000000000         5.362431290404190E-013
   105.165000000000         5.122107383348087E-013
   105.355000000000         4.919541030955011E-013
   105.545000000000         4.953305947356452E-013
   105.735000000000         5.184437999169629E-013
   105.925000000000         5.377200916606124E-013
   106.115000000000         5.331194760825910E-013
   106.305000000000         5.057436035482358E-013
   106.495000000000         4.770594485377564E-013
   106.685000000000         4.563683212736272E-013
   106.875000000000         4.559988132228185E-013
   107.065000000000         4.621050391224435E-013
   107.255000000000         4.542729006980653E-013
   107.445000000000         4.340781230272854E-013
   107.635000000000         4.114186040318624E-013
   107.825000000000         4.056310976886327E-013
   108.015000000000         4.202900956280485E-013
   108.205000000000         4.452513493079930E-013
   108.395000000000         4.691102592648639E-013
   108.585000000000         4.802568431462042E-013
   108.775000000000         4.739528252805446E-013
   108.965000000000         4.730123905990323E-013
   109.155000000000         4.825561099199527E-013
   109.345000000000         5.093821701877369E-013
   109.535000000000         5.232216054180524E-013
   109.725000000000         5.180150948144476E-013
   109.915000000000         5.024856075977940E-013
   110.105000000000         5.012053328302467E-013