  -1.42500000000000         5.221223844317898E-019
  -1.23500000000000        -4.208250381657873E-018
  -1.04500000000000        -4.583731783293948E-017
 -0.855000000000000        -2.490273084076914E-016
 -0.665000000000000        -9.754423063989702E-016
 -0.475000000000000        -3.299739286606068E-015
 -0.285000000000000        -9.152221669347945E-015
 -9.499999999999975E-002   -2.087812002835377E-014
  9.500000000000020E-002   -4.082745437584537E-014
  0.285000000000000        -7.083016272694688E-014
  0.475000000000000        -1.053869331421250E-013
  0.665000000000000        -1.467604153313826E-013
  0.855000000000000        -2.016063422816587E-013
   1.04500000000000        -2.528545634664710E-013
   1.23500000000000        -3.027132189762520E-013
   1.42500000000000        -3.394626538387540E-013
   1.61500000000000        -3.776765190537779E-013
   1.80500000000000        -4.160946436742686E-013
   1.99500000000000        -4.532875178050933E-013
   2.18500000000000        -4.847315330623756E-013
   2.37500000000000        -5.080248520073804E-013
   2.56500000000000        -5.224612829081590E-013
   2.75500000000000        -5.288376125049601E-013
   2.94500000000000        -5.285066608827351E-013
   3.13500000000000        -5.248112886118650E-013
   3.32500000000000        -5.234931743363532E-013
   3.51500000000000        -5.168216764145248E-013
   3.70500000000000        -5.137517139821656E-013
   3.89500000000000        -5.095056847697662E-013
   4.08500000000000        -5.053039005129505E-013
   4.27500000000000        -4.999220694190994E-013
   4.46500000000000        -4.906171849067877E-013
   4.65500000000000        -4.757172709668976E-013
   4.84500000000000        -4.543026917195552E-013
   5.03500000000000        -4.301921820547381E-013
   5.22500000000000        -4.247844349378724E-013
   5.41500000000000        -3.993895916453524E-013
   5.60500000000000        -3.727846490174740E-013
   5.79500000000000        -3.432265128426998E-013
   5.98500000000000        -3.100418391440704E-013
   6.17500000000000        -2.698923280820065E-013
   6.36500000000000        -2.259652299276406E-013
   6.55500000000000        -2.005683325247922E-013
   6.74500000000000        -1.835380895703762E-013
   6.93500000000000        -1.694879758428542E-013
   7.12500000000000        -1.685448240751297E-013
   7.31500000000000        -1.986004447375866E-013
   7.50500000000000        -2.277054718992089E-013
   7.69500000000000        -2.780994090101964E-013
   7.88500000000000        -3.322516021238388E-013
   8.07500000000000        -3.883912086179492E-013
   8.26500000000000        -4.271181138937363E-013
   8.45500000000000        -4.572919374178614E-013
   8.64500000000000        -4.946515110379081E-013
   8.83500000000000        -5.272397497533252E-013
   9.02500000000000        -5.677235781258303E-013
   9.21500000000000        -5.667729714413157E-013
   9.40500000000000        -5.221737434461913E-013
   9.59500000000000        -4.464253961484372E-013
   9.78500000000000        -3.876010032929327E-013
   9.97500000000000        -3.422660832419082E-013
   10.1650000000000        -2.862385287435525E-013
   10.3550000000000        -2.505809842103559E-013
   10.5450000000000        -2.282030721695759E-013
   10.7350000000000        -2.200828490496327E-013
   10.9250000000000        -2.159711715164435E-013
   11.1150000000000        -2.096560635497493E-013
   11.3050000000000        -1.997477500837137E-013
   11.4950000000000        -1.880450366360476E-013
   11.6850000000000        -1.781163177531413E-013
   11.8750000000000        -1.739295480963894E-013
   12.0650000000000        -1.758549608436142E-013
   12.2550000000000        -1.825614426037530E-013
   12.4450000000000        -1.948524410394133E-013
   12.6350000000000        -1.985249827036829E-013
   12.8250000000000        -2.107305039918814E-013
   13.0150000000000        -2.171981399917798E-013
   13.2050000000000        -2.204763480598523E-013
   13.3950000000000        -2.170766957066995E-013
   13.5850000000000        -2.023422877682513E-013
   13.7750000000000        -1.814303460080383E-013
   13.9650000000000        -1.613466928705927E-013
   14.1550000000000        -1.552374131957801E-013
   14.3450000000000        -1.414123055043879E-013
   14.5350000000000        -1.370481714626989E-013
   14.7250000000000        -1.307442469479332E-013
   14.9150000000000        -1.260869990804473E-013
   15.1050000000000        -1.361698108383590E-013
   15.2950000000000        -1.699243489411707E-013
   15.4850000000000        -2.168047804644027E-013
   15.6750000000000        -2.501423352681091E-013
   15.8650000000000        -2.836208536416657E-013
   16.0550000000000        -3.205190386645743E-013
   16.2450000000000        -3.467163624993290E-013
   16.4350000000000        -3.667442604806087E-013
   16.6250000000000        -3.845399668063705E-013
   16.8150000000000        -4.006663611170690E-013
   17.0050000000000        -4.043278501419682E-013
   17.1950000000000        -4.151598435008288E-013
   17.3850000000000        -4.181287379533986E-013
   17.5750000000000        -4.270074109183071E-013
   17.7650000000000        -4.291635406837855E-013
   17.9550000000000        -4.321375561737167E-013
   18.1450000000000        -4.341274669785009E-013
   18.3350000000000        -4.361262190563420E-013
   18.5250000000000        -4.385744706906187E-013
   18.7150000000000        -4.420806674684643E-013
   18.9050000000000        -4.425728401787544E-013
   19.0950000000000        -4.394523397760248E-013
   19.2850000000000        -4.318784489891317E-013
   19.4750000000000        -4.184261222550769E-013
   19.6650000000000        -4.011695632673456E-013
   19.8550000000000        -3.808140041150139E-013
   20.0450000000000        -3.594236713950579E-013
   20.2350000000000        -3.382640139368877E-013
   20.4250000000000        -3.170156187695058E-013
   20.6150000000000        -2.924855929829699E-013
   20.8050000000000        -2.672018975090007E-013
   20.9950000000000        -2.447104024493791E-013
   21.1850000000000        -2.386250148450149E-013
   21.3750000000000        -2.195053026490574E-013
   21.5650000000000        -2.178417301074721E-013
   21.7550000000000        -2.134574194943484E-013
   21.9450000000000        -2.077108694539751E-013
   22.1350000000000        -2.086557989109809E-013
   22.3250000000000        -2.348086077875879E-013
   22.5150000000000        -2.838213665664838E-013
   22.7050000000000        -3.402403308630312E-013
   22.8950000000000        -3.974352480044560E-013
   23.0850000000000        -4.576386549490961E-013
   23.2750000000000        -5.102231334570253E-013
   23.4650000000000        -5.456048347347642E-013
   23.6550000000000        -5.980506827547651E-013
   23.8450000000000        -6.500132228522513E-013
   24.0350000000000        -6.877211833593524E-013
   24.2250000000000        -7.230236542857756E-013
   24.4150000000000        -7.452510694341470E-013
   24.6050000000000        -7.535716659173225E-013
   24.7950000000000        -7.447108074115622E-013
   24.9850000000000        -7.300729841563725E-013
   25.1750000000000        -7.063579441647864E-013
   25.3650000000000        -6.747102580656993E-013
   25.5550000000000        -6.437529195830450E-013
   25.7450000000000        -5.917381077706854E-013
   25.9350000000000        -5.378847076576351E-013
   26.1250000000000        -4.962209945680593E-013
   26.3150000000000        -4.611040576697978E-013
   26.5050000000000        -4.277204215652730E-013
   26.6950000000000        -3.991729790683510E-013
   26.8850000000000        -3.723322016592342E-013
   27.0750000000000        -3.435243455203492E-013
   27.2650000000000        -3.183159185376287E-013
   27.4550000000000        -3.057026073888073E-013
   27.6450000000000        -3.031326127603042E-013
   27.8350000000000        -3.024323690844706E-013
   28.0250000000000        -3.067589512556338E-013
   28.2150000000000        -3.063304947267694E-013
   28.4050000000000        -3.044728624785109E-013
   28.5950000000000        -2.814663709851573E-013
   28.7850000000000        -2.421842645367164E-013
   28.9750000000000        -1.897119056527711E-013
   29.1650000000000        -1.077167994067216E-013
   29.3550000000000        -1.358327870471315E-014
   29.5450000000000         8.997696404201322E-014
   29.7350000000000         1.751481018206182E-013
   29.9250000000000         2.589707474254536E-013
   30.1150000000000         3.238939280546195E-013
   30.3050000000000         3.747903133972653E-013
   30.4950000000000         3.904383401699268E-013
   30.6850000000000         4.115612763645469E-013
   30.8750000000000         4.109924819372664E-013
   31.0650000000000         3.746898730652029E-013
   31.2550000000000         3.037385037788536E-013
   31.4450000000000         2.147956036447265E-013
   31.6350000000000         9.431892962928503E-014
   31.8250000000000        -7.621237781563181E-015
   32.0150000000000        -1.195169924869265E-013
   32.2050000000000        -2.026288973399178E-013
   32.3950000000000        -2.781343739134090E-013
   32.5850000000000        -3.484244753935602E-013
   32.7750000000000        -3.864790379690942E-013
   32.9650000000000        -4.112005037991810E-013
   33.1550000000000        -4.246926685641952E-013
   33.3450000000000        -4.377103497308075E-013
   33.5350000000000        -4.533562871545109E-013
   33.7250000000000        -4.658317361083647E-013
   33.9150000000000        -4.646221173541365E-013
   34.1050000000000        -4.392517584502580E-013
   34.2950000000000        -3.967867700567332E-013
   34.4850000000000        -3.616335909684332E-013
   34.6750000000000        -3.233076561144476E-013
   34.8650000000000        -2.831640423498768E-013
   35.0550000000000        -2.439862559639133E-013
   35.2450000000000        -2.039163793257577E-013
   35.4350000000000        -1.817331148323546E-013
   35.6250000000000        -1.867737549146538E-013
   35.8150000000000        -2.062056360712201E-013
   36.0050000000000        -2.331305564297304E-013
   36.1950000000000        -2.576570920262679E-013
   36.3850000000000        -2.652483954803532E-013
   36.5750000000000        -2.842290397813610E-013
   36.7650000000000        -2.924835031959373E-013
   36.9550000000000        -3.070794875765328E-013
   37.1450000000000        -3.190473403829584E-013
   37.3350000000000        -3.261235840970284E-013
   37.5250000000000        -3.295551134381613E-013
   37.7150000000000        -3.294790983143224E-013
   37.9050000000000        -3.266621862009367E-013
   38.0950000000000        -3.231912405306771E-013
   38.2850000000000        -3.206361009298453E-013
   38.4750000000000        -3.452406179133276E-013
   38.6650000000000        -4.113579359826365E-013
   38.8550000000000        -4.925339729497239E-013
   39.0450000000000        -5.735464942312136E-013
   39.2350000000000        -6.634459490365572E-013
   39.4250000000000        -7.340863073763926E-013
   39.6150000000000        -8.165017740023503E-013
   39.8050000000000        -8.694319956010251E-013
   39.9950000000000        -9.120145448235571E-013
   40.1850000000000        -9.373527959346909E-013
   40.3750000000000        -9.416920747525456E-013
   40.5650000000000        -9.468215519677378E-013
   40.7550000000000        -9.556510090881209E-013
   40.9450000000000        -9.636008551598627E-013
   41.1350000000000        -9.457313741714421E-013
   41.3250000000000        -8.858873670656887E-013
   41.5150000000000        -8.125070444799868E-013
   41.7050000000000        -7.427541194105588E-013
   41.8950000000000        -6.608312222402492E-013
   42.0850000000000        -5.713582519711943E-013
   42.2750000000000        -4.909292154197992E-013
   42.4650000000000        -4.069612293932098E-013
   42.6550000000000        -3.299254666624239E-013
   42.8450000000000        -2.542297848900197E-013
   43.0350000000000        -1.917653649969823E-013
   43.2250000000000        -1.553463372474063E-013
   43.4150000000000        -1.033557176725493E-013
   43.6050000000000        -8.583157679841644E-014
   43.7950000000000        -6.570457597119697E-014
   43.9850000000000        -4.931740414423423E-014
   44.1750000000000        -2.997069553110895E-014
   44.3650000000000        -6.023746071249683E-015
   44.5550000000000         1.254284298995517E-014
   44.7450000000000        -1.812895377359187E-014
   44.9350000000000        -9.911562695607719E-014
   45.1250000000000        -2.264969065235662E-013
   45.3150000000000        -3.443267166102797E-013
   45.5050000000000        -4.489558189644521E-013
   45.6950000000000        -5.261850460421574E-013
   45.8850000000000        -5.769172256223991E-013
   46.0750000000000        -6.061401050273182E-013
   46.2650000000000        -6.174482529081705E-013
   46.4550000000000        -6.267732691652563E-013
   46.6450000000000        -6.400499628842482E-013
   46.8350000000000        -6.408822683806523E-013
   47.0250000000000        -5.954815181262043E-013
   47.2150000000000        -5.066639716327340E-013
   47.4050000000000        -4.113491384004578E-013
   47.5950000000000        -3.240530252611369E-013
   47.7850000000000        -2.427554904563200E-013
   47.9750000000000        -1.666427785843825E-013
   48.1650000000000        -1.003711898051544E-013
   48.3550000000000        -3.296781052899448E-014
   48.5450000000000         3.897896512092145E-015
   48.7350000000000         3.579816036602896E-014
   48.9250000000000         5.927113257598762E-014
   49.1150000000000         7.377757452164886E-014
   49.3050000000000         9.476477790901878E-014
   49.4950000000000         9.668162194005761E-014
   49.6850000000000         5.816842894776836E-014
   49.8750000000000        -3.369207002002900E-014
   50.0650000000000        -1.112986641628298E-013
   50.2550000000000        -2.081544633906547E-013
   50.4450000000000        -3.121670242291876E-013
   50.6350000000000        -3.573683970832186E-013
   50.8250000000000        -4.217213589986868E-013
   51.0150000000000        -4.307095090306122E-013
   51.2050000000000        -4.510707049225916E-013
   51.3950000000000        -4.888971853054446E-013
   51.5850000000000        -5.479300454135436E-013
   51.7750000000000        -5.543882759727077E-013
   51.9650000000000        -5.332549176579290E-013
   52.1550000000000        -4.590220627452825E-013
   52.3450000000000        -3.982136094781284E-013
   52.5350000000000        -3.435383960317999E-013
   52.7250000000000        -3.043914007393944E-013
   52.9150000000000        -2.673766704338944E-013
   53.1050000000000        -2.573079019880537E-013
   53.2950000000000        -2.499508642344377E-013
   53.4850000000000        -2.554963455719041E-013
   53.6750000000000        -2.768067827789737E-013
   53.8650000000000        -3.069658011475577E-013
   54.0550000000000        -3.394898153292133E-013
   54.2450000000000        -3.832618441820432E-013
   54.4350000000000        -4.314184435912157E-013
   54.6250000000000        -4.789530896625017E-013
   54.8150000000000        -5.313968789824613E-013
   55.0050000000000        -5.827146754261693E-013
   55.1950000000000        -6.132539470997626E-013
   55.3850000000000        -6.438588590529370E-013
   55.5750000000000        -6.626405487066304E-013
   55.7650000000000        -6.774220831229376E-013
   55.9550000000000        -6.838022563912978E-013
   56.1450000000000        -6.616607143867062E-013
   56.3350000000000        -6.056714067140293E-013
   56.5250000000000        -5.377117098325764E-013
   56.7150000000000        -4.709432917073044E-013
   56.9050000000000        -4.030306117328893E-013
   57.0950000000000        -3.390608867681377E-013
   57.2850000000000        -2.926418204319801E-013
   57.4750000000000        -2.546092538582169E-013
   57.6650000000000        -2.106079781918011E-013
   57.8550000000000        -1.764511831489864E-013
   58.0450000000000        -1.583234084837574E-013
   58.2350000000000        -1.427241498758215E-013
   58.4250000000000        -1.268328963915647E-013
   58.6150000000000        -1.172422886097552E-013
   58.8050000000000        -1.138268877242328E-013
   58.9950000000000        -1.166614172291905E-013
   59.1850000000000        -1.253761298998564E-013
   59.3750000000000        -1.373934950638551E-013
   59.5650000000000        -1.502186651448786E-013
   59.7550000000000        -1.631592901377122E-013
   59.9450000000000        -1.749224150251237E-013
   60.1350000000000        -1.876299518698173E-013
   60.3250000000000        -2.046277167413030E-013
   60.5150000000000        -2.233612594263238E-013
   60.7050000000000        -2.397239522605520E-013
   60.8950000000000        -2.485821490517261E-013
   61.0850000000000        -2.372804858261458E-013
   61.2750000000000        -2.320082906494879E-013
   61.4650000000000        -1.976360762042159E-013
   61.6550000000000        -1.947303449807989E-013
   61.8450000000000        -1.636540951213435E-013
   62.0350000000000        -1.351444271651459E-013
   62.2250000000000        -1.139185372317923E-013
   62.4150000000000        -9.361530421744654E-014
   62.6050000000000        -7.840019730533492E-014
   62.7950000000000        -7.167252997497359E-014
   62.9850000000000        -6.534310507216133E-014
   63.1750000000000        -6.185618135953204E-014
   63.3650000000000        -5.917719080821680E-014
   63.5550000000000        -5.754784184865567E-014
   63.7450000000000        -5.755722106495271E-014
   63.9350000000000        -6.014097160825374E-014
   64.1250000000000        -6.257200271075267E-014
   64.3150000000000        -6.844886931432775E-014
   64.5050000000000        -7.967500074228276E-014
   64.6950000000000        -9.999327169336631E-014
   64.8850000000000        -1.220395933050213E-013
   65.0750000000000        -1.347262687963740E-013
   65.2650000000000        -1.583119832001586E-013
   65.4550000000000        -1.839518161247912E-013
   65.6450000000000        -2.039712543096235E-013
   65.8350000000000        -2.199499496843510E-013
   66.0250000000000        -2.291819856235289E-013
   66.2150000000000        -2.341959966927821E-013
   66.4050000000000        -2.351964253765713E-013
   66.5950000000000        -2.318124086790896E-013
   66.7850000000000        -2.325566503636093E-013
   66.9750000000000        -2.337647899600685E-013
   67.1650000000000        -2.384050804036424E-013
   67.3550000000000        -2.464130672499288E-013
   67.5450000000000        -2.571293321210983E-013
   67.7350000000000        -2.690006761767932E-013
   67.9250000000000        -2.807094725552118E-013
   68.1150000000000        -2.918775704687779E-013
   68.3050000000000        -3.025894316621872E-013
   68.4950000000000        -3.149035828327757E-013
   68.6850000000000        -3.242933619886155E-013
   68.8750000000000        -3.336309673774525E-013
   69.0650000000000        -3.457004324286531E-013
   69.2550000000000        -3.635669019514930E-013
   69.4450000000000        -3.831790452581606E-013
   69.6350000000000        -4.009416508115272E-013
   69.8250000000000        -4.133088698678484E-013
   70.0150000000000        -4.270821822576840E-013
   70.2050000000000        -4.389797128440770E-013
   70.3950000000000        -4.553223601567291E-013
   70.5850000000000        -4.727881358166002E-013
   70.7750000000000        -4.971734635128793E-013
   70.9650000000000        -5.262069960595251E-013
   71.1550000000000        -5.723898669988096E-013
   71.3450000000000        -6.106397338009942E-013
   71.5350000000000        -6.599602311237393E-013
   71.7250000000000        -6.808334620773011E-013
   71.9150000000000        -7.178093847900690E-013
   72.1050000000000        -7.259575885729075E-013
   72.2950000000000        -7.350173893080733E-013
   72.4850000000000        -7.409290423594713E-013
   72.6750000000000        -7.437831897804363E-013
   72.8650000000000        -7.529777422736950E-013
   73.0550000000000        -7.621977331158704E-013
   73.2450000000000        -7.715398639089137E-013
   73.4350000000000        -7.779670629107503E-013
   73.6250000000000        -7.718479892122259E-013
   73.8150000000000        -7.468329893742358E-013
   74.0050000000000        -6.882850270135154E-013
   74.1950000000000        -6.279085857612911E-013
   74.3850000000000        -5.599072221452873E-013
   74.5750000000000        -4.817264389716745E-013
   74.7650000000000        -4.050165865845605E-013
   74.9550000000000        -3.324426129378026E-013
   75.1450000000000        -2.773340377585129E-013
   75.3350000000000        -2.704891904483111E-013
   75.5250000000000        -2.306705971755067E-013
   75.7150000000000        -2.282268525631938E-013
   75.9050000000000        -2.203761614766515E-013
   76.0950000000000        -2.064350426737288E-013
   76.2850000000000        -1.923986881760466E-013
   76.4750000000000        -1.853532466070866E-013
   76.6650000000000        -1.839987132311747E-013
   76.8550000000000        -1.820525039408506E-013
   77.0450000000000        -1.796270424736862E-013
   77.2350000000000        -1.783674289199328E-013
   77.4250000000000        -1.637956565071132E-013
   77.6150000000000        -1.216564170270359E-013
   77.8050000000000        -7.600235947077155E-014
   77.9950000000000        -2.744925234108398E-014
   78.1850000000000         2.175779806116483E-014
   78.3750000000000         8.008920098534742E-014
   78.5650000000000         1.245036007128154E-013
   78.7550000000000         1.581396855183947E-013
   78.9450000000000         1.699760307573057E-013
   79.1350000000000         1.890592336623221E-013
   79.3250000000000         1.974115586338901E-013
   79.5150000000000         2.080237148365666E-013
   79.7050000000000         2.206985308343885E-013
   79.8950000000000         2.222708435915252E-013
   80.0850000000000         1.775621808487779E-013
   80.2750000000000         9.675058423152144E-014
   80.4650000000000        -9.329745792462035E-015
   80.6550000000000        -1.327183376052292E-013
   80.8450000000000        -2.459621685077153E-013
   81.0350000000000        -3.582471963567646E-013
   81.2250000000000        -4.497770400953665E-013
   81.4150000000000        -5.306972888347117E-013
   81.6050000000000        -6.323455221810999E-013
   81.7950000000000        -6.755645939567796E-013
   81.9850000000000        -7.132524239727404E-013
   82.1750000000000        -7.421061630846861E-013
   82.3650000000000        -7.725011238567695E-013
   82.5550000000000        -8.127441450380044E-013
   82.7450000000000        -8.079638502061515E-013
   82.9350000000000        -7.518960353655283E-013
   83.1250000000000        -6.897253571629584E-013
   83.3150000000000        -6.305318867196873E-013
   83.5050000000000        -5.662462144291080E-013
   83.6950000000000        -5.374175809064069E-013
   83.8850000000000        -4.857477674184414E-013
   84.0750000000000        -4.752406261536831E-013
   84.2650000000000        -4.627186222617714E-013
   84.4550000000000        -4.573359552291007E-013
   84.6450000000000        -4.518534142210831E-013
   84.8350000000000        -4.443579331180344E-013
   85.0250000000000        -4.282641361608027E-013
   85.2150000000000        -4.056948322640050E-013
   85.4050000000000        -3.807189928172696E-013
   85.5950000000000        -3.547956826850704E-013
   85.7850000000000        -3.444346653736640E-013
   85.9750000000000        -3.530782788527170E-013
   86.1650000000000        -3.686504563909847E-013
   86.3550000000000        -3.853789188244839E-013
   86.5450000000000        -3.995304141812544E-013
   86.7350000000000        -4.110856472630675E-013
   86.9250000000000        -4.205443783516373E-013
   87.1150000000000        -4.235699183366655E-013
   87.3050000000000        -4.275963013617473E-013
   87.4950000000000        -4.284824519236044E-013
   87.6850000000000        -4.315348129581834E-013
   87.8750000000000        -4.325293406011930E-013
   88.0650000000000        -4.344143151714495E-013
   88.2550000000000        -4.371018783751657E-013
   88.4450000000000        -4.425693996441613E-013
   88.6350000000000        -4.492603786374843E-013
   88.8250000000000        -4.586918352451871E-013
   89.0150000000000        -4.733830046480221E-013
   89.2050000000000        -4.948381487932955E-013
   89.3950000000000        -5.246401600092317E-013
   89.5850000000000        -5.227463810076741E-013
   89.7750000000000        -5.052725240978167E-013
   89.9650000000000        -4.896936036998598E-013
   90.1550000000000        -4.760816244490221E-013
   90.3450000000000        -4.662348577295826E-013
   90.5350000000000        -4.619909822497223E-013
   90.7250000000000        -4.610613549433852E-013
   90.9150000000000        -4.610094309721523E-013
   91.1050000000000        -4.593719248641096E-013
   91.2950000000000        -4.536481577536285E-013
   91.4850000000000        -4.443330441560895E-013
   91.6750000000000        -4.229233298765951E-013
   91.8650000000000        -3.898235030999522E-013
   92.0550000000000        -3.529122303481925E-013
   92.2450000000000        -3.202606150811122E-013
   92.4350000000000        -2.906068213447617E-013
   92.6250000000000        -2.628848339212275E-013
   92.8150000000000        -2.388257156047434E-013
   93.0050000000000        -2.119496745512921E-013
   93.1950000000000        -1.753402847473496E-013
   93.3850000000000        -1.231196204027807E-013
   93.5750000000000        -7.511799311200583E-014
   93.7650000000000        -7.599875684399179E-014
   93.9550000000000        -8.245719512534783E-014
   94.1450000000000        -1.137408307765272E-013
   94.3350000000000        -1.495860454200957E-013
   94.5250000000000        -1.813066582731761E-013
   94.7150000000000        -2.149997930841836E-013
   94.9050000000000        -2.519754158664410E-013
   95.0950000000000        -2.768451741966314E-013
   95.2850000000000        -3.002267647317650E-013
   95.4750000000000        -3.122361460885074E-013
   95.6650000000000        -3.390804320002971E-013
   95.8550000000000        -3.438382826629473E-013
   96.0450000000000        -3.506220793948562E-013
   96.2350000000000        -3.569448082945108E-013
   96.4250000000000        -3.590688111953302E-013
   96.6150000000000        -3.559094048950566E-013
   96.8050000000000        -3.464161744388013E-013
   96.9950000000000        -3.324368729083513E-013
   97.1850000000000        -3.187402261758452E-013
   97.3750000000000        -3.113166645777501E-013
   97.5650000000000        -3.053736886512115E-013
   97.7550000000000        -3.052678588735731E-013
   97.9450000000000        -3.100502904533274E-013
   98.1350000000000        -3.216908729541602E-013
   98.3250000000000        -3.421897986963504E-013
   98.5150000000000        -3.681149075381122E-013
   98.7050000000000        -3.880038582457755E-013
   98.8950000000000        -3.995760699590503E-013
   99.0850000000000        -4.080836083494203E-013
   99.2750000000000        -4.179679436063184E-013
   99.4650000000000        -4.020421800769964E-013
   99.6550000000000        -3.694853535723206E-013
   99.8450000000000        -3.130539873546492E-013
   100.035000000000        -2.516470112486702E-013
   100.225000000000        -1.699728132417820E-013
   100.415000000000        -8.124750119384595E-014
   100.605000000000         1.294838807644631E-014
   100.795000000000         9.801067034843280E-014
   100.985000000000         1.761444908436581E-013
   101.175000000000         2.052533395153826E-013
   101.365000000000         2.499417462880848E-013
   101.555000000000         2.629444812128608E-013
   101.745000000000         2.830675804346530E-013
   101.935000000000         3.088335886153889E-013
   102.125000000000         2.951208145926193E-013
   102.315000000000         2.151005095400579E-013
   102.505000000000         7.998900468473933E-014
   102.695000000000        -5.553405995632826E-014
   102.885000000000        -1.797771403843352E-013
   103.075000000000        -2.819819019244585E-013
   103.265000000000        -3.926401628007923E-013
   103.455000000000        -4.586537848754145E-013
   103.645000000000        -5.132876875983939E-013
   103.835000000000        -5.659916493038490E-013
   104.025000000000        -5.952911579235260E-013
   104.215000000000        -6.064746481567153E-013
   104.405000000000        -6.132817555417771E-013
   104.595000000000        -6.175362404072810E-013
   104.785000000000        -6.177066411962486E-013
   104.975000000000        -6.118091914475312E-013
   105.165000000000        -5.983514686222862E-013
   105.355000000000        -5.816183415223753E-013
   105.545000000000        -5.659051257255610E-013
   105.735000000000        -5.529855730278013E-013
   105.925000000000        -5.437141849912676E-013
   106.115000000000        -5.374939472851945E-013
   106.305000000000        -5.241635529381467E-013
   106.495000000000        -5.141082466567674E-013
   106.685000000000        -4.865047165371396E-013
   106.875000000000        -4.644955728519883E-013
   107.065000000000        -4.331370529481405E-013
   107.255000000000        -4.039905437929239E-013
   107.445000000000        -3.832836530590247E-013
   107.635000000000        -3.736035938202281E-013
   107.825000000000        -3.758120516560432E-013
   108.015000000000        -3.867693771368369E-013
   108.205000000000        -4.002251863160208E-013
   108.395000000000        -4.090775550992291E-013
   108.585000000000        -4.106301921582418E-013
   108.775000000000        -4.051540470721289E-013
   108.965000000000        -3.903195419665306E-013
   109.155000000000        -3.770778630137395E-013
   109.345000000000        -3.565029064807408E-013
   109.535000000000        -3.460213231007105E-013
   109.725000000000        -3.420827688681293E-013
   109.915000000000        -3.459571844645446E-013
   110.105000000000        -3.548115092737755E-013