  -1.42500000000000         0.000000000000000E+000
  -1.23500000000000         2.663101310812503E-011
  -1.04500000000000         2.204846613558647E-010
 -0.855000000000000         1.069453692208595E-009
 -0.665000000000000         4.105744589523058E-009
 -0.475000000000000         1.317353711846925E-008
 -0.285000000000000         3.622733170713871E-008
 -9.499999999999975E-002    8.600214981994935E-008
  9.500000000000020E-002    1.747909721970873E-007
  0.285000000000000         3.213795766448826E-007
  0.475000000000000         5.278417425624282E-007
  0.665000000000000         8.051560877065523E-007
  0.855000000000000         1.141745220385715E-006
   1.04500000000000         1.547485421579601E-006
   1.23500000000000         1.971673339428722E-006
   1.42500000000000         2.197273799069062E-006
   1.61500000000000         2.559857181638301E-006
   1.80500000000000         3.005061629035725E-006
   1.99500000000000         3.469792227404560E-006
   2.18500000000000         3.970972570093556E-006
   2.37500000000000         4.489785241462703E-006
   2.56500000000000         4.980994101788609E-006
   2.75500000000000         5.437607458684885E-006
   2.94500000000000         5.849801480944669E-006
   3.13500000000000         6.141546232856833E-006
   3.32500000000000         6.238264591343904E-006
   3.51500000000000         6.454717684877695E-006
   3.70500000000000         6.535635641135085E-006
   3.89500000000000         6.624064623250196E-006
   4.08500000000000         6.692446748749305E-006
   4.27500000000000         6.758612223000902E-006
   4.46500000000000         6.840810649500217E-006
   4.65500000000000         6.918863806084486E-006
   4.84500000000000         6.972060095704300E-006
   5.03500000000000         6.984311917883218E-006
   5.22500000000000         6.981276061094581E-006
   5.41500000000000         6.935463683462523E-006
   5.60500000000000         6.794934900141760E-006
   5.79500000000000         6.564651010663300E-006
   5.98500000000000         6.225962918533067E-006
   6.17500000000000         5.798815629860212E-006
   6.36500000000000         5.273110307947833E-006
   6.55500000000000         4.835809762628968E-006
   6.74500000000000         4.449703605224696E-006
   6.93500000000000         4.045048908865604E-006
   7.12500000000000         3.555424860306697E-006
   7.31500000000000         3.225494944314874E-006
   7.50500000000000         3.025167719373856E-006
   7.69500000000000         2.953201330536295E-006
   7.88500000000000         2.989304842150394E-006
   8.07500000000000         3.118407152094865E-006
   8.26500000000000         3.232913092092857E-006
   8.45500000000000         3.407205207581189E-006
   8.64500000000000         3.643082019054584E-006
   8.83500000000000         3.897735575288192E-006
   9.02500000000000         4.343076657074990E-006
   9.21500000000000         4.893929276423769E-006
   9.40500000000000         5.302398541092089E-006
   9.59500000000000         5.499103894480553E-006
   9.78500000000000         5.552300638557035E-006
   9.97500000000000         5.543576839456566E-006
   10.1650000000000         5.508363689437076E-006
   10.3550000000000         5.498051684265393E-006
   10.5450000000000         5.467963661715975E-006
   10.7350000000000         5.459750168990606E-006
   10.9250000000000         5.454048306704871E-006
   11.1150000000000         5.444504138899296E-006
   11.3050000000000         5.429569332505459E-006
   11.4950000000000         5.414220571745802E-006
   11.6850000000000         5.407245806849062E-006
   11.8750000000000         5.417266278542110E-006
   12.0650000000000         5.445972144307188E-006
   12.2550000000000         5.485585742412640E-006
   12.4450000000000         5.536483505587361E-006
   12.6350000000000         5.548279375057539E-006
   12.8250000000000         5.578014720932335E-006
   13.0150000000000         5.557918441378212E-006
   13.2050000000000         5.508511073563163E-006
   13.3950000000000         5.375056972805390E-006
   13.5850000000000         5.124905352429692E-006
   13.7750000000000         4.809548043776564E-006
   13.9650000000000         4.493820102350083E-006
   14.1550000000000         4.421525668678734E-006
   14.3450000000000         4.165443040650817E-006
   14.5350000000000         4.090583286048205E-006
   14.7250000000000         3.959652452546857E-006
   14.9150000000000         3.792518942138322E-006
   15.1050000000000         3.677985929647855E-006
   15.2950000000000         3.703644802361501E-006
   15.4850000000000         3.882468917308254E-006
   15.6750000000000         4.112427860332851E-006
   15.8650000000000         4.403517667070614E-006
   16.0550000000000         4.767980005399057E-006
   16.2450000000000         5.111984496576213E-006
   16.4350000000000         5.407474006923814E-006
   16.6250000000000         5.658480807805887E-006
   16.8150000000000         5.890690907043364E-006
   17.0050000000000         5.938079382410787E-006
   17.1950000000000         6.111114524055181E-006
   17.3850000000000         6.157005941908299E-006
   17.5750000000000         6.308745272429341E-006
   17.7650000000000         6.352979824710894E-006
   17.9550000000000         6.414233996209627E-006
   18.1450000000000         6.460834412366613E-006
   18.3350000000000         6.505548642950963E-006
   18.5250000000000         6.558416012991073E-006
   18.7150000000000         6.651790669765093E-006
   18.9050000000000         6.744218084998985E-006
   19.0950000000000         6.798599932560151E-006
   19.2850000000000         6.792808684287242E-006
   19.4750000000000         6.696403683086021E-006
   19.6650000000000         6.492181492596978E-006
   19.8550000000000         6.160583817308934E-006
   20.0450000000000         5.738605500830858E-006
   20.2350000000000         5.296160335008860E-006
   20.4250000000000         4.854387751003804E-006
   20.6150000000000         4.379699389392586E-006
   20.8050000000000         3.916768383002940E-006
   20.9950000000000         3.498944205491724E-006
   21.1850000000000         3.399694839858068E-006
   21.3750000000000         3.001972863426063E-006
   21.5650000000000         2.932292784480040E-006
   21.7550000000000         2.794443638456539E-006
   21.9450000000000         2.602338301600676E-006
   22.1350000000000         2.415581205373785E-006
   22.3250000000000         2.274272795909341E-006
   22.5150000000000         2.313761723673475E-006
   22.7050000000000         2.495513437180231E-006
   22.8950000000000         2.777519764273863E-006
   23.0850000000000         3.114138345976885E-006
   23.2750000000000         3.464294218684877E-006
   23.4650000000000         3.780807333081953E-006
   23.6550000000000         4.215855773215124E-006
   23.8450000000000         4.736137917674882E-006
   24.0350000000000         5.267336097053746E-006
   24.2250000000000         5.828293732210840E-006
   24.4150000000000         6.395630779662632E-006
   24.6050000000000         7.078785509126162E-006
   24.7950000000000         7.455699410580548E-006
   24.9850000000000         7.884876176027874E-006
   25.1750000000000         8.112136024298241E-006
   25.3650000000000         8.318218206318659E-006
   25.5550000000000         8.395934263917882E-006
   25.7450000000000         8.434445483587723E-006
   25.9350000000000         8.372572307689262E-006
   26.1250000000000         8.274131428410012E-006
   26.3150000000000         8.173028577233520E-006
   26.5050000000000         8.043130862788539E-006
   26.6950000000000         7.902747254041896E-006
   26.8850000000000         7.738487491042037E-006
   27.0750000000000         7.507124420036905E-006
   27.2650000000000         7.201481078417681E-006
   27.4550000000000         6.898322562045652E-006
   27.6450000000000         6.602630478642814E-006
   27.8350000000000         6.541952577058038E-006
   28.0250000000000         6.213604816547827E-006
   28.2150000000000         5.959568984132964E-006
   28.4050000000000         5.633938156821773E-006
   28.5950000000000         5.063007806369373E-006
   28.7850000000000         4.405441850099394E-006
   28.9750000000000         3.693306801441906E-006
   29.1650000000000         3.003777189947658E-006
   29.3550000000000         2.308356019589935E-006
   29.5450000000000         1.679885234171138E-006
   29.7350000000000         1.160757930100551E-006
   29.9250000000000         7.233913858757944E-007
   30.1150000000000         4.056538323073792E-007
   30.3050000000000         2.146049084482472E-007
   30.4950000000000         1.203425110315701E-007
   30.6850000000000         1.187855572563334E-007
   30.8750000000000         1.841866569008756E-007
   31.0650000000000         6.136944223676156E-007
   31.2550000000000         1.333879033545230E-006
   31.4450000000000         2.156682147396256E-006
   31.6350000000000         3.073307352266892E-006
   31.8250000000000         3.959587590859025E-006
   32.0150000000000         4.777984807150421E-006
   32.2050000000000         5.547524709945165E-006
   32.3950000000000         6.245540097252666E-006
   32.5850000000000         6.763356222180013E-006
   32.7750000000000         7.096405476469490E-006
   32.9650000000000         7.395311483979325E-006
   33.1550000000000         7.527092738002196E-006
   33.3450000000000         7.699787404432123E-006
   33.5350000000000         7.918510623209413E-006
   33.7250000000000         8.158892029117249E-006
   33.9150000000000         8.377381531876082E-006
   34.1050000000000         8.481785431516476E-006
   34.2950000000000         8.436072386403371E-006
   34.4850000000000         8.318337231317518E-006
   34.6750000000000         8.138174728940644E-006
   34.8650000000000         7.875650561988493E-006
   35.0550000000000         7.535569400798294E-006
   35.2450000000000         7.052935664223670E-006
   35.4350000000000         6.506136930608502E-006
   35.6250000000000         6.016284970116165E-006
   35.8150000000000         5.586594208581137E-006
   36.0050000000000         5.267676591237543E-006
   36.1950000000000         4.985613192642728E-006
   36.3850000000000         4.912938503544528E-006
   36.5750000000000         4.749543152390714E-006
   36.7650000000000         4.685470534063669E-006
   36.9550000000000         4.539358304754498E-006
   37.1450000000000         4.380086986779772E-006
   37.3350000000000         4.229815213733533E-006
   37.5250000000000         4.092544520724094E-006
   37.7150000000000         3.961021340180393E-006
   37.9050000000000         3.846074925671665E-006
   38.0950000000000         3.776872221342966E-006
   38.2850000000000         3.709047709809517E-006
   38.4750000000000         3.851960363870206E-006
   38.6650000000000         4.338224179890450E-006
   38.8550000000000         4.971456534085326E-006
   39.0450000000000         5.614519770808641E-006
   39.2350000000000         6.278047666336050E-006
   39.4250000000000         6.899683856576980E-006
   39.6150000000000         7.442540085892578E-006
   39.8050000000000         7.902712073266393E-006
   39.9950000000000         8.111236159057095E-006
   40.1850000000000         8.323283853433080E-006
   40.3750000000000         8.359550063857636E-006
   40.5650000000000         8.421966540683426E-006
   40.7550000000000         8.511070466388514E-006
   40.9450000000000         8.599584012916508E-006
   41.1350000000000         8.593522867395403E-006
   41.3250000000000         8.367446773036593E-006
   41.5150000000000         8.004435951536784E-006
   41.7050000000000         7.621698216926040E-006
   41.8950000000000         7.201648660733708E-006
   42.0850000000000         6.802781169291580E-006
   42.2750000000000         6.432258730589290E-006
   42.4650000000000         6.077853340395384E-006
   42.6550000000000         5.767050944278566E-006
   42.8450000000000         5.465405513845710E-006
   43.0350000000000         5.211208826280521E-006
   43.2250000000000         5.029700846744114E-006
   43.4150000000000         4.788429060556818E-006
   43.6050000000000         4.705463037989533E-006
   43.7950000000000         4.608051192576805E-006
   43.9850000000000         4.521981491342661E-006
   44.1750000000000         4.404495366844484E-006
   44.3650000000000         4.229013573941439E-006
   44.5550000000000         4.005861974926313E-006
   44.7450000000000         3.883280680987596E-006
   44.9350000000000         4.070855025862181E-006
   45.1250000000000         4.545510837418950E-006
   45.3150000000000         5.154898066619616E-006
   45.5050000000000         5.806668146183010E-006
   45.6950000000000         6.398588126313197E-006
   45.8850000000000         6.897253382394275E-006
   46.0750000000000         7.078304236370023E-006
   46.2650000000000         7.267739605062935E-006
   46.4550000000000         7.397936178205886E-006
   46.6450000000000         7.604188585627575E-006
   46.8350000000000         7.852768419547663E-006
   47.0250000000000         7.906644483980909E-006
   47.2150000000000         7.675149944727062E-006
   47.4050000000000         7.237282395168276E-006
   47.5950000000000         6.717794956422285E-006
   47.7850000000000         6.164726988997049E-006
   47.9750000000000         5.609474412366068E-006
   48.1650000000000         5.139201670643874E-006
   48.3550000000000         4.709598883431903E-006
   48.5450000000000         4.418088845386111E-006
   48.7350000000000         4.115360739959231E-006
   48.9250000000000         3.915142409383432E-006
   49.1150000000000         3.751284981913187E-006
   49.3050000000000         3.439527988036257E-006
   49.4950000000000         3.003604715586321E-006
   49.6850000000000         2.654185711349796E-006
   49.8750000000000         2.453148711576032E-006
   50.0650000000000         2.417757939410206E-006
   50.2550000000000         2.465497738393901E-006
   50.4450000000000         2.562581252365900E-006
   50.6350000000000         2.614757689246554E-006
   50.8250000000000         2.728813459129842E-006
   51.0150000000000         2.765206255053549E-006
   51.2050000000000         2.816476933727119E-006
   51.3950000000000         2.944038939236349E-006
   51.5850000000000         3.244286619958271E-006
   51.7750000000000         3.767939692528637E-006
   51.9650000000000         4.247865768966967E-006
   52.1550000000000         4.624418131188078E-006
   52.3450000000000         4.933912714317311E-006
   52.5350000000000         5.244202818848926E-006
   52.7250000000000         5.529979255915967E-006
   52.9150000000000         5.707749031313448E-006
   53.1050000000000         5.990095131520915E-006
   53.2950000000000         6.262360453113349E-006
   53.4850000000000         6.609931008780614E-006
   53.6750000000000         7.201556236759960E-006
   53.8650000000000         7.718219544411555E-006
   54.0550000000000         8.165101715701241E-006
   54.2450000000000         8.560071663910286E-006
   54.4350000000000         8.913522841103671E-006
   54.6250000000000         9.205770655666590E-006
   54.8150000000000         9.446199868151064E-006
   55.0050000000000         9.630652904411325E-006
   55.1950000000000         9.739542469827824E-006
   55.3850000000000         9.831721446564562E-006
   55.5750000000000         9.854885078454355E-006
   55.7650000000000         9.859756379907819E-006
   55.9550000000000         9.807312986768550E-006
   56.1450000000000         9.585354037053291E-006
   56.3350000000000         8.988092095495390E-006
   56.5250000000000         8.279655366279074E-006
   56.7150000000000         7.541678797261849E-006
   56.9050000000000         6.769936101601287E-006
   57.0950000000000         6.074678743983371E-006
   57.2850000000000         5.602525764724715E-006
   57.4750000000000         5.043341096493650E-006
   57.6650000000000         4.440363323372688E-006
   57.8550000000000         3.945137736193884E-006
   58.0450000000000         3.670210947940747E-006
   58.2350000000000         3.418190811346572E-006
   58.4250000000000         3.126381674165510E-006
   58.6150000000000         2.901563118846137E-006
   58.8050000000000         2.727621878286098E-006
   58.9950000000000         2.557940828495270E-006
   59.1850000000000         2.451122144765891E-006
   59.3750000000000         2.379497807271369E-006
   59.5650000000000         2.331456973620661E-006
   59.7550000000000         2.280770696831830E-006
   59.9450000000000         2.229602551748121E-006
   60.1350000000000         2.172691007796325E-006
   60.3250000000000         2.126324677464775E-006
   60.5150000000000         2.130980173942356E-006
   60.7050000000000         2.222233743032758E-006
   60.8950000000000         2.509837145074119E-006
   61.0850000000000         2.882069189387785E-006
   61.2750000000000         3.339783710753763E-006
   61.4650000000000         3.838859636591652E-006
   61.6550000000000         4.333289640686709E-006
   61.8450000000000         4.839316542561179E-006
   62.0350000000000         5.270881726627059E-006
   62.2250000000000         5.581711788669241E-006
   62.4150000000000         5.923702586158707E-006
   62.6050000000000         6.191153727314176E-006
   62.7950000000000         6.263820342385187E-006
   62.9850000000000         6.356140052555854E-006
   63.1750000000000         6.476601984997000E-006
   63.3650000000000         6.616689863142311E-006
   63.5550000000000         6.764187462306904E-006
   63.7450000000000         6.883216666021925E-006
   63.9350000000000         6.926073668561155E-006
   64.1250000000000         6.882731113287469E-006
   64.3150000000000         6.762409377705707E-006
   64.5050000000000         6.586498911202401E-006
   64.6950000000000         6.266824722303430E-006
   64.8850000000000         6.086639411846932E-006
   65.0750000000000         5.811122027151409E-006
   65.2650000000000         5.512530186805922E-006
   65.4550000000000         5.226647139754105E-006
   65.6450000000000         4.946662558564302E-006
   65.8350000000000         4.670887964075775E-006
   66.0250000000000         4.438795498644086E-006
   66.2150000000000         4.243981139960031E-006
   66.4050000000000         4.064862911156275E-006
   66.5950000000000         4.019599619065882E-006
   66.7850000000000         3.890948139711514E-006
   66.9750000000000         3.829109404926613E-006
   67.1650000000000         3.748480745046618E-006
   67.3550000000000         3.654765382868463E-006
   67.5450000000000         3.548234097949152E-006
   67.7350000000000         3.450228571048034E-006
   67.9250000000000         3.390734685543978E-006
   68.1150000000000         3.405104516233110E-006
   68.3050000000000         3.520757170803632E-006
   68.4950000000000         3.753205461650021E-006
   68.6850000000000         4.061779597791066E-006
   68.8750000000000         4.416664908200363E-006
   69.0650000000000         4.798097571329528E-006
   69.2550000000000         5.201229704211376E-006
   69.4450000000000         5.594336950734038E-006
   69.6350000000000         5.924605140764827E-006
   69.8250000000000         6.112092365017126E-006
   70.0150000000000         6.306594370960423E-006
   70.2050000000000         6.462951184094303E-006
   70.3950000000000         6.627392364964157E-006
   70.5850000000000         6.756358566308439E-006
   70.7750000000000         6.879652404066986E-006
   70.9650000000000         6.959864831417123E-006
   71.1550000000000         7.032521240067750E-006
   71.3450000000000         7.091998970933693E-006
   71.5350000000000         7.153012568394127E-006
   71.7250000000000         7.179412281027276E-006
   71.9150000000000         7.236872347542139E-006
   72.1050000000000         7.244434340501629E-006
   72.2950000000000         7.258282190906805E-006
   72.4850000000000         7.269281048848516E-006
   72.6750000000000         7.275986103112988E-006
   72.8650000000000         7.291195248862895E-006
   73.0550000000000         7.303707645119337E-006
   73.2450000000000         7.316011242411783E-006
   73.4350000000000         7.328637106647744E-006
   73.6250000000000         7.323910891972766E-006
   73.8150000000000         7.290192223610094E-006
   74.0050000000000         7.221896156179325E-006
   74.1950000000000         7.103513741343437E-006
   74.3850000000000         6.944364637238220E-006
   74.5750000000000         6.752698059870141E-006
   74.7650000000000         6.536088763807818E-006
   74.9550000000000         6.334430481055313E-006
   75.1450000000000         6.167986290702146E-006
   75.3350000000000         6.120945959457527E-006
   75.5250000000000         5.962116683936517E-006
   75.7150000000000         5.934341960754882E-006
   75.9050000000000         5.890144538536625E-006
   76.0950000000000         5.818027287748393E-006
   76.2850000000000         5.726602251866834E-006
   76.4750000000000         5.648387501492071E-006
   76.6650000000000         5.590229387000698E-006
   76.8550000000000         5.554355272365985E-006
   77.0450000000000         5.517879998184217E-006
   77.2350000000000         5.438073696925942E-006
   77.4250000000000         5.251978663693458E-006
   77.6150000000000         4.862005872753700E-006
   77.8050000000000         4.409846235228685E-006
   77.9950000000000         3.975437193320122E-006
   78.1850000000000         3.555891613183667E-006
   78.3750000000000         3.181703856065621E-006
   78.5650000000000         2.914297018070612E-006
   78.7550000000000         2.658594408699455E-006
   78.9450000000000         2.566128753839408E-006
   79.1350000000000         2.430965745026032E-006
   79.3250000000000         2.362919635767117E-006
   79.5150000000000         2.255548059029955E-006
   79.7050000000000         2.095601826742410E-006
   79.8950000000000         1.914127903564610E-006
   80.0850000000000         1.855946999531145E-006
   80.2750000000000         2.048809424440716E-006
   80.4650000000000         2.446992482390218E-006
   80.6550000000000         2.982177936421691E-006
   80.8450000000000         3.591058023438277E-006
   81.0350000000000         4.256991578289136E-006
   81.2250000000000         4.923546342002863E-006
   81.4150000000000         5.556413103163324E-006
   81.6050000000000         6.145723723241466E-006
   81.7950000000000         6.418754798437454E-006
   81.9850000000000         6.767674571784124E-006
   82.1750000000000         6.983372600732397E-006
   82.3650000000000         7.255147469774205E-006
   82.5550000000000         7.702988675359758E-006
   82.7450000000000         8.176594308744115E-006
   82.9350000000000         8.492895227981748E-006
   83.1250000000000         8.625097065664576E-006
   83.3150000000000         8.645436475561766E-006
   83.5050000000000         8.623504367520815E-006
   83.6950000000000         8.605211875198628E-006
   83.8850000000000         8.548215984244355E-006
   84.0750000000000         8.525983654387024E-006
   84.2650000000000         8.500936947296163E-006
   84.4550000000000         8.486394546301319E-006
   84.6450000000000         8.472934903145796E-006
   84.8350000000000         8.459165760722888E-006
   85.0250000000000         8.429855954100211E-006
   85.2150000000000         8.373245954163887E-006
   85.4050000000000         8.270611434025251E-006
   85.5950000000000         8.092059962678423E-006
   85.7850000000000         7.806562266707467E-006
   85.9750000000000         7.483882270116174E-006
   86.1650000000000         7.158882287467928E-006
   86.3550000000000         6.837107477788660E-006
   86.5450000000000         6.448831402850983E-006
   86.7350000000000         6.010530258150377E-006
   86.9250000000000         5.552910584145649E-006
   87.1150000000000         5.107632260203386E-006
   87.3050000000000         4.646002884064015E-006
   87.4950000000000         4.195379196724395E-006
   87.6850000000000         3.802575988439282E-006
   87.8750000000000         3.554247734774468E-006
   88.0650000000000         3.354694076631126E-006
   88.2550000000000         3.263188433973974E-006
   88.4450000000000         3.172703760727102E-006
   88.6350000000000         3.093057327316193E-006
   88.8250000000000         2.976685407473240E-006
   89.0150000000000         2.878717145997380E-006
   89.2050000000000         2.845764025771458E-006
   89.3950000000000         2.971707010537909E-006
   89.5850000000000         3.317805794278294E-006
   89.7750000000000         3.626173104844200E-006
   89.9650000000000         3.939257872752449E-006
   90.1550000000000         4.300737109296206E-006
   90.3450000000000         4.647030960640585E-006
   90.5350000000000         5.048912830843724E-006
   90.7250000000000         5.465841331782314E-006
   90.9150000000000         5.907041918189787E-006
   91.1050000000000         6.339663406684083E-006
   91.2950000000000         6.761028639117948E-006
   91.4850000000000         7.191763007700958E-006
   91.6750000000000         7.629376768620934E-006
   91.8650000000000         7.981634870011655E-006
   92.0550000000000         8.250275388993033E-006
   92.2450000000000         8.401764080175122E-006
   92.4350000000000         8.499118178001981E-006
   92.6250000000000         8.578669681947813E-006
   92.8150000000000         8.614289612942070E-006
   93.0050000000000         8.617756597095336E-006
   93.1950000000000         8.543567421634599E-006
   93.3850000000000         8.312831163297208E-006
   93.5750000000000         7.733001098984116E-006
   93.7650000000000         7.034205947093224E-006
   93.9550000000000         6.396658188604357E-006
   94.1450000000000         5.832497690948398E-006
   94.3350000000000         5.320097496978716E-006
   94.5250000000000         4.871795015277646E-006
   94.7150000000000         4.514111414196542E-006
   94.9050000000000         4.162086355286462E-006
   95.0950000000000         3.966885582767443E-006
   95.2850000000000         3.737505765425727E-006
   95.4750000000000         3.678885199995828E-006
   95.6650000000000         3.445794803280280E-006
   95.8550000000000         3.402623660684598E-006
   96.0450000000000         3.335955501028264E-006
   96.2350000000000         3.235227997784705E-006
   96.4250000000000         3.104880679417605E-006
   96.6150000000000         2.949792856524656E-006
   96.8050000000000         2.769937408240480E-006
   96.9950000000000         2.601834093890093E-006
   97.1850000000000         2.476642440033336E-006
   97.3750000000000         2.424883769747473E-006
   97.5650000000000         2.392495899973016E-006
   97.7550000000000         2.415804648075481E-006
   97.9450000000000         2.499029878310450E-006
   98.1350000000000         2.682445683686828E-006
   98.3250000000000         2.982597007425613E-006
   98.5150000000000         3.379390531060866E-006
   98.7050000000000         3.826025507240419E-006
   98.8950000000000         4.272963431587145E-006
   99.0850000000000         4.694998446589423E-006
   99.2750000000000         5.146958427741900E-006
   99.4650000000000         5.721577861246191E-006
   99.6550000000000         6.117136477430000E-006
   99.8450000000000         6.396161725649343E-006
   100.035000000000         6.527890526732625E-006
   100.225000000000         6.541916062185535E-006
   100.415000000000         6.460888666111446E-006
   100.605000000000         6.309433889354266E-006
   100.795000000000         6.131848209821733E-006
   100.985000000000         5.954540257583878E-006
   101.175000000000         5.909042642197920E-006
   101.365000000000         5.790861126204955E-006
   101.555000000000         5.759515616600735E-006
   101.745000000000         5.685381800435203E-006
   101.935000000000         5.531984318668230E-006
   102.125000000000         5.361120786759894E-006
   102.315000000000         5.342426574431646E-006
   102.505000000000         5.498439703058911E-006
   102.695000000000         5.719434655640321E-006
   102.885000000000         5.936159151658820E-006
   103.075000000000         6.119363187848686E-006
   103.265000000000         6.243768521327193E-006
   103.455000000000         6.304160568039651E-006
   103.645000000000         6.319826482759168E-006
   103.835000000000         6.307818287447216E-006
   104.025000000000         6.251667607123394E-006
   104.215000000000         6.223047370429789E-006
   104.405000000000         6.200537668157795E-006
   104.595000000000         6.158112030039812E-006
   104.785000000000         6.090017603062516E-006
   104.975000000000         5.996564654351671E-006
   105.165000000000         5.887813167737117E-006
   105.355000000000         5.784523123333684E-006
   105.545000000000         5.690594721682510E-006
   105.735000000000         5.603029860896505E-006
   105.925000000000         5.526066413246513E-006
   106.115000000000         5.463772327770167E-006
   106.305000000000         5.382502052499859E-006
   106.495000000000         5.342790226841218E-006
   106.685000000000         5.254708483837345E-006
   106.875000000000         5.217812362462879E-006
   107.065000000000         5.140985304357697E-006
   107.255000000000         5.060330613420670E-006
   107.445000000000         4.978446269102869E-006
   107.635000000000         4.899735118061936E-006
   107.825000000000         4.831499517689259E-006
   108.015000000000         4.776340891694911E-006
   108.205000000000         4.724512448235921E-006
   108.395000000000         4.662805023520883E-006
   108.585000000000         4.610646845835577E-006
   108.775000000000         4.585894806910290E-006
   108.965000000000         4.577789550565085E-006
   109.155000000000         4.578457846939190E-006
   109.345000000000         4.591713366439332E-006
   109.535000000000         4.598100936447756E-006
   109.725000000000         4.609037597299434E-006
   109.915000000000         4.620461725174075E-006
   110.105000000000         4.640740034412130E-006