  -1.42500000000000         0.000000000000000E+000
  -1.23500000000000        -2.495272898584289E-020
  -1.04500000000000         1.628915404989094E-019
 -0.855000000000000         1.684645203404256E-018
 -0.665000000000000         8.866386826416595E-018
 -0.475000000000000         3.825299615494157E-017
 -0.285000000000000         1.295571808459918E-016
 -9.499999999999975E-002    3.727392454278723E-016
  9.500000000000020E-002    1.053355618754158E-015
  0.285000000000000         2.595546431779906E-015
  0.475000000000000         5.759639135159499E-015
  0.665000000000000         1.133941792565612E-014
  0.855000000000000         2.026195533522908E-014
   1.04500000000000         3.332289082109055E-014
   1.23500000000000         5.295274960882426E-014
   1.42500000000000         8.302826565201154E-014
   1.61500000000000         1.235259721317735E-013
   1.80500000000000         1.764854362305543E-013
   1.99500000000000         2.433146710953222E-013
   2.18500000000000         3.256126323670076E-013
   2.37500000000000         4.255649051544144E-013
   2.56500000000000         5.453114949342425E-013
   2.75500000000000         6.869611751378279E-013
   2.94500000000000         8.525272193940315E-013
   3.13500000000000         1.043968463326069E-012
   3.32500000000000         1.263061336806438E-012
   3.51500000000000         1.510115802350605E-012
   3.70500000000000         1.785739539047631E-012
   3.89500000000000         2.090172421464533E-012
   4.08500000000000         2.423674354127346E-012
   4.27500000000000         2.786439013637258E-012
   4.46500000000000         3.178589193388254E-012
   4.65500000000000         3.600025265904640E-012
   4.84500000000000         4.050121427191947E-012
   5.03500000000000         4.527899738900432E-012
   5.22500000000000         5.032352186027752E-012
   5.41500000000000         5.563449674144135E-012
   5.60500000000000         6.120148911954983E-012
   5.79500000000000         6.700918061071062E-012
   5.98500000000000         7.304363766199457E-012
   6.17500000000000         7.928228460092765E-012
   6.36500000000000         8.569303502403618E-012
   6.55500000000000         9.223884448152683E-012
   6.74500000000000         9.890540274093100E-012
   6.93500000000000         1.056862421746357E-011
   7.12500000000000         1.125614626826162E-011
   7.31500000000000         1.195129968553268E-011
   7.50500000000000         1.265419208298241E-011
   7.69500000000000         1.336493387744707E-011
   7.88500000000000         1.408375905872956E-011
   8.07500000000000         1.481162339008446E-011
   8.26500000000000         1.554971046112323E-011
   8.45500000000000         1.629802941211502E-011
   8.64500000000000         1.705670340616028E-011
   8.83500000000000         1.782706211910164E-011
   9.02500000000000         1.861063711768408E-011
   9.21500000000000         1.941156018511236E-011
   9.40500000000000         2.022989047800943E-011
   9.59500000000000         2.106514333444914E-011
   9.78500000000000         2.191777468236631E-011
   9.97500000000000         2.278927529111823E-011
   10.1650000000000         2.368076840429554E-011
   10.3550000000000         2.459182147192096E-011
   10.5450000000000         2.552252878124390E-011
   10.7350000000000         2.647297406322934E-011
   10.9250000000000         2.744334277968803E-011
   11.1150000000000         2.843382525170740E-011
   11.3050000000000         2.944450055938865E-011
   11.4950000000000         3.047539016161471E-011
   11.6850000000000         3.152668836240961E-011
   11.8750000000000         3.259876384077962E-011
   12.0650000000000         3.369209623427852E-011
   12.2550000000000         3.480716278104442E-011
   12.4450000000000         3.594425269064171E-011
   12.6350000000000         3.710336274528279E-011
   12.8250000000000         3.828422943439360E-011
   13.0150000000000         3.948645309031411E-011
   13.2050000000000         4.070869224503891E-011
   13.3950000000000         4.194985331024492E-011
   13.5850000000000         4.320818086248425E-011
   13.7750000000000         4.448158892136183E-011
   13.9650000000000         4.576765614850759E-011
   14.1550000000000         4.706426929720680E-011
   14.3450000000000         4.837015109657619E-011
   14.5350000000000         4.968453665952815E-011
   14.7250000000000         5.100703827913226E-011
   14.9150000000000         5.233750681028332E-011
   15.1050000000000         5.367625578143823E-011
   15.2950000000000         5.502405632660398E-011
   15.4850000000000         5.638330861269865E-011
   15.6750000000000         5.775664142478305E-011
   15.8650000000000         5.914512795182220E-011
   16.0550000000000         6.055034087739256E-011
   16.2450000000000         6.197458109635079E-011
   16.4350000000000         6.341824935587496E-011
   16.6250000000000         6.488174066040072E-011
   16.8150000000000         6.636636044945035E-011
   17.0050000000000         6.787337845125254E-011
   17.1950000000000         6.940327321398698E-011
   17.3850000000000         7.095671786065814E-011
   17.5750000000000         7.253421233308501E-011
   17.7650000000000         7.413661725504355E-011
   17.9550000000000         7.576437686833887E-011
   18.1450000000000         7.741806356482952E-011
   18.3350000000000         7.909805290411634E-011
   18.5250000000000         8.080461449754435E-011
   18.7150000000000         8.253796426441387E-011
   18.9050000000000         8.429818187078349E-011
   19.0950000000000         8.608456773017519E-011
   19.2850000000000         8.789610730086747E-011
   19.4750000000000         8.973149781566767E-011
   19.6650000000000         9.158923248450758E-011
   19.8550000000000         9.346754525986843E-011
   20.0450000000000         9.536444166135334E-011
   20.2350000000000         9.727774949384725E-011
   20.4250000000000         9.920536337043065E-011
   20.6150000000000         1.011452563385016E-010
   20.8050000000000         1.030953152267700E-010
   20.9950000000000         1.050537414899060E-010
   21.1850000000000         1.070189351043051E-010
   21.3750000000000         1.089895662828049E-010
   21.5650000000000         1.109645159141525E-010
   21.7550000000000         1.129431590373621E-010
   21.9450000000000         1.149252077257521E-010
   22.1350000000000         1.169101040206849E-010
   22.3250000000000         1.188977874755912E-010
   22.5150000000000         1.208898472866855E-010
   22.7050000000000         1.228881868931105E-010
   22.8950000000000         1.248945913038863E-010
   23.0850000000000         1.269109588105315E-010
   23.2750000000000         1.289386612627034E-010
   23.4650000000000         1.309805151516564E-010
   23.6550000000000         1.330367886246212E-010
   23.8450000000000         1.351103158157323E-010
   24.0350000000000         1.372044201054371E-010
   24.2250000000000         1.393208459333623E-010
   24.4150000000000         1.414625024746116E-010
   24.6050000000000         1.436319318751231E-010
   24.7950000000000         1.458325590270293E-010
   24.9850000000000         1.480631878305585E-010
   25.1750000000000         1.503256293019202E-010
   25.3650000000000         1.526191978761200E-010
   25.5550000000000         1.549439710344457E-010
   25.7450000000000         1.572998859752729E-010
   25.9350000000000         1.596861065534591E-010
   26.1250000000000         1.621023512852263E-010
   26.3150000000000         1.645477775180902E-010
   26.5050000000000         1.670213336554791E-010
   26.6950000000000         1.695219963675959E-010
   26.8850000000000         1.720487526101025E-010
   27.0750000000000         1.746005337649909E-010
   27.2650000000000         1.771760529020520E-010
   27.4550000000000         1.797742697565114E-010
   27.6450000000000         1.823942751235250E-010
   27.8350000000000         1.850349278890757E-010
   28.0250000000000         1.876953567421896E-010
   28.2150000000000         1.903738566171811E-010
   28.4050000000000         1.930689309705944E-010
   28.5950000000000         1.957786200819703E-010
   28.7850000000000         1.984980540924205E-010
   28.9750000000000         2.012249125398212E-010
   29.1650000000000         2.039574253891145E-010
   29.3550000000000         2.066947113492572E-010
   29.5450000000000         2.094351699901292E-010
   29.7350000000000         2.121769490769318E-010
   29.9250000000000         2.149189865139117E-010
   30.1150000000000         2.176611091180142E-010
   30.3050000000000         2.204022886982960E-010
   30.4950000000000         2.231429744674875E-010
   30.6850000000000         2.258848285244893E-010
   30.8750000000000         2.286279083280231E-010
   31.0650000000000         2.313751958183787E-010
   31.2550000000000         2.341281673484787E-010
   31.4450000000000         2.368909523170845E-010
   31.6350000000000         2.396658613008837E-010
   31.8250000000000         2.424584012050294E-010
   32.0150000000000         2.452701636231812E-010
   32.2050000000000         2.481032157575933E-010
   32.3950000000000         2.509613473546158E-010
   32.5850000000000         2.538484912985694E-010
   32.7750000000000         2.567674414792674E-010
   32.9650000000000         2.597170906144157E-010
   33.1550000000000         2.626990007017450E-010
   33.3450000000000         2.657146624343785E-010
   33.5350000000000         2.687646640591746E-010
   33.7250000000000         2.718496106634274E-010
   33.9150000000000         2.749693872033116E-010
   34.1050000000000         2.781234068237863E-010
   34.2950000000000         2.813106160549858E-010
   34.4850000000000         2.845295526466036E-010
   34.6750000000000         2.877784146615717E-010
   34.8650000000000         2.910549854957914E-010
   35.0550000000000         2.943571020964649E-010
   35.2450000000000         2.976826413869900E-010
   35.4350000000000         3.010283646085158E-010
   35.6250000000000         3.043913756795529E-010
   35.8150000000000         3.077700972375916E-010
   36.0050000000000         3.111630346919827E-010
   36.1950000000000         3.145707162326336E-010
   36.3850000000000         3.179917837901155E-010
   36.5750000000000         3.214245660374724E-010
   36.7650000000000         3.248686043050829E-010
   36.9550000000000         3.283231436305915E-010
   37.1450000000000         3.317874690584874E-010
   37.3350000000000         3.352603770577457E-010
   37.5250000000000         3.387410538703483E-010
   37.7150000000000         3.422290061305569E-010
   37.9050000000000         3.457241506530093E-010
   38.0950000000000         3.492267497113085E-010
   38.2850000000000         3.527371936297795E-010
   38.4750000000000         3.562559402006239E-010
   38.6650000000000         3.597870855290904E-010
   38.8550000000000         3.633314029653888E-010
   39.0450000000000         3.668910454996711E-010
   39.2350000000000         3.704686410522251E-010
   39.4250000000000         3.740671269128951E-010
   39.6150000000000         3.776887497334932E-010
   39.8050000000000         3.813363513117977E-010
   39.9950000000000         3.850118920511457E-010
   40.1850000000000         3.887155982300121E-010
   40.3750000000000         3.924482156283176E-010
   40.5650000000000         3.962102933814889E-010
   40.7550000000000         4.000021406295601E-010
   40.9450000000000         4.038237017049834E-010
   41.1350000000000         4.076744685985441E-010
   41.3250000000000         4.115524687225371E-010
   41.5150000000000         4.154554989364494E-010
   41.7050000000000         4.193814436782645E-010
   41.8950000000000         4.233290210699883E-010
   42.0850000000000         4.272967542666686E-010
   42.2750000000000         4.312840186760297E-010
   42.4650000000000         4.352901492100657E-010
   42.6550000000000         4.393139886529744E-010
   42.8450000000000         4.433547050777629E-010
   43.0350000000000         4.474113267246207E-010
   43.2250000000000         4.514828840766157E-010
   43.4150000000000         4.555692115028406E-010
   43.6050000000000         4.596694982696120E-010
   43.7950000000000         4.637834313734437E-010
   43.9850000000000         4.679109452747583E-010
   44.1750000000000         4.720514551212897E-010
   44.3650000000000         4.762041490141063E-010
   44.5550000000000         4.803681943065591E-010
   44.7450000000000         4.845433160608597E-010
   44.9350000000000         4.887317610980126E-010
   45.1250000000000         4.929348233565856E-010
   45.3150000000000         4.971533863322534E-010
   45.5050000000000         5.013889591252860E-010
   45.6950000000000         5.056429248060120E-010
   45.8850000000000         5.099178070963165E-010
   46.0750000000000         5.142161042270746E-010
   46.2650000000000         5.185377992037897E-010
   46.4550000000000         5.228844872420971E-010
   46.6450000000000         5.272576345173515E-010
   46.8350000000000         5.316581644271261E-010
   47.0250000000000         5.360856593434578E-010
   47.2150000000000         5.405390054049132E-010
   47.4050000000000         5.450178434999514E-010
   47.5950000000000         5.495207501929144E-010
   47.7850000000000         5.540456661259407E-010
   47.9750000000000         5.585916271799532E-010
   48.1650000000000         5.631550592794553E-010
   48.3550000000000         5.677336762587689E-010
   48.5450000000000         5.723264154837837E-010
   48.7350000000000         5.769332693918716E-010
   48.9250000000000         5.815538084156563E-010
   49.1150000000000         5.861866973683671E-010
   49.3050000000000         5.908311727455586E-010
   49.4950000000000         5.954861876788124E-010
   49.6850000000000         6.001495693317624E-010
   49.8750000000000         6.048202470903334E-010
   50.0650000000000         6.094987372375450E-010
   50.2550000000000         6.141855064898233E-010
   50.4450000000000         6.188799951280016E-010
   50.6350000000000         6.235820817917410E-010
   50.8250000000000         6.282910688165821E-010
   51.0150000000000         6.330073344152905E-010
   51.2050000000000         6.377308308009253E-010
   51.3950000000000         6.424614239073838E-010
   51.5850000000000         6.472002662603916E-010
   51.7750000000000         6.519501698633836E-010
   51.9650000000000         6.567136133322087E-010
   52.1550000000000         6.614900829913839E-010
   52.3450000000000         6.662806580060449E-010
   52.5350000000000         6.710889022159625E-010
   52.7250000000000         6.759174261557176E-010
   52.9150000000000         6.807702424584275E-010
   53.1050000000000         6.856481977302745E-010
   53.2950000000000         6.905524548605814E-010
   53.4850000000000         6.954836842716560E-010
   53.6750000000000         7.004455303419641E-010
   53.8650000000000         7.054409305856480E-010
   54.0550000000000         7.104712684527155E-010
   54.2450000000000         7.155374190924636E-010
   54.4350000000000         7.206399673614165E-010
   54.6250000000000         7.257792630003522E-010
   54.8150000000000         7.309557190660905E-010
   55.0050000000000         7.361686545814617E-010
   55.1950000000000         7.414171816932521E-010
   55.3850000000000         7.467006066185271E-010
   55.5750000000000         7.520185634929270E-010
   55.7650000000000         7.573714149450843E-010
   55.9550000000000         7.627583555095335E-010
   56.1450000000000         7.681783684068651E-010
   56.3350000000000         7.736269635953042E-010
   56.5250000000000         7.790995680538341E-010
   56.7150000000000         7.845918619066878E-010
   56.9050000000000         7.901013135170707E-010
   57.0950000000000         7.956255265163065E-010
   57.2850000000000         8.011625582550986E-010
   57.4750000000000         8.067115087756125E-010
   57.6650000000000         8.122698110050289E-010
   57.8550000000000         8.178364928480369E-010
   58.0450000000000         8.234098891818147E-010
   58.2350000000000         8.289883213708791E-010
   58.4250000000000         8.345710360510008E-010
   58.6150000000000         8.401570777609424E-010
   58.8050000000000         8.457454802612590E-010
   58.9950000000000         8.513356698701466E-010
   59.1850000000000         8.569275998222765E-010
   59.3750000000000         8.625215871156800E-010
   59.5650000000000         8.681177745503027E-010
   59.7550000000000         8.737158516928986E-010
   59.9450000000000         8.793151862478286E-010
   60.1350000000000         8.849152721800363E-010
   60.3250000000000         8.905162723237808E-010
   60.5150000000000         8.961192345326995E-010
   60.7050000000000         9.017254480890537E-010
   60.8950000000000         9.073365715224086E-010
   61.0850000000000         9.129572792006683E-010
   61.2750000000000         9.185905844005360E-010
   61.4650000000000         9.242411217084114E-010
   61.6550000000000         9.299124964385351E-010
   61.8450000000000         9.356084225397545E-010
   62.0350000000000         9.413315441109118E-010
   62.2250000000000         9.470831717769139E-010
   62.4150000000000         9.528646712812815E-010
   62.6050000000000         9.586759353823151E-010
   62.7950000000000         9.645170839209547E-010
   62.9850000000000         9.703893672806029E-010
   63.1750000000000         9.762927414722392E-010
   63.3650000000000         9.822273760750455E-010
   63.5550000000000         9.881930380399835E-010
   63.7450000000000         9.941894531297219E-010
   63.9350000000000         1.000216453244874E-009
   64.1250000000000         1.006273470345809E-009
   64.3150000000000         1.012357862388594E-009
   64.5050000000000         1.018467214227861E-009
   64.6950000000000         1.024599465809667E-009
   64.8850000000000         1.030750135616121E-009
   65.0750000000000         1.036921177150397E-009
   65.2650000000000         1.043109053035618E-009
   65.4550000000000         1.049311874385850E-009
   65.6450000000000         1.055528532067721E-009
   65.8350000000000         1.061758091868823E-009
   66.0250000000000         1.067999188998131E-009
   66.2150000000000         1.074250606514013E-009
   66.4050000000000         1.080511167263334E-009
   66.5950000000000         1.086779590823299E-009
   66.7850000000000         1.093055205893341E-009
   66.9750000000000         1.099336885071829E-009
   67.1650000000000         1.105623899160473E-009
   67.3550000000000         1.111915869835697E-009
   67.5450000000000         1.118212832795015E-009
   67.7350000000000         1.124515086397989E-009
   67.9250000000000         1.130823047634060E-009
   68.1150000000000         1.137137216472738E-009
   68.3050000000000         1.143458755546900E-009
   68.4950000000000         1.149790059175538E-009
   68.6850000000000         1.156135571952033E-009
   68.8750000000000         1.162498408551609E-009
   69.0650000000000         1.168880933086776E-009
   69.2550000000000         1.175284988209912E-009
   69.4450000000000         1.181712322020224E-009
   69.6350000000000         1.188164554683949E-009
   69.8250000000000         1.194642960946188E-009
   70.0150000000000         1.201149059346857E-009
   70.2050000000000         1.207683488608539E-009
   70.3950000000000         1.214246220812923E-009
   70.5850000000000         1.220837174043897E-009
   70.7750000000000         1.227456446159788E-009
   70.9650000000000         1.234103949717761E-009
   71.1550000000000         1.240779826230387E-009
   71.3450000000000         1.247483383722195E-009
   71.5350000000000         1.254214828684432E-009
   71.7250000000000         1.260973096262838E-009
   71.9150000000000         1.267758234382814E-009
   72.1050000000000         1.274569839547693E-009
   72.2950000000000         1.281407669145085E-009
   72.4850000000000         1.288271394671930E-009
   72.6750000000000         1.295160364084714E-009
   72.8650000000000         1.302073930159735E-009
   73.0550000000000         1.309011657666733E-009
   73.2450000000000         1.315973556395978E-009
   73.4350000000000         1.322959984939294E-009
   73.6250000000000         1.329971096777588E-009
   73.8150000000000         1.337006408596729E-009
   74.0050000000000         1.344065928435219E-009
   74.1950000000000         1.351149407170807E-009
   74.3850000000000         1.358256620868758E-009
   74.5750000000000         1.365387296601079E-009
   74.7650000000000         1.372540551573830E-009
   74.9550000000000         1.379715081975874E-009
   75.1450000000000         1.386909341265866E-009
   75.3350000000000         1.394122667816731E-009
   75.5250000000000         1.401355696829766E-009
   75.7150000000000         1.408608501366406E-009
   75.9050000000000         1.415881322842857E-009
   76.0950000000000         1.423174355858472E-009
   76.2850000000000         1.430487532524116E-009
   76.4750000000000         1.437821219890131E-009
   76.6650000000000         1.445176220393891E-009
   76.8550000000000         1.452553156563817E-009
   77.0450000000000         1.459951918187833E-009
   77.2350000000000         1.467371792605880E-009
   77.4250000000000         1.474811349271316E-009
   77.6150000000000         1.482268006852650E-009
   77.8050000000000         1.489739152136527E-009
   77.9950000000000         1.497223740897647E-009
   78.1850000000000         1.504720787917274E-009
   78.3750000000000         1.512229211524439E-009
   78.5650000000000         1.519747459647142E-009
   78.7550000000000         1.527275369864749E-009
   78.9450000000000         1.534812925915152E-009
   79.1350000000000         1.542360508977863E-009
   79.3250000000000         1.549918131179176E-009
   79.5150000000000         1.557485176025490E-009
   79.7050000000000         1.565060576586241E-009
   79.8950000000000         1.572643339567149E-009
   80.0850000000000         1.580233539525376E-009
   80.2750000000000         1.587832999564110E-009
   80.4650000000000         1.595444009577445E-009
   80.6550000000000         1.603067092423960E-009
   80.8450000000000         1.610702830393737E-009
   81.0350000000000         1.618352750491045E-009
   81.2250000000000         1.626018558505194E-009
   81.4150000000000         1.633704580833177E-009
   81.6050000000000         1.641413380476263E-009
   81.7950000000000         1.649147587673788E-009
   81.9850000000000         1.656905434445766E-009
   82.1750000000000         1.664687643287628E-009
   82.3650000000000         1.672495799805448E-009
   82.5550000000000         1.680331352338846E-009
   82.7450000000000         1.688196208778690E-009
   82.9350000000000         1.696091950839760E-009
   83.1250000000000         1.704018394150961E-009
   83.3150000000000         1.711975471502968E-009
   83.5050000000000         1.719963628989749E-009
   83.6950000000000         1.727984269406160E-009
   83.8850000000000         1.736038128228424E-009
   84.0750000000000         1.744125760261335E-009
   84.2650000000000         1.752247171247350E-009
   84.4550000000000         1.760402068914618E-009
   84.6450000000000         1.768590092909214E-009
   84.8350000000000         1.776811101818700E-009
   85.0250000000000         1.785065146795188E-009
   85.2150000000000         1.793351975030202E-009
   85.4050000000000         1.801670584984350E-009
   85.5950000000000         1.810019841994903E-009
   85.7850000000000         1.818398260440880E-009
   85.9750000000000         1.826802687117926E-009
   86.1650000000000         1.835231148075643E-009
   86.3550000000000         1.843681538343351E-009
   86.5450000000000         1.852151302138114E-009
   86.7350000000000         1.860636766758744E-009
   86.9250000000000         1.869134254047117E-009
   87.1150000000000         1.877641100113615E-009
   87.3050000000000         1.886155920873082E-009
   87.4950000000000         1.894676754616443E-009
   87.6850000000000         1.903202125707504E-009
   87.8750000000000         1.911730915021464E-009
   88.0650000000000         1.920262268042211E-009
   88.2550000000000         1.928795415335684E-009
   88.4450000000000         1.937331106366508E-009
   88.6350000000000         1.945870380114944E-009
   88.8250000000000         1.954413944852045E-009
   89.0150000000000         1.962962324158535E-009
   89.2050000000000         1.971516701734235E-009
   89.3950000000000         1.980078422514149E-009
   89.5850000000000         1.988651913964462E-009
   89.7750000000000         1.997240661974164E-009
   89.9650000000000         2.005847285215786E-009
   90.1550000000000         2.014473304954667E-009
   90.3450000000000         2.023120221551182E-009
   90.5350000000000         2.031788682186826E-009
   90.7250000000000         2.040481097392801E-009
   90.9150000000000         2.049199807875646E-009
   91.1050000000000         2.057947575781413E-009
   91.2950000000000         2.066725787751987E-009
   91.4850000000000         2.075536021300083E-009
   91.6750000000000         2.084380593839139E-009
   91.8650000000000         2.093261879750300E-009
   92.0550000000000         2.102180889398648E-009
   92.2450000000000         2.111137919316619E-009
   92.4350000000000         2.120132628542451E-009
   92.6250000000000         2.129164612214154E-009
   92.8150000000000         2.138233367873790E-009
   93.0050000000000         2.147338669167865E-009
   93.1950000000000         2.156480172543280E-009
   93.3850000000000         2.165656788507099E-009
   93.5750000000000         2.174865271283624E-009
   93.7650000000000         2.184099268349720E-009
   93.9550000000000         2.193355612023200E-009
   94.1450000000000         2.202631145044901E-009
   94.3350000000000         2.211924453858366E-009
   94.5250000000000         2.221232224441057E-009
   94.7150000000000         2.230551868981417E-009
   94.9050000000000         2.239881317548692E-009
   95.0950000000000         2.249218353437447E-009
   95.2850000000000         2.258564374696447E-009
   95.4750000000000         2.267919029528965E-009
   95.6650000000000         2.277282015608914E-009
   95.8550000000000         2.286652284485048E-009
   96.0450000000000         2.296028888297046E-009
   96.2350000000000         2.305411442534960E-009
   96.4250000000000         2.314799526175522E-009
   96.6150000000000         2.324193343501053E-009
   96.8050000000000         2.333593060985438E-009
   96.9950000000000         2.342998167431939E-009
   97.1850000000000         2.352407870732956E-009
   97.3750000000000         2.361821933782413E-009
   97.5650000000000         2.371241296229286E-009
   97.7550000000000         2.380667671889843E-009
   97.9450000000000         2.390102894119372E-009
   98.1350000000000         2.399548637428542E-009
   98.3250000000000         2.409006255673777E-009
   98.5150000000000         2.418478899786237E-009
   98.7050000000000         2.427969553192373E-009
   98.8950000000000         2.437481445244073E-009
   99.0850000000000         2.447017424308022E-009
   99.2750000000000         2.456578560217265E-009
   99.4650000000000         2.466167801048619E-009
   99.6550000000000         2.475785960961665E-009
   99.8450000000000         2.485432957539862E-009
   100.035000000000         2.495107872757668E-009
   100.225000000000         2.504811642592334E-009
   100.415000000000         2.514543412115426E-009
   100.605000000000         2.524302177963637E-009
   100.795000000000         2.534087110782376E-009
   100.985000000000         2.543897867722389E-009
   101.175000000000         2.553735474591903E-009
   101.365000000000         2.563601062809250E-009
   101.555000000000         2.573495053463170E-009
   101.745000000000         2.583417109475770E-009
   101.935000000000         2.593366345122289E-009
   102.125000000000         2.603341347071193E-009
   102.315000000000         2.613341738829311E-009
   102.505000000000         2.623370467199363E-009
   102.695000000000         2.633426864119657E-009
   102.885000000000         2.643510551550879E-009
   103.075000000000         2.653620388686123E-009
   103.265000000000         2.663755716701349E-009
   103.455000000000         2.673915381494614E-009
   103.645000000000         2.684096849875781E-009
   103.835000000000         2.694299787861982E-009
   104.025000000000         2.704523190699211E-009
   104.215000000000         2.714767191869054E-009
   104.405000000000         2.725030303510376E-009
   104.595000000000         2.735312658454189E-009
   104.785000000000         2.745614340441824E-009
   104.975000000000         2.755935589359798E-009
   105.165000000000         2.766276196654730E-009
   105.355000000000         2.776635294757316E-009
   105.545000000000         2.787012152403023E-009
   105.735000000000         2.797406891483200E-009
   105.925000000000         2.807820346384555E-009
   106.115000000000         2.818253212981219E-009
   106.305000000000         2.828705325190968E-009
   106.495000000000         2.839175694744807E-009
   106.685000000000         2.849663286144737E-009
   106.875000000000         2.860167352441065E-009
   107.065000000000         2.870687880294551E-009
   107.255000000000         2.881225090139948E-009
   107.445000000000         2.891778699237061E-009
   107.635000000000         2.902347978554416E-009
   107.825000000000         2.912932110083376E-009
   108.015000000000         2.923530884894962E-009
   108.205000000000         2.934144832179000E-009
   108.395000000000         2.944774853036749E-009
   108.585000000000         2.955421808774857E-009
   108.775000000000         2.966086101785003E-009
   108.965000000000         2.976767504492141E-009
   109.155000000000         2.987465982946580E-009
   109.345000000000         2.998181881676587E-009
   109.535000000000         3.008916169102938E-009
   109.725000000000         3.019669344829244E-009
   109.915000000000         3.030441220900474E-009
   110.105000000000         3.041231236702136E-009