  -1.42500000000000         4.960162652102004E-020
  -1.23500000000000        -3.005805332154579E-019
  -1.04500000000000        -5.054909513602205E-018
 -0.855000000000000        -3.306704900646214E-017
 -0.665000000000000        -1.493916624130950E-016
 -0.475000000000000        -5.555339137485736E-016
 -0.285000000000000        -1.738470204564204E-015
 -9.499999999999975E-002   -4.591352665845868E-015
  9.500000000000020E-002   -1.045338223424479E-014
  0.285000000000000        -2.106085585901005E-014
  0.475000000000000        -3.780147996657189E-014
  0.665000000000000        -6.175547807155510E-014
  0.855000000000000        -9.485032004479403E-014
   1.04500000000000        -1.380241060908664E-013
   1.23500000000000        -1.908030454229250E-013
   1.42500000000000        -2.518097533403506E-013
   1.61500000000000        -3.199379747651412E-013
   1.80500000000000        -3.953462352243056E-013
   1.99500000000000        -4.779375405648451E-013
   2.18500000000000        -5.670493503972546E-013
   2.37500000000000        -6.613612069788814E-013
   2.56500000000000        -7.592573897958577E-013
   2.75500000000000        -8.591307848601041E-013
   2.94500000000000        -9.595784908319352E-013
   3.13500000000000        -1.059643696033922E-012
   3.32500000000000        -1.159232620014003E-012
   3.51500000000000        -1.258062530835336E-012
   3.70500000000000        -1.355967002923022E-012
   3.89500000000000        -1.453176455804456E-012
   4.08500000000000        -1.549583366406313E-012
   4.27500000000000        -1.645079833549858E-012
   4.46500000000000        -1.739181062710818E-012
   4.65500000000000        -1.830982836018818E-012
   4.84500000000000        -1.919334732474031E-012
   5.03500000000000        -2.003361745482588E-012
   5.22500000000000        -2.084584524096886E-012
   5.41500000000000        -2.162881056622292E-012
   5.60500000000000        -2.236237609485261E-012
   5.79500000000000        -2.304258669861977E-012
   5.98500000000000        -2.366319163300720E-012
   6.17500000000000        -2.421412909187198E-012
   6.36500000000000        -2.468519377198114E-012
   6.55500000000000        -2.509040065631096E-012
   6.74500000000000        -2.545530175730136E-012
   6.93500000000000        -2.579067651944393E-012
   7.12500000000000        -2.611180767936602E-012
   7.31500000000000        -2.646059568473810E-012
   7.50500000000000        -2.686558630554306E-012
   7.69500000000000        -2.734610094240700E-012
   7.88500000000000        -2.792593440298433E-012
   8.07500000000000        -2.861054507318903E-012
   8.26500000000000        -2.938527892957514E-012
   8.45500000000000        -3.022546847832116E-012
   8.64500000000000        -3.112981475435412E-012
   8.83500000000000        -3.210061145210581E-012
   9.02500000000000        -3.314082661359100E-012
   9.21500000000000        -3.421859833567978E-012
   9.40500000000000        -3.525309771482291E-012
   9.59500000000000        -3.617326689743781E-012
   9.78500000000000        -3.696559197690711E-012
   9.97500000000000        -3.765896570911520E-012
   10.1650000000000        -3.825604509050140E-012
   10.3550000000000        -3.876602362780759E-012
   10.5450000000000        -3.922086848136853E-012
   10.7350000000000        -3.964674010652679E-012
   10.9250000000000        -4.006099142606456E-012
   11.1150000000000        -4.046533729937744E-012
   11.3050000000000        -4.085427092232923E-012
   11.4950000000000        -4.122267406971300E-012
   11.6850000000000        -4.157052735638274E-012
   11.8750000000000        -4.190497092893978E-012
   12.0650000000000        -4.223726621243280E-012
   12.2550000000000        -4.257776179570778E-012
   12.4450000000000        -4.293630498516879E-012
   12.6350000000000        -4.331001353772473E-012
   12.8250000000000        -4.369880625008553E-012
   13.0150000000000        -4.410533846186999E-012
   13.2050000000000        -4.452112922551903E-012
   13.3950000000000        -4.493680461709726E-012
   13.5850000000000        -4.533525265139845E-012
   13.7750000000000        -4.569983665348593E-012
   13.9650000000000        -4.602547484042063E-012
   14.1550000000000        -4.632622974118370E-012
   14.3450000000000        -4.660804697394885E-012
   14.5350000000000        -4.687258442706759E-012
   14.7250000000000        -4.712698722455769E-012
   14.9150000000000        -4.737097690828465E-012
   15.1050000000000        -4.762012087770752E-012
   15.2950000000000        -4.791091032949808E-012
   15.4850000000000        -4.827830300243336E-012
   15.6750000000000        -4.872190276237924E-012
   15.8650000000000        -4.922897779184352E-012
   16.0550000000000        -4.980291068953445E-012
   16.2450000000000        -5.043678432064016E-012
   16.4350000000000        -5.111457191247109E-012
   16.6250000000000        -5.182829192839372E-012
   16.8150000000000        -5.257423793992101E-012
   17.0050000000000        -5.333898244061708E-012
   17.1950000000000        -5.411749574957775E-012
   17.3850000000000        -5.490911990195926E-012
   17.5750000000000        -5.571199924338737E-012
   17.7650000000000        -5.652536164740938E-012
   17.9550000000000        -5.734359768942400E-012
   18.1450000000000        -5.816654946141861E-012
   18.3350000000000        -5.899329046315170E-012
   18.5250000000000        -5.982425611841131E-012
   18.7150000000000        -6.066087849966244E-012
   18.9050000000000        -6.150129933192730E-012
   19.0950000000000        -6.233922325288433E-012
   19.2850000000000        -6.316698750221124E-012
   19.4750000000000        -6.397477684489323E-012
   19.6650000000000        -6.475339274613953E-012
   19.8550000000000        -6.549627713515277E-012
   20.0450000000000        -6.619950292688735E-012
   20.2350000000000        -6.686230622795270E-012
   20.4250000000000        -6.748482187902377E-012
   20.6150000000000        -6.806384803018863E-012
   20.8050000000000        -6.859555114615600E-012
   20.9950000000000        -6.908186783111645E-012
   21.1850000000000        -6.954103647754612E-012
   21.3750000000000        -6.997626027916549E-012
   21.5650000000000        -7.039173996028420E-012
   21.7550000000000        -7.080147415240594E-012
   21.9450000000000        -7.120158402690686E-012
   22.1350000000000        -7.159713236185354E-012
   22.3250000000000        -7.201842354821719E-012
   22.5150000000000        -7.251112202385358E-012
   22.7050000000000        -7.310398063641162E-012
   22.8950000000000        -7.380477243633574E-012
   23.0850000000000        -7.461709264414162E-012
   23.2750000000000        -7.553656134312746E-012
   23.4650000000000        -7.653959791290962E-012
   23.6550000000000        -7.762607065452467E-012
   23.8450000000000        -7.881173136485132E-012
   24.0350000000000        -8.008257905075234E-012
   24.2250000000000        -8.142278664651523E-012
   24.4150000000000        -8.281764763404913E-012
   24.6050000000000        -8.424152923263303E-012
   24.7950000000000        -8.566489758229549E-012
   24.9850000000000        -8.706594218428503E-012
   25.1750000000000        -8.843055156619012E-012
   25.3650000000000        -8.974256635830909E-012
   25.5550000000000        -9.099510637707537E-012
   25.7450000000000        -9.216882285306144E-012
   25.9350000000000        -9.324196452771833E-012
   26.1250000000000        -9.422436494483275E-012
   26.3150000000000        -9.513382374445871E-012
   26.5050000000000        -9.597820699973202E-012
   26.6950000000000        -9.676375573033399E-012
   26.8850000000000        -9.749668565202518E-012
   27.0750000000000        -9.817674937184581E-012
   27.2650000000000        -9.880549762270088E-012
   27.4550000000000        -9.939831522233096E-012
   27.6450000000000        -9.997670868147261E-012
   27.8350000000000        -1.005519954142251E-011
   28.0250000000000        -1.011307271685483E-011
   28.2150000000000        -1.017131621422315E-011
   28.4050000000000        -1.022934253315765E-011
   28.5950000000000        -1.028500676033670E-011
   28.7850000000000        -1.033475357071128E-011
   28.9750000000000        -1.037578370687928E-011
   29.1650000000000        -1.040403943385993E-011
   29.3550000000000        -1.041556294128052E-011
   29.5450000000000        -1.040830554117347E-011
   29.7350000000000        -1.038311865991653E-011
   29.9250000000000        -1.034187736923815E-011
   30.1150000000000        -1.028650522506754E-011
   30.3050000000000        -1.022013022212961E-011
   30.4950000000000        -1.014743350004072E-011
   30.6850000000000        -1.007124353646995E-011
   30.8750000000000        -9.993100929431279E-012
   31.0650000000000        -9.918461105706044E-012
   31.2550000000000        -9.854010409905860E-012
   31.4450000000000        -9.804749669700621E-012
   31.6350000000000        -9.775383789039587E-012
   31.8250000000000        -9.767147508314056E-012
   32.0150000000000        -9.779225640189560E-012
   32.2050000000000        -9.809829499723112E-012
   32.3950000000000        -9.855502010492177E-012
   32.5850000000000        -9.915025101176338E-012
   32.7750000000000        -9.984840934945790E-012
   32.9650000000000        -1.006062049141377E-011
   33.1550000000000        -1.014003034278830E-011
   33.3450000000000        -1.022195862952632E-011
   33.5350000000000        -1.030660996003043E-011
   33.7250000000000        -1.039393282224040E-011
   33.9150000000000        -1.048232593831934E-011
   34.1050000000000        -1.056819395652076E-011
   34.2950000000000        -1.064761761672892E-011
   34.4850000000000        -1.071966755102632E-011
   34.6750000000000        -1.078473696949919E-011
   34.8650000000000        -1.084235178085330E-011
   35.0550000000000        -1.089243105919311E-011
   35.2450000000000        -1.093498180954563E-011
   35.4350000000000        -1.097161851149065E-011
   35.6250000000000        -1.100662666411661E-011
   35.8150000000000        -1.104395970626027E-011
   36.0050000000000        -1.108569664454786E-011
   36.1950000000000        -1.113232147115118E-011
   36.3850000000000        -1.118199749246431E-011
   36.5750000000000        -1.123419784881418E-011
   36.7650000000000        -1.128898554039702E-011
   36.9550000000000        -1.134594402452041E-011
   37.1450000000000        -1.140542607317656E-011
   37.3350000000000        -1.146671731100216E-011
   37.5250000000000        -1.152900678726800E-011
   37.7150000000000        -1.159161503738449E-011
   37.9050000000000        -1.165394845941344E-011
   38.0950000000000        -1.171568453495294E-011
   38.2850000000000        -1.177684813239169E-011
   38.4750000000000        -1.184010642068179E-011
   38.6650000000000        -1.191198328330191E-011
   38.8550000000000        -1.199785301465049E-011
   39.0450000000000        -1.209913065903267E-011
   39.2350000000000        -1.221664494114311E-011
   39.4250000000000        -1.234941050550234E-011
   39.6150000000000        -1.249671637323332E-011
   39.8050000000000        -1.265688008134565E-011
   39.9950000000000        -1.282611750268598E-011
   40.1850000000000        -1.300180740005801E-011
   40.3750000000000        -1.318031666277330E-011
   40.5650000000000        -1.335972545731173E-011
   40.7550000000000        -1.354046035061203E-011
   40.9450000000000        -1.372278927771559E-011
   41.1350000000000        -1.390417583950207E-011
   41.3250000000000        -1.407817961991960E-011
   41.5150000000000        -1.423952708901644E-011
   41.7050000000000        -1.438727689958604E-011
   41.8950000000000        -1.452061750704286E-011
   42.0850000000000        -1.463767550709295E-011
   42.2750000000000        -1.473859281649509E-011
   42.4650000000000        -1.482389240875233E-011
   42.6550000000000        -1.489389664487762E-011
   42.8450000000000        -1.494939139377510E-011
   43.0350000000000        -1.499176093301436E-011
   43.2250000000000        -1.502473654472758E-011
   43.4150000000000        -1.504931323994498E-011
   43.6050000000000        -1.506728603291971E-011
   43.7950000000000        -1.508168196743283E-011
   43.9850000000000        -1.509260905554379E-011
   44.1750000000000        -1.510014142501295E-011
   44.3650000000000        -1.510356089696517E-011
   44.5550000000000        -1.510294158275790E-011
   44.7450000000000        -1.510347226328234E-011
   44.9350000000000        -1.511461049845166E-011
   45.1250000000000        -1.514554368913223E-011
   45.3150000000000        -1.519977193332994E-011
   45.5050000000000        -1.527513377420954E-011
   45.6950000000000        -1.536777215638517E-011
   45.8850000000000        -1.547256687219330E-011
   46.0750000000000        -1.558495731860502E-011
   46.2650000000000        -1.570119821260889E-011
   46.4550000000000        -1.581939925720587E-011
   46.6450000000000        -1.593974746425057E-011
   46.8350000000000        -1.606143602622074E-011
   47.0250000000000        -1.617889058593889E-011
   47.2150000000000        -1.628359440746599E-011
   47.4050000000000        -1.637080565291915E-011
   47.5950000000000        -1.644066885846700E-011
   47.7850000000000        -1.649451566746015E-011
   47.9750000000000        -1.653340850301902E-011
   48.1650000000000        -1.655877483001602E-011
   48.3550000000000        -1.657144203504776E-011
   48.5450000000000        -1.657420367687937E-011
   48.7350000000000        -1.657043255147595E-011
   48.9250000000000        -1.656140096864646E-011
   49.1150000000000        -1.654876134147219E-011
   49.3050000000000        -1.653274981799127E-011
   49.4950000000000        -1.651456241000560E-011
   49.6850000000000        -1.649985165517126E-011
   49.8750000000000        -1.649752640107313E-011
   50.0650000000000        -1.651130052082050E-011
   50.2550000000000        -1.654164856793808E-011
   50.4450000000000        -1.659107910926197E-011
   50.6350000000000        -1.665468497428665E-011
   50.8250000000000        -1.672869850111443E-011
   51.0150000000000        -1.680967943357722E-011
   51.2050000000000        -1.689344855390277E-011
   51.3950000000000        -1.698274550347443E-011
   51.5850000000000        -1.708124409039273E-011
   51.7750000000000        -1.718596433092443E-011
   51.9650000000000        -1.728929043431934E-011
   52.1550000000000        -1.738355674745764E-011
   52.3450000000000        -1.746499413631887E-011
   52.5350000000000        -1.753546057684232E-011
   52.7250000000000        -1.759701390753558E-011
   52.9150000000000        -1.765133187429703E-011
   53.1050000000000        -1.770117690867712E-011
   53.2950000000000        -1.774936649146826E-011
   53.4850000000000        -1.779738397639987E-011
   53.6750000000000        -1.784795277359320E-011
   53.8650000000000        -1.790341116906622E-011
   54.0550000000000        -1.796482445263152E-011
   54.2450000000000        -1.803348586028509E-011
   54.4350000000000        -1.811088048762354E-011
   54.6250000000000        -1.819736578328264E-011
   54.8150000000000        -1.829334903030391E-011
   55.0050000000000        -1.839918962797274E-011
   55.1950000000000        -1.851280664711270E-011
   55.3850000000000        -1.863223236369720E-011
   55.5750000000000        -1.875634980743436E-011
   55.7650000000000        -1.888365575745818E-011
   55.9550000000000        -1.901297206971203E-011
   56.1450000000000        -1.914079105193593E-011
   56.3350000000000        -1.926118760344050E-011
   56.5250000000000        -1.936980899951243E-011
   56.7150000000000        -1.946563122465872E-011
   56.9050000000000        -1.954865874548554E-011
   57.0950000000000        -1.961915743784314E-011
   57.2850000000000        -1.967916919502715E-011
   57.4750000000000        -1.973115804708472E-011
   57.6650000000000        -1.977535368412947E-011
   57.8550000000000        -1.981212430445685E-011
   58.0450000000000        -1.984392789066196E-011
   58.2350000000000        -1.987252740870611E-011
   58.4250000000000        -1.989813532810151E-011
   58.6150000000000        -1.992132247067664E-011
   58.8050000000000        -1.994327404242837E-011
   58.9950000000000        -1.996517043139895E-011
   59.1850000000000        -1.998816399837621E-011
   59.3750000000000        -2.001312711274776E-011
   59.5650000000000        -2.004045026796760E-011
   59.7550000000000        -2.007022117371944E-011
   59.9450000000000        -2.010233893570992E-011
   60.1350000000000        -2.013678141056494E-011
   60.3250000000000        -2.017404588908299E-011
   60.5150000000000        -2.021470484181892E-011
   60.7050000000000        -2.025869793692918E-011
   60.8950000000000        -2.030508701655384E-011
   61.0850000000000        -2.035124396686724E-011
   61.2750000000000        -2.039582640063242E-011
   61.4650000000000        -2.043664261548353E-011
   61.6550000000000        -2.047391742549611E-011
   61.8450000000000        -2.050796394730582E-011
   62.0350000000000        -2.053634980692303E-011
   62.2250000000000        -2.056001078854074E-011
   62.4150000000000        -2.057972650347842E-011
   62.6050000000000        -2.059606797612308E-011
   62.7950000000000        -2.061032488521471E-011
   62.9850000000000        -2.062334137054419E-011
   63.1750000000000        -2.063542530275520E-011
   63.3650000000000        -2.064692347311113E-011
   63.5550000000000        -2.065801235121354E-011
   63.7450000000000        -2.066894733219033E-011
   63.9350000000000        -2.068012866049429E-011
   64.1250000000000        -2.069178639305459E-011
   64.3150000000000        -2.070423337589697E-011
   64.5050000000000        -2.071830514355235E-011
   64.6950000000000        -2.073537362943373E-011
   64.8850000000000        -2.075646675160858E-011
   65.0750000000000        -2.078085950850822E-011
   65.2650000000000        -2.080869814244789E-011
   65.4550000000000        -2.084121320338376E-011
   65.6450000000000        -2.087806589507503E-011
   65.8350000000000        -2.091833840945446E-011
   66.0250000000000        -2.096100594330870E-011
   66.2150000000000        -2.100502685162875E-011
   66.4050000000000        -2.104961913172534E-011
   66.5950000000000        -2.109398497096063E-011
   66.7850000000000        -2.113810003156968E-011
   66.9750000000000        -2.118240056840044E-011
   67.1650000000000        -2.122725670608499E-011
   67.3550000000000        -2.127331443011209E-011
   67.5450000000000        -2.132115095805233E-011
   67.7350000000000        -2.137113330884063E-011
   67.9250000000000        -2.142335577297016E-011
   68.1150000000000        -2.147775154205744E-011
   68.3050000000000        -2.153422590725989E-011
   68.4950000000000        -2.159288774363691E-011
   68.6850000000000        -2.165361145339494E-011
   68.8750000000000        -2.171611426468471E-011
   69.0650000000000        -2.178065074766630E-011
   69.2550000000000        -2.184803114443241E-011
   69.4450000000000        -2.191897200941732E-011
   69.6350000000000        -2.199346347554394E-011
   69.8250000000000        -2.207081727500848E-011
   70.0150000000000        -2.215065442496040E-011
   70.2050000000000        -2.223293030499508E-011
   70.3950000000000        -2.231788900193015E-011
   70.5850000000000        -2.240605949904762E-011
   70.7750000000000        -2.249820585098392E-011
   70.9650000000000        -2.259542699464330E-011
   71.1550000000000        -2.269979369663384E-011
   71.3450000000000        -2.281218150870982E-011
   71.5350000000000        -2.293288850537767E-011
   71.7250000000000        -2.306026390623177E-011
   71.9150000000000        -2.319313497668417E-011
   72.1050000000000        -2.333029283915366E-011
   72.2950000000000        -2.346908546205234E-011
   72.4850000000000        -2.360930037306076E-011
   72.6750000000000        -2.375034803511406E-011
   72.8650000000000        -2.389254032365920E-011
   73.0550000000000        -2.403648199382121E-011
   73.2450000000000        -2.418218706553857E-011
   73.4350000000000        -2.432939022358643E-011
   73.6250000000000        -2.447662265353812E-011
   73.8150000000000        -2.462089734650382E-011
   74.0050000000000        -2.475723355806067E-011
   74.1950000000000        -2.488227195127427E-011
   74.3850000000000        -2.499511445302539E-011
   74.5750000000000        -2.509406965083150E-011
   74.7650000000000        -2.517831023825935E-011
   74.9550000000000        -2.524836886221398E-011
   75.1450000000000        -2.530629764403013E-011
   75.3350000000000        -2.535834085070977E-011
   75.5250000000000        -2.540595103053404E-011
   75.7150000000000        -2.544954628825921E-011
   75.9050000000000        -2.549216357459300E-011
   76.0950000000000        -2.553271063898728E-011
   76.2850000000000        -2.557059984341801E-011
   76.4750000000000        -2.560648627722242E-011
   76.6650000000000        -2.564157471340705E-011
   76.8550000000000        -2.567634957903839E-011
   77.0450000000000        -2.571070913594777E-011
   77.2350000000000        -2.574471861073016E-011
   77.4250000000000        -2.577722410384573E-011
   77.6150000000000        -2.580434205083147E-011
   77.8050000000000        -2.582311963459876E-011
   77.9950000000000        -2.583294753772090E-011
   78.1850000000000        -2.583348822587749E-011
   78.3750000000000        -2.582381276096808E-011
   78.5650000000000        -2.580437644480675E-011
   78.7550000000000        -2.577752533261479E-011
   78.9450000000000        -2.574635433956859E-011
   79.1350000000000        -2.571224598944872E-011
   79.3250000000000        -2.567553126418058E-011
   79.5150000000000        -2.563701491320090E-011
   79.7050000000000        -2.559628629986215E-011
   79.8950000000000        -2.555420420929168E-011
   80.0850000000000        -2.551622007196986E-011
   80.2750000000000        -2.549016035928723E-011
   80.4650000000000        -2.548185537963552E-011
   80.6550000000000        -2.549534994755830E-011
   80.8450000000000        -2.553132459563903E-011
   81.0350000000000        -2.558872448530116E-011
   81.2250000000000        -2.566548678776411E-011
   81.4150000000000        -2.575863184901248E-011
   81.6050000000000        -2.586912091605897E-011
   81.7950000000000        -2.599337237709207E-011
   81.9850000000000        -2.612530999379538E-011
   82.1750000000000        -2.626356905956583E-011
   82.3650000000000        -2.640745675182527E-011
   82.5550000000000        -2.655805505237027E-011
   82.7450000000000        -2.671202231191846E-011
   82.9350000000000        -2.686020900104778E-011
   83.1250000000000        -2.699716303333798E-011
   83.3150000000000        -2.712258747150684E-011
   83.5050000000000        -2.723628139111597E-011
   83.6950000000000        -2.734112945167285E-011
   83.8850000000000        -2.743833015976372E-011
   84.0750000000000        -2.752962405715307E-011
   84.2650000000000        -2.761873018575255E-011
   84.4550000000000        -2.770613537061418E-011
   84.6450000000000        -2.779250836071195E-011
   84.8350000000000        -2.787764843870917E-011
   85.0250000000000        -2.796054753529065E-011
   85.2150000000000        -2.803977363729100E-011
   85.4050000000000        -2.811448295067372E-011
   85.5950000000000        -2.818435684484646E-011
   85.7850000000000        -2.825078372791204E-011
   85.9750000000000        -2.831704745761355E-011
   86.1650000000000        -2.838561168746170E-011
   86.3550000000000        -2.845724447810716E-011
   86.5450000000000        -2.853181086474272E-011
   86.7350000000000        -2.860881939057993E-011
   86.9250000000000        -2.868782424301333E-011
   87.1150000000000        -2.876801510119872E-011
   87.3050000000000        -2.884887589207009E-011
   87.4950000000000        -2.893020337363218E-011
   87.6850000000000        -2.901190501379596E-011
   87.8750000000000        -2.909399110838410E-011
   88.0650000000000        -2.917635075568250E-011
   88.2550000000000        -2.925914479406942E-011
   88.4450000000000        -2.934271356548126E-011
   88.6350000000000        -2.942743739441802E-011
   88.8250000000000        -2.951369285473688E-011
   89.0150000000000        -2.960223996452673E-011
   89.2050000000000        -2.969422097410366E-011
   89.3950000000000        -2.979107141343989E-011
   89.5850000000000        -2.989057313483650E-011
   89.7750000000000        -2.998823493082152E-011
   89.9650000000000        -3.008275671296231E-011
   90.1550000000000        -3.017450535963645E-011
   90.3450000000000        -3.026402542544341E-011
   90.5350000000000        -3.035220688024145E-011
   90.7250000000000        -3.043989685227479E-011
   90.9150000000000        -3.052749357693676E-011
   91.1050000000000        -3.061492980574120E-011
   91.2950000000000        -3.070166671358988E-011
   91.4850000000000        -3.078697492777132E-011
   91.6750000000000        -3.086936428330442E-011
   91.8650000000000        -3.094657523243718E-011
   92.0550000000000        -3.101713512711476E-011
   92.2450000000000        -3.108108654743055E-011
   92.4350000000000        -3.113911895389100E-011
   92.6250000000000        -3.119170066114128E-011
   92.8150000000000        -3.123936316334625E-011
   93.0050000000000        -3.128218682541108E-011
   93.1950000000000        -3.131897937154444E-011
   93.3850000000000        -3.134733306253370E-011
   93.5750000000000        -3.136616563581762E-011
   93.7650000000000        -3.138052172706344E-011
   93.9550000000000        -3.139557504250053E-011
   94.1450000000000        -3.141421385496122E-011
   94.3350000000000        -3.143922990819989E-011
   94.5250000000000        -3.147066471505075E-011
   94.7150000000000        -3.150831382792971E-011
   94.9050000000000        -3.155267647278001E-011
   95.0950000000000        -3.160291442883600E-011
   95.2850000000000        -3.165773626303420E-011
   95.4750000000000        -3.171592023956213E-011
   95.6650000000000        -3.177779531448056E-011
   95.8550000000000        -3.184267259237355E-011
   96.0450000000000        -3.190864632676904E-011
   96.2350000000000        -3.197586518109955E-011
   96.4250000000000        -3.204388647495108E-011
   96.6150000000000        -3.211180940547967E-011
   96.8050000000000        -3.217853033551638E-011
   96.9950000000000        -3.224302137501437E-011
   97.1850000000000        -3.230488319942736E-011
   97.3750000000000        -3.236473860404895E-011
   97.5650000000000        -3.242332418760570E-011
   97.7550000000000        -3.248133513462055E-011
   97.9450000000000        -3.253979035880661E-011
   98.1350000000000        -3.259980576933031E-011
   98.3250000000000        -3.266287443313713E-011
   98.5150000000000        -3.273035338022940E-011
   98.7050000000000        -3.280218466297886E-011
   98.8950000000000        -3.287700475615831E-011
   99.0850000000000        -3.295373242559763E-011
   99.2750000000000        -3.303220732303342E-011
   99.4650000000000        -3.311010828478334E-011
   99.6550000000000        -3.318340340048003E-011
   99.8450000000000        -3.324824463786809E-011
   100.035000000000        -3.330189123273541E-011
   100.225000000000        -3.334194511606200E-011
   100.415000000000        -3.336581104593338E-011
   100.605000000000        -3.337229946167953E-011
   100.795000000000        -3.336175835112916E-011
   100.985000000000        -3.333571361081592E-011
   101.175000000000        -3.329948081693181E-011
   101.365000000000        -3.325623728378047E-011
   101.555000000000        -3.320751309216790E-011
   101.745000000000        -3.315564194631138E-011
   101.935000000000        -3.309941133525163E-011
   102.125000000000        -3.304203566694686E-011
   102.315000000000        -3.299356464115427E-011
   102.505000000000        -3.296553113730290E-011
   102.695000000000        -3.296320791755370E-011
   102.885000000000        -3.298556248158607E-011
   103.075000000000        -3.302942959060539E-011
   103.265000000000        -3.309351868675429E-011
   103.455000000000        -3.317439161178355E-011
   103.645000000000        -3.326672605166856E-011
   103.835000000000        -3.336925758867428E-011
   104.025000000000        -3.347957945536088E-011
   104.215000000000        -3.359374720693849E-011
   104.405000000000        -3.370962406528985E-011
   104.595000000000        -3.382655177490501E-011
   104.785000000000        -3.394389984865735E-011
   104.975000000000        -3.406070385275851E-011
   105.165000000000        -3.417566911546515E-011
   105.355000000000        -3.428776624742889E-011
   105.545000000000        -3.439678097681744E-011
   105.735000000000        -3.450307559319901E-011
   105.925000000000        -3.460726207021083E-011
   106.115000000000        -3.470997684277709E-011
   106.305000000000        -3.481083430529831E-011
   106.495000000000        -3.490947012625983E-011
   106.685000000000        -3.500452835776326E-011
   106.875000000000        -3.509487338525523E-011
   107.065000000000        -3.518014848470623E-011
   107.255000000000        -3.525967560639664E-011
   107.445000000000        -3.533446665509757E-011
   107.635000000000        -3.540637094355109E-011
   107.825000000000        -3.547756542987133E-011
   108.015000000000        -3.555001066560667E-011
   108.205000000000        -3.562477514913469E-011
   108.395000000000        -3.570165890956914E-011
   108.585000000000        -3.577953114555860E-011
   108.775000000000        -3.585703064828548E-011
   108.965000000000        -3.593260063924416E-011
   109.155000000000        -3.600550339271730E-011
   109.345000000000        -3.607519356581927E-011
   109.535000000000        -3.614193336762952E-011
   109.725000000000        -3.620730325636655E-011
   109.915000000000        -3.627266705193317E-011
   110.105000000000        -3.633924007783831E-011