  -1.42500000000000         5.091515923328117E-020
  -1.23500000000000         3.992617165213211E-019
  -1.04500000000000         2.643587221547460E-018
 -0.855000000000000         1.259945829259269E-017
 -0.665000000000000         4.977214300542918E-017
 -0.475000000000000         1.568106955829070E-016
 -0.285000000000000         4.373085499942987E-016
 -9.499999999999975E-002    1.006642357769712E-015
  9.500000000000020E-002    2.014664201483822E-015
  0.285000000000000         3.643904806225139E-015
  0.475000000000000         5.891836484572132E-015
  0.665000000000000         8.801134111344172E-015
  0.855000000000000         1.217439803019252E-014
   1.04500000000000         1.611917387508722E-014
   1.23500000000000         2.052473664032883E-014
   1.42500000000000         2.336444746628920E-014
   1.61500000000000         2.645380848248050E-014
   1.80500000000000         3.057307284415896E-014
   1.99500000000000         3.463395019441764E-014
   2.18500000000000         3.896686559645013E-014
   2.37500000000000         4.330600100624989E-014
   2.56500000000000         4.721718785138186E-014
   2.75500000000000         5.064658663990464E-014
   2.94500000000000         5.349520097513033E-014
   3.13500000000000         5.530385794358167E-014
   3.32500000000000         5.591337525424904E-014
   3.51500000000000         5.709124878996555E-014
   3.70500000000000         5.749256002347733E-014
   3.89500000000000         5.788671381376736E-014
   4.08500000000000         5.817313298432777E-014
   4.27500000000000         5.841377662491253E-014
   4.46500000000000         5.862484366025432E-014
   4.65500000000000         5.865939495675140E-014
   4.84500000000000         5.831628645256405E-014
   5.03500000000000         5.747588986917605E-014
   5.22500000000000         5.723303053499689E-014
   5.41500000000000         5.592414257408998E-014
   5.60500000000000         5.460425725148886E-014
   5.79500000000000         5.343054265629023E-014
   5.98500000000000         5.285502957415683E-014
   6.17500000000000         5.328112335593359E-014
   6.36500000000000         5.504495092486993E-014
   6.55500000000000         5.747784414960903E-014
   6.74500000000000         6.008326164505610E-014
   6.93500000000000         6.340006438742942E-014
   7.12500000000000         6.816911900295439E-014
   7.31500000000000         7.231050541911599E-014
   7.50500000000000         7.536344913074130E-014
   7.69500000000000         7.709115697318004E-014
   7.88500000000000         7.757790785089126E-014
   8.07500000000000         7.690319345467677E-014
   8.26500000000000         7.587297428786408E-014
   8.45500000000000         7.445276790600627E-014
   8.64500000000000         7.212181277805325E-014
   8.83500000000000         6.928005766134417E-014
   9.02500000000000         6.341513404946142E-014
   9.21500000000000         5.318801705862039E-014
   9.40500000000000         4.227681167215447E-014
   9.59500000000000         3.258010107739170E-014
   9.78500000000000         2.578385037956153E-014
   9.97500000000000         2.016509636332729E-014
   10.1650000000000         1.632970761868335E-014
   10.3550000000000         1.449929271788433E-014
   10.5450000000000         1.287345937677627E-014
   10.7350000000000         1.261361116636029E-014
   10.9250000000000         1.247550634033919E-014
   11.1150000000000         1.223192806058796E-014
   11.3050000000000         1.189385005805064E-014
   11.4950000000000         1.171201651337566E-014
   11.6850000000000         1.211249083369992E-014
   11.8750000000000         1.346303278720522E-014
   12.0650000000000         1.563910612518786E-014
   12.2550000000000         1.830774224716498E-014
   12.4450000000000         2.203438159366248E-014
   12.6350000000000         2.297212613375617E-014
   12.8250000000000         2.646395631019207E-014
   13.0150000000000         2.946747637059687E-014
   13.2050000000000         3.215783250310205E-014
   13.3950000000000         3.529218729853735E-014
   13.5850000000000         3.794726375171643E-014
   13.7750000000000         3.959179008481036E-014
   13.9650000000000         4.053400831103613E-014
   14.1550000000000         4.067941550379884E-014
   14.3450000000000         4.119794224236880E-014
   14.5350000000000         4.133717712193027E-014
   14.7250000000000         4.171512366542354E-014
   14.9150000000000         4.286024383899213E-014
   15.1050000000000         4.573514983634729E-014
   15.2950000000000         5.082167379637455E-014
   15.4850000000000         5.738823073984159E-014
   15.6750000000000         6.311290537110855E-014
   15.8650000000000         6.861374697925349E-014
   16.0550000000000         7.415414909412987E-014
   16.2450000000000         7.826348951411331E-014
   16.4350000000000         8.092513138308208E-014
   16.6250000000000         8.253088860665659E-014
   16.8150000000000         8.336683871602065E-014
   17.0050000000000         8.354174577351962E-014
   17.1950000000000         8.352331083168263E-014
   17.3850000000000         8.346013822773283E-014
   17.5750000000000         8.272945234019484E-014
   17.7650000000000         8.240779121421869E-014
   17.9550000000000         8.181570027030454E-014
   18.1450000000000         8.131819975891781E-014
   18.3350000000000         8.078414478529375E-014
   18.5250000000000         8.002795696608016E-014
   18.7150000000000         7.816889902409157E-014
   18.9050000000000         7.505077643363241E-014
   19.0950000000000         7.064231760466477E-014
   19.2850000000000         6.531898519445233E-014
   19.4750000000000         5.995086350382890E-014
   19.6650000000000         5.499247368483202E-014
   19.8550000000000         5.023310145777334E-014
   20.0450000000000         4.607570572906746E-014
   20.2350000000000         4.252829244797694E-014
   20.4250000000000         3.923304437629984E-014
   20.6150000000000         3.563515066420929E-014
   20.8050000000000         3.184377317902837E-014
   20.9950000000000         2.803395370950557E-014
   21.1850000000000         2.708485332687298E-014
   21.3750000000000         2.275692967190143E-014
   21.5650000000000         2.198549865638267E-014
   21.7550000000000         2.011848699553840E-014
   21.9450000000000         1.690488429756111E-014
   22.1350000000000         1.310626088759147E-014
   22.3250000000000         8.832312476065006E-015
   22.5150000000000         7.705776868850844E-015
   22.7050000000000         9.706763392631859E-015
   22.8950000000000         1.425398367379257E-014
   23.0850000000000         2.026791142258162E-014
   23.2750000000000         2.661870374058930E-014
   23.4650000000000         3.204811150059586E-014
   23.6550000000000         3.919253059492908E-014
   23.8450000000000         4.753731364841938E-014
   24.0350000000000         5.538691248784237E-014
   24.2250000000000         6.299280270023954E-014
   24.4150000000000         6.992890298451101E-014
   24.6050000000000         7.693578408835420E-014
   24.7950000000000         8.050898910546092E-014
   24.9850000000000         8.338321984698038E-014
   25.1750000000000         8.426376380149049E-014
   25.3650000000000         8.423709651622396E-014
   25.5550000000000         8.325512234403540E-014
   25.7450000000000         8.103746055962533E-014
   25.9350000000000         7.812640310463023E-014
   26.1250000000000         7.563393898304345E-014
   26.3150000000000         7.363938753086843E-014
   26.5050000000000         7.156885312429424E-014
   26.6950000000000         6.980268571269373E-014
   26.8850000000000         6.804285107419189E-014
   27.0750000000000         6.600608786259679E-014
   27.2650000000000         6.406180538642174E-014
   27.4550000000000         6.308755743876908E-014
   27.6450000000000         6.296562517063409E-014
   27.8350000000000         6.302065487290086E-014
   28.0250000000000         6.380049997262754E-014
   28.2150000000000         6.471356691998553E-014
   28.4050000000000         6.625935056686649E-014
   28.5950000000000         6.794476748162944E-014
   28.7850000000000         6.825156226139299E-014
   28.9750000000000         6.651546214003075E-014
   29.1650000000000         6.221088638280531E-014
   29.3550000000000         5.482266714564255E-014
   29.5450000000000         4.576617668900272E-014
   29.7350000000000         3.696017292852384E-014
   29.9250000000000         2.805753403165748E-014
   30.1150000000000         2.010405271768676E-014
   30.3050000000000         1.336165335112371E-014
   30.4950000000000         8.488120699207253E-015
   30.6850000000000         6.132411023689818E-015
   30.8750000000000         2.453193817795920E-015
   31.0650000000000        -3.615963713992678E-015
   31.2550000000000        -6.807185300756683E-015
   31.4450000000000        -6.374274111034368E-015
   31.6350000000000        -3.718611481154919E-015
   31.8250000000000        -1.546423474892350E-016
   32.0150000000000         3.740075547145403E-015
   32.2050000000000         7.946014853845384E-015
   32.3950000000000         1.272465833522829E-014
   32.5850000000000         1.710465581595629E-014
   32.7750000000000         1.978492110761380E-014
   32.9650000000000         2.229606959017746E-014
   33.1550000000000         2.335061890775461E-014
   33.3450000000000         2.489835938473733E-014
   33.5350000000000         2.719850396763960E-014
   33.7250000000000         3.068705529780630E-014
   33.9150000000000         3.598671526737336E-014
   34.1050000000000         4.237434314935155E-014
   34.2950000000000         4.842478298899219E-014
   34.4850000000000         5.240385127861478E-014
   34.6750000000000         5.653696303204174E-014
   34.8650000000000         6.047170362522307E-014
   35.0550000000000         6.421099939163266E-014
   35.2450000000000         6.820303258508286E-014
   35.4350000000000         7.155548833960359E-014
   35.6250000000000         7.371394972058801E-014
   35.8150000000000         7.476482184797464E-014
   36.0050000000000         7.475738346727490E-014
   36.1950000000000         7.403991243332638E-014
   36.3850000000000         7.356300134418905E-014
   36.5750000000000         7.262206065703045E-014
   36.7650000000000         7.222660541051532E-014
   36.9550000000000         7.126429298783798E-014
   37.1450000000000         7.002538410754527E-014
   37.3350000000000         6.877060241401787E-014
   37.5250000000000         6.759972797724937E-014
   37.7150000000000         6.642803119495114E-014
   37.9050000000000         6.528417958660767E-014
   38.0950000000000         6.447772302583536E-014
   38.2850000000000         6.314571237378480E-014
   38.4750000000000         6.116680543510049E-014
   38.6650000000000         5.943706652852490E-014
   38.8550000000000         5.838616257856103E-014
   39.0450000000000         5.751767085759328E-014
   39.2350000000000         5.637884045306929E-014
   39.4250000000000         5.482997421215179E-014
   39.6150000000000         5.290399684884069E-014
   39.8050000000000         5.031138284850087E-014
   39.9950000000000         4.855848688001983E-014
   40.1850000000000         4.689702720620016E-014
   40.3750000000000         4.655823486619401E-014
   40.5650000000000         4.578273762958256E-014
   40.7550000000000         4.409753023961527E-014
   40.9450000000000         4.036722636270142E-014
   41.1350000000000         3.308829794978126E-014
   41.3250000000000         2.310726431354153E-014
   41.5150000000000         1.468212671177306E-014
   41.7050000000000         9.444346811087100E-015
   41.8950000000000         6.707558581026584E-015
   42.0850000000000         6.321646852515531E-015
   42.2750000000000         7.795229132708364E-015
   42.4650000000000         1.080106619141575E-014
   42.6550000000000         1.482414222988757E-014
   42.8450000000000         1.976691452011950E-014
   43.0350000000000         2.467157547021747E-014
   43.2250000000000         2.835878671048188E-014
   43.4150000000000         3.359818502065807E-014
   43.6050000000000         3.516464363821749E-014
   43.7950000000000         3.716084209816087E-014
   43.9850000000000         3.875548541312364E-014
   44.1750000000000         4.105199498482215E-014
   44.3650000000000         4.489468508025435E-014
   44.5550000000000         5.089861231491225E-014
   44.7450000000000         5.808065589691243E-014
   44.9350000000000         6.312820328106939E-014
   45.1250000000000         6.431959023667767E-014
   45.3150000000000         6.306529855334733E-014
   45.5050000000000         6.100964875830499E-014
   45.6950000000000         5.920487712337375E-014
   45.8850000000000         5.783683391687475E-014
   46.0750000000000         5.732499141194445E-014
   46.2650000000000         5.686976918981931E-014
   46.4550000000000         5.644304724310037E-014
   46.6450000000000         5.589556199626010E-014
   46.8350000000000         5.573368529257854E-014
   47.0250000000000         5.691821475905663E-014
   47.2150000000000         5.902802645286646E-014
   47.4050000000000         6.097382417877540E-014
   47.5950000000000         6.225427428162124E-014
   47.7850000000000         6.260023456302306E-014
   47.9750000000000         6.204178374322541E-014
   48.1650000000000         6.071194007469526E-014
   48.3550000000000         5.883071272848669E-014
   48.5450000000000         5.723930445444460E-014
   48.7350000000000         5.526474957078621E-014
   48.9250000000000         5.354965411401094E-014
   49.1150000000000         5.186689834154151E-014
   49.3050000000000         4.864059575019338E-014
   49.4950000000000         4.373959094254231E-014
   49.6850000000000         3.993536488054183E-014
   49.8750000000000         3.871705244558955E-014
   50.0650000000000         4.002713404495817E-014
   50.2550000000000         4.312847210794437E-014
   50.4450000000000         4.703371071111379E-014
   50.6350000000000         4.914467749902153E-014
   50.8250000000000         5.264239711886828E-014
   51.0150000000000         5.352901256301206E-014
   51.2050000000000         5.472697307597750E-014
   51.3950000000000         5.653948302281836E-014
   51.5850000000000         5.880059984398137E-014
   51.7750000000000         5.875714006530842E-014
   51.9650000000000         5.472324038630329E-014
   52.1550000000000         4.741753668481950E-014
   52.3450000000000         3.873436978454936E-014
   52.5350000000000         2.933887754439774E-014
   52.7250000000000         2.059827552607268E-014
   52.9150000000000         1.517940468625040E-014
   53.1050000000000         9.879746812919629E-015
   53.2950000000000         5.065573909039947E-015
   53.4850000000000         2.280744595077755E-016
   53.6750000000000        -4.556509783444428E-015
   53.8650000000000        -5.048500396305782E-015
   54.0550000000000        -2.132830428924501E-015
   54.2450000000000         3.767307525152512E-015
   54.4350000000000         1.207205056215834E-014
   54.6250000000000         2.146585949132750E-014
   54.8150000000000         3.127817695022098E-014
   55.0050000000000         4.062031261171289E-014
   55.1950000000000         4.733570767024599E-014
   55.3850000000000         5.558542780149467E-014
   55.5750000000000         6.080145766348184E-014
   55.7650000000000         6.601900056191088E-014
   55.9550000000000         7.183586803575023E-014
   56.1450000000000         7.909545776278050E-014
   56.3350000000000         8.477480920817517E-014
   56.5250000000000         8.606708602677107E-014
   56.7150000000000         8.414458046177773E-014
   56.9050000000000         8.023943113281885E-014
   57.0950000000000         7.564797199483019E-014
   57.2850000000000         7.224805026732389E-014
   57.4750000000000         6.848512214630661E-014
   57.6650000000000         6.423749685864848E-014
   57.8550000000000         6.097058156644171E-014
   58.0450000000000         5.928356316384246E-014
   58.2350000000000         5.779331463213556E-014
   58.4250000000000         5.615581663261616E-014
   58.6150000000000         5.494810103938816E-014
   58.8050000000000         5.401697992041011E-014
   58.9950000000000         5.315339937374846E-014
   59.1850000000000         5.262722431683463E-014
   59.3750000000000         5.227653329910371E-014
   59.5650000000000         5.202894299343581E-014
   59.7550000000000         5.181069474782110E-014
   59.9450000000000         5.165248082950758E-014
   60.1350000000000         5.157386019552560E-014
   60.3250000000000         5.151129781662782E-014
   60.5150000000000         5.104192338633542E-014
   60.7050000000000         4.973455637266870E-014
   60.8950000000000         4.708566133253550E-014
   61.0850000000000         4.387196638970207E-014
   61.2750000000000         4.050218138372113E-014
   61.4650000000000         3.710948830292513E-014
   61.6550000000000         3.383815678816480E-014
   61.8450000000000         3.045811606025971E-014
   62.0350000000000         2.730493483559419E-014
   62.2250000000000         2.481897448469274E-014
   62.4150000000000         2.213941399355813E-014
   62.6050000000000         1.965249423989844E-014
   62.7950000000000         1.876954090834802E-014
   62.9850000000000         1.770139202408599E-014
   63.1750000000000         1.637952771829395E-014
   63.3650000000000         1.466150891545632E-014
   63.5550000000000         1.214632501301318E-014
   63.7450000000000         8.997123047804540E-015
   63.9350000000000         6.115695926706648E-015
   64.1250000000000         3.810611505586624E-015
   64.3150000000000         2.479644412658454E-015
   64.5050000000000         2.223193582771163E-015
   64.6950000000000         3.538378712887339E-015
   64.8850000000000         5.333542429824836E-015
   65.0750000000000         8.242262063341180E-015
   65.2650000000000         1.281672533081949E-014
   65.4550000000000         1.785788869954157E-014
   65.6450000000000         2.360707755835314E-014
   65.8350000000000         3.003287213122815E-014
   66.0250000000000         3.592582139494715E-014
   66.2150000000000         4.120583499258554E-014
   66.4050000000000         4.620141668944970E-014
   66.5950000000000         4.774193612798859E-014
   66.7850000000000         5.138338460280732E-014
   66.9750000000000         5.306996885479666E-014
   67.1650000000000         5.511463689394096E-014
   67.3550000000000         5.756664928514736E-014
   67.5450000000000         6.075776795093008E-014
   67.7350000000000         6.460044651416912E-014
   67.9250000000000         6.842006757469237E-014
   68.1150000000000         7.106803839348952E-014
   68.3050000000000         7.219535593390636E-014
   68.4950000000000         7.144470177655151E-014
   68.6850000000000         6.939721889228324E-014
   68.8750000000000         6.669191723642769E-014
   69.0650000000000         6.377370979217231E-014
   69.2550000000000         6.089583636353669E-014
   69.4450000000000         5.841589281173656E-014
   69.6350000000000         5.665164563989208E-014
   69.8250000000000         5.571326047220871E-014
   70.0150000000000         5.488525132183971E-014
   70.2050000000000         5.442091019225813E-014
   70.3950000000000         5.433808093003462E-014
   70.5850000000000         5.458667411639112E-014
   70.7750000000000         5.507849796892723E-014
   70.9650000000000         5.544019419048728E-014
   71.1550000000000         5.532364702622336E-014
   71.3450000000000         5.487570926756362E-014
   71.5350000000000         5.351045612919410E-014
   71.7250000000000         5.302036681621136E-014
   71.9150000000000         5.119956069369048E-014
   72.1050000000000         5.074266181840144E-014
   72.2950000000000         5.004224724147725E-014
   72.4850000000000         4.928681887425788E-014
   72.6750000000000         4.865153350295647E-014
   72.8650000000000         4.704675832603074E-014
   73.0550000000000         4.499564539135766E-014
   73.2450000000000         4.203673086315267E-014
   73.4350000000000         3.685263419479200E-014
   73.6250000000000         2.951416808660540E-014
   73.8150000000000         2.189322540911962E-014
   74.0050000000000         1.507275758782484E-014
   74.1950000000000         1.123295622551493E-014
   74.3850000000000         9.598553422072790E-015
   74.5750000000000         9.811249335838988E-015
   74.7650000000000         1.120561004887498E-014
   74.9550000000000         1.318228524450515E-014
   75.1450000000000         1.539143281744451E-014
   75.3350000000000         1.578832776463525E-014
   75.5250000000000         1.893693999725637E-014
   75.7150000000000         1.966562723360110E-014
   75.9050000000000         2.130970699301638E-014
   76.0950000000000         2.448660037680135E-014
   76.2850000000000         2.944217176376572E-014
   76.4750000000000         3.653563453381918E-014
   76.6650000000000         4.325710486967682E-014
   76.8550000000000         4.702976093446242E-014
   77.0450000000000         5.049146435583149E-014
   77.2350000000000         5.579891214798103E-014
   77.4250000000000         6.318345865870855E-014
   77.6150000000000         7.101676515935585E-014
   77.8050000000000         7.578394419779856E-014
   77.9950000000000         7.745199392904872E-014
   78.1850000000000         7.699999873453298E-014
   78.3750000000000         7.519771420007876E-014
   78.5650000000000         7.331490637119502E-014
   78.7550000000000         7.110966946296889E-014
   78.9450000000000         7.019079709815395E-014
   79.1350000000000         6.855829264648396E-014
   79.3250000000000         6.761608653460117E-014
   79.5150000000000         6.601109162663822E-014
   79.7050000000000         6.311347160214221E-014
   79.8950000000000         5.815107160713523E-014
   80.0850000000000         5.127638655799048E-014
   80.2750000000000         4.466004711686786E-014
   80.4650000000000         3.967335408661390E-014
   80.6550000000000         3.637031184274598E-014
   80.8450000000000         3.391344005649580E-014
   81.0350000000000         3.184355752023650E-014
   81.2250000000000         3.015293636481215E-014
   81.4150000000000         2.878312895030217E-014
   81.6050000000000         2.758900935269872E-014
   81.7950000000000         2.712112149155672E-014
   81.9850000000000         2.661276058016389E-014
   82.1750000000000         2.627099679923445E-014
   82.3650000000000         2.564758779073752E-014
   82.5550000000000         2.418031215116473E-014
   82.7450000000000         2.168199449517706E-014
   82.9350000000000         1.910838633508036E-014
   83.1250000000000         1.709733467827414E-014
   83.3150000000000         1.576871539931083E-014
   83.5050000000000         1.496683790434461E-014
   83.6950000000000         1.475515700302825E-014
   83.8850000000000         1.441575350205976E-014
   84.0750000000000         1.442121262391573E-014
   84.2650000000000         1.437900741165894E-014
   84.4550000000000         1.424814977047505E-014
   84.6450000000000         1.412077365949364E-014
   84.8350000000000         1.409299168712160E-014
   85.0250000000000         1.450151697909293E-014
   85.2150000000000         1.571082005072741E-014
   85.4050000000000         1.825129668440684E-014
   85.5950000000000         2.249988910131439E-014
   85.7850000000000         2.739177956852889E-014
   85.9750000000000         3.163270393887465E-014
   86.1650000000000         3.491910944297474E-014
   86.3550000000000         3.741234905261009E-014
   86.5450000000000         3.985110489517549E-014
   86.7350000000000         4.263384704085369E-014
   86.9250000000000         4.579458717059389E-014
   87.1150000000000         4.922514365066889E-014
   87.3050000000000         5.307026714432329E-014
   87.4950000000000         5.718198599832163E-014
   87.6850000000000         6.101548654472275E-014
   87.8750000000000         6.352376965352780E-014
   88.0650000000000         6.546751567250818E-014
   88.2550000000000         6.611600691460527E-014
   88.4450000000000         6.667999601403184E-014
   88.6350000000000         6.715553518591454E-014
   88.8250000000000         6.839873779123529E-014
   89.0150000000000         7.023244453615977E-014
   89.2050000000000         7.225624015119797E-014
   89.3950000000000         7.244861240351917E-014
   89.5850000000000         6.934285173667299E-014
   89.7750000000000         6.501161247491633E-014
   89.9650000000000         6.042227699002515E-014
   90.1550000000000         5.507745992002822E-014
   90.3450000000000         4.998935742548493E-014
   90.5350000000000         4.485460687515401E-014
   90.7250000000000         4.021094779721231E-014
   90.9150000000000         3.638851247125565E-014
   91.1050000000000         3.365918095786570E-014
   91.2950000000000         3.194571702839961E-014
   91.4850000000000         3.103406464513971E-014
   91.6750000000000         3.096694478237273E-014
   91.8650000000000         3.165832967197843E-014
   92.0550000000000         3.271547585248360E-014
   92.2450000000000         3.361531238361720E-014
   92.4350000000000         3.438607961384460E-014
   92.6250000000000         3.538127522567548E-014
   92.8150000000000         3.635789170936952E-014
   93.0050000000000         3.752978736749167E-014
   93.1950000000000         3.872541426760551E-014
   93.3850000000000         3.899812941730477E-014
   93.5750000000000         3.658060337628117E-014
   93.7650000000000         3.148314036164882E-014
   93.9550000000000         2.523320311920126E-014
   94.1450000000000         1.881140370227402E-014
   94.3350000000000         1.267464283465077E-014
   94.5250000000000         7.452771857244028E-015
   94.7150000000000         3.676231101901301E-015
   94.9050000000000         9.853660517397836E-016
   95.0950000000000         1.330099808245477E-016
   95.2850000000000        -4.583987789566124E-016
   95.4750000000000        -3.053963796991015E-017
   95.6650000000000         1.170978541141976E-016
   95.8550000000000         2.380131134094772E-016
   96.0450000000000         3.178999586254441E-016
   96.2350000000000         1.112539961647730E-015
   96.4250000000000         3.003828874595379E-015
   96.6150000000000         7.013549120012765E-015
   96.8050000000000         1.358878153133243E-014
   96.9950000000000         2.161893897274213E-014
   97.1850000000000         2.966638761474738E-014
   97.3750000000000         3.512212346907204E-014
   97.5650000000000         4.108579779929832E-014
   97.7550000000000         4.627383882027443E-014
   97.9450000000000         5.127525378704169E-014
   98.1350000000000         5.612030743498287E-014
   98.3250000000000         6.004702215384777E-014
   98.5150000000000         6.265661295680221E-014
   98.7050000000000         6.392041747369101E-014
   98.8950000000000         6.407583928136602E-014
   99.0850000000000         6.340555400741699E-014
   99.2750000000000         6.170249485511353E-014
   99.4650000000000         5.784825702743408E-014
   99.6550000000000         5.313369750193375E-014
   99.8450000000000         4.793540764921265E-014
   100.035000000000         4.266249384348573E-014
   100.225000000000         3.782307283027943E-014
   100.415000000000         3.360709073708408E-014
   100.605000000000         3.010508088041310E-014
   100.795000000000         2.770151675138873E-014
   100.985000000000         2.612884015687582E-014
   101.175000000000         2.622710710156452E-014
   101.365000000000         2.556436007424691E-014
   101.555000000000         2.552346872888537E-014
   101.745000000000         2.492195279725879E-014
   101.935000000000         2.373761918402377E-014
   102.125000000000         2.258799932727663E-014
   102.315000000000         2.238426636025754E-014
   102.505000000000         2.303069486771672E-014
   102.695000000000         2.431450288500061E-014
   102.885000000000         2.550782531749296E-014
   103.075000000000         2.653414936792067E-014
   103.265000000000         2.738288024327005E-014
   103.455000000000         2.762466783855610E-014
   103.645000000000         2.738598164283712E-014
   103.835000000000         2.674892812493033E-014
   104.025000000000         2.585726575805071E-014
   104.215000000000         2.514284769589704E-014
   104.405000000000         2.458569070940009E-014
   104.595000000000         2.408237314722838E-014
   104.785000000000         2.337910818164850E-014
   104.975000000000         2.185338053188736E-014
   105.165000000000         1.937980155373475E-014
   105.355000000000         1.648850010074844E-014
   105.545000000000         1.344794871707371E-014
   105.735000000000         1.054753625543238E-014
   105.925000000000         8.358107023168788E-015
   106.115000000000         7.122113969738259E-015
   106.305000000000         6.353747595711508E-015
   106.495000000000         6.507937193916699E-015
   106.685000000000         7.016044240045520E-015
   106.875000000000         7.674358063168050E-015
   107.065000000000         8.692722908761892E-015
   107.255000000000         9.972065473403794E-015
   107.445000000000         1.149021791366088E-014
   107.635000000000         1.330807541061439E-014
   107.825000000000         1.526591373760774E-014
   108.015000000000         1.725330035064217E-014
   108.205000000000         1.974383801324662E-014
   108.395000000000         2.395778249618096E-014
   108.585000000000         3.021145273699004E-014
   108.775000000000         3.666849988288642E-014
   108.965000000000         4.379240718731347E-014
   109.155000000000         4.584388908820103E-014
   109.345000000000         5.091031151362445E-014
   109.535000000000         5.182651929146835E-014
   109.725000000000         5.274268603590536E-014
   109.915000000000         5.358672873082936E-014
   110.105000000000         5.500541223367483E-014