  -1.42500000000000        -4.829567021601657E-019
  -1.23500000000000         4.328136363097031E-018
  -1.04500000000000         5.438794775333559E-017
 -0.855000000000000         2.266595850274889E-016
 -0.665000000000000         8.526479377215864E-016
 -0.475000000000000         2.627345335419748E-015
 -0.285000000000000         6.418012326939807E-015
 -9.499999999999975E-002    1.574323334317490E-014
  9.500000000000020E-002    2.822704459355791E-014
  0.285000000000000         5.373486967458490E-014
  0.475000000000000         8.495434967460099E-014
  0.665000000000000         1.118090124408301E-013
  0.855000000000000         1.494204204562408E-013
   1.04500000000000         2.003796447350600E-013
   1.23500000000000         3.022088262302230E-013
   1.42500000000000         3.456082830007906E-013
   1.61500000000000         4.208963313297545E-013
   1.80500000000000         4.724781982082642E-013
   1.99500000000000         5.123666186345822E-013
   2.18500000000000         5.806322829348159E-013
   2.37500000000000         6.388465260033912E-013
   2.56500000000000         6.763827432915558E-013
   2.75500000000000         7.171164595352870E-013
   2.94500000000000         7.700506974161714E-013
   3.13500000000000         8.172122345024552E-013
   3.32500000000000         8.307759830019528E-013
   3.51500000000000         8.475218715066065E-013
   3.70500000000000         8.546001980512700E-013
   3.89500000000000         8.609285204639536E-013
   4.08500000000000         8.648261031601341E-013
   4.27500000000000         8.663696140128421E-013
   4.46500000000000         8.611797803631633E-013
   4.65500000000000         8.412551904341821E-013
   4.84500000000000         8.134264460932317E-013
   5.03500000000000         7.860690059366833E-013
   5.22500000000000         7.834255253609380E-013
   5.41500000000000         7.540224295355387E-013
   5.60500000000000         7.139096713190644E-013
   5.79500000000000         6.684624683966886E-013
   5.98500000000000         5.825698446398608E-013
   6.17500000000000         4.887625695439191E-013
   6.36500000000000         3.901345362838552E-013
   6.55500000000000         3.512876032472447E-013
   6.74500000000000         3.209584620489234E-013
   6.93500000000000         2.769325696775053E-013
   7.12500000000000         2.446389482644833E-013
   7.31500000000000         2.388345066103232E-013
   7.50500000000000         2.585489542473243E-013
   7.69500000000000         2.662961184520720E-013
   7.88500000000000         2.897390059023722E-013
   8.07500000000000         3.202642094242838E-013
   8.26500000000000         3.376408474284462E-013
   8.45500000000000         3.450986101896478E-013
   8.64500000000000         3.745794743548290E-013
   8.83500000000000         4.056499025463950E-013
   9.02500000000000         5.070730146197956E-013
   9.21500000000000         5.269310349956758E-013
   9.40500000000000         4.849729620943784E-013
   9.59500000000000         5.069566650381153E-013
   9.78500000000000         5.379740901900758E-013
   9.97500000000000         5.633921456098867E-013
   10.1650000000000         5.697594811420892E-013
   10.3550000000000         5.778344012476818E-013
   10.5450000000000         5.811994334383086E-013
   10.7350000000000         5.870628361903923E-013
   10.9250000000000         5.943652368351344E-013
   11.1150000000000         6.010550131090276E-013
   11.3050000000000         6.064608586081751E-013
   11.4950000000000         6.134986629299424E-013
   11.6850000000000         6.208715364257137E-013
   11.8750000000000         6.303651954952168E-013
   12.0650000000000         6.429924774957722E-013
   12.2550000000000         6.548766762910106E-013
   12.4450000000000         6.616804673076501E-013
   12.6350000000000         6.554648422583679E-013
   12.8250000000000         6.431382409290078E-013
   13.0150000000000         6.034799766020291E-013
   13.2050000000000         5.695757427351778E-013
   13.3950000000000         5.224392014708973E-013
   13.5850000000000         4.537878135172591E-013
   13.7750000000000         3.889709505847635E-013
   13.9650000000000         3.331712043568239E-013
   14.1550000000000         2.875226317349280E-013
   14.3450000000000         2.569822100193490E-013
   14.5350000000000         2.399857745177066E-013
   14.7250000000000         2.331816483377413E-013
   14.9150000000000         2.410137374548358E-013
   15.1050000000000         2.745393347276372E-013
   15.2950000000000         3.367351234980750E-013
   15.4850000000000         4.110677233503874E-013
   15.6750000000000         4.429106546999505E-013
   15.8650000000000         4.911949523838595E-013
   16.0550000000000         5.399411640174754E-013
   16.2450000000000         5.738280168032528E-013
   16.4350000000000         5.787784786779736E-013
   16.6250000000000         6.094205061937225E-013
   16.8150000000000         6.513255355744328E-013
   17.0050000000000         6.764289703963651E-013
   17.1950000000000         7.035645946141826E-013
   17.3850000000000         7.246615695746735E-013
   17.5750000000000         7.513811443130534E-013
   17.7650000000000         7.670330614374600E-013
   17.9550000000000         7.857049206202136E-013
   18.1450000000000         7.986593572209493E-013
   18.3350000000000         8.066348587617881E-013
   18.5250000000000         8.097706349608613E-013
   18.7150000000000         8.054599797342588E-013
   18.9050000000000         7.787305028596618E-013
   19.0950000000000         7.461111031320575E-013
   19.2850000000000         7.075842179388284E-013
   19.4750000000000         6.632717223244689E-013
   19.6650000000000         6.088022623523185E-013
   19.8550000000000         5.407692832028808E-013
   20.0450000000000         4.490100453108739E-013
   20.2350000000000         3.911795161390337E-013
   20.4250000000000         3.403556350560837E-013
   20.6150000000000         2.824299001841127E-013
   20.8050000000000         2.418118429886264E-013
   20.9950000000000         2.089223291684601E-013
   21.1850000000000         1.764512690543760E-013
   21.3750000000000         1.437089655578763E-013
   21.5650000000000         1.267755466912485E-013
   21.7550000000000         1.216224949819884E-013
   21.9450000000000         1.062053614905722E-013
   22.1350000000000         1.012451720374572E-013
   22.3250000000000         1.403972203328553E-013
   22.5150000000000         1.894354614100199E-013
   22.7050000000000         2.327823016684935E-013
   22.8950000000000         2.838324345676844E-013
   23.0850000000000         3.598846432232928E-013
   23.2750000000000         4.166229999992820E-013
   23.4650000000000         4.456280828985174E-013
   23.6550000000000         5.406006394788532E-013
   23.8450000000000         6.297744502018799E-013
   24.0350000000000         7.008420812177435E-013
   24.2250000000000         7.693648991430829E-013
   24.4150000000000         8.249037407231970E-013
   24.6050000000000         8.995459151103709E-013
   24.7950000000000         9.058978898658784E-013
   24.9850000000000         9.352270260005139E-013
   25.1750000000000         9.274152656955084E-013
   25.3650000000000         9.265901169421603E-013
   25.5550000000000         9.239812716401551E-013
   25.7450000000000         8.861012502020183E-013
   25.9350000000000         8.796316928657264E-013
   26.1250000000000         8.554221911121609E-013
   26.3150000000000         8.256851170876933E-013
   26.5050000000000         7.977749398515474E-013
   26.6950000000000         7.703229009244595E-013
   26.8850000000000         7.399253180541444E-013
   27.0750000000000         7.036178466304259E-013
   27.2650000000000         6.738454395468915E-013
   27.4550000000000         6.460381553014150E-013
   27.6450000000000         6.105120026812585E-013
   27.8350000000000         5.755914370078688E-013
   28.0250000000000         5.246419345472309E-013
   28.2150000000000         4.826787632465139E-013
   28.4050000000000         4.205915371385037E-013
   28.5950000000000         2.882308867958077E-013
   28.7850000000000         2.158303108187525E-013
   28.9750000000000         1.687361738144857E-013
   29.1650000000000         1.060221705060873E-013
   29.3550000000000         6.251593229087039E-014
   29.5450000000000         1.915438602585678E-016
   29.7350000000000        -3.107586123538984E-014
   29.9250000000000        -5.408999180253721E-014
   30.1150000000000        -6.863309032684159E-014
   30.3050000000000        -6.835352873474518E-014
   30.4950000000000        -2.138998346783043E-014
   30.6850000000000        -1.974902615927391E-014
   30.8750000000000         7.182497781120047E-014
   31.0650000000000         1.404469926591040E-013
   31.2550000000000         2.584612548054246E-013
   31.4450000000000         3.267934259675406E-013
   31.6350000000000         4.971464696685436E-013
   31.8250000000000         5.416391445854911E-013
   32.0150000000000         6.368638946342535E-013
   32.2050000000000         7.334057718369898E-013
   32.3950000000000         8.806014336710247E-013
   32.5850000000000         9.817741931275619E-013
   32.7750000000000         9.608363303228296E-013
   32.9650000000000         9.786773568625239E-013
   33.1550000000000         1.020793373924646E-012
   33.3450000000000         1.037132825314053E-012
   33.5350000000000         1.052722366591347E-012
   33.7250000000000         1.046076186613341E-012
   33.9150000000000         1.021079942135332E-012
   34.1050000000000         9.735626325711171E-013
   34.2950000000000         9.277851580971281E-013
   34.4850000000000         8.747341336882173E-013
   34.6750000000000         8.120386972775435E-013
   34.8650000000000         7.480815413704009E-013
   35.0550000000000         6.834895155952587E-013
   35.2450000000000         5.664274888656865E-013
   35.4350000000000         5.096745362512403E-013
   35.6250000000000         4.660660894732444E-013
   35.8150000000000         4.240185025402370E-013
   36.0050000000000         4.155104716994839E-013
   36.1950000000000         3.978869599371305E-013
   36.3850000000000         3.592426852793596E-013
   36.5750000000000         3.479884368120426E-013
   36.7650000000000         3.319680975606660E-013
   36.9550000000000         3.173550532778949E-013
   37.1450000000000         2.873823904075884E-013
   37.3350000000000         2.638889196572536E-013
   37.5250000000000         2.444945648237519E-013
   37.7150000000000         2.314378031094095E-013
   37.9050000000000         2.270103813692126E-013
   38.0950000000000         2.311988838144412E-013
   38.2850000000000         2.491411332993528E-013
   38.4750000000000         3.714275261847220E-013
   38.6650000000000         4.047030689741805E-013
   38.8550000000000         4.385914587800803E-013
   39.0450000000000         5.163984137560028E-013
   39.2350000000000         5.980587745935479E-013
   39.4250000000000         6.940602266375305E-013
   39.6150000000000         7.546269683326083E-013
   39.8050000000000         8.222061231560070E-013
   39.9950000000000         8.522775735819994E-013
   40.1850000000000         8.644009477252329E-013
   40.3750000000000         8.853232894519509E-013
   40.5650000000000         8.928957673087979E-013
   40.7550000000000         8.870383132400548E-013
   40.9450000000000         8.723355791433994E-013
   41.1350000000000         8.154974253612846E-013
   41.3250000000000         7.469661412393421E-013
   41.5150000000000         7.136346795590470E-013
   41.7050000000000         6.846428214254475E-013
   41.8950000000000         6.227161985409541E-013
   42.0850000000000         6.056459106436213E-013
   42.2750000000000         5.862192558315579E-013
   42.4650000000000         5.611659483863611E-013
   42.6550000000000         5.272815237177852E-013
   42.8450000000000         4.965912082309688E-013
   43.0350000000000         4.584043862360912E-013
   43.2250000000000         4.389491641501155E-013
   43.4150000000000         3.799064788044145E-013
   43.6050000000000         3.634623642201401E-013
   43.7950000000000         3.471910967742940E-013
   43.9850000000000         3.244054314703358E-013
   44.1750000000000         2.997287989274854E-013
   44.3650000000000         2.779587696084309E-013
   44.5550000000000         2.883810729236840E-013
   44.7450000000000         3.618079485166256E-013
   44.9350000000000         4.208561200320949E-013
   45.1250000000000         4.817085066467414E-013
   45.3150000000000         5.549776122160074E-013
   45.5050000000000         6.078320144418977E-013
   45.6950000000000         6.490728980787206E-013
   45.8850000000000         7.421944723075111E-013
   46.0750000000000         7.468749957038490E-013
   46.2650000000000         7.702073829018922E-013
   46.4550000000000         8.027576306020858E-013
   46.6450000000000         8.210567489413028E-013
   46.8350000000000         8.031131555469337E-013
   47.0250000000000         7.721012353498602E-013
   47.2150000000000         7.389548982476237E-013
   47.4050000000000         7.106381780103259E-013
   47.5950000000000         6.880729423020714E-013
   47.7850000000000         6.316167387851323E-013
   47.9750000000000         5.386509017938846E-013
   48.1650000000000         4.618842551998490E-013
   48.3550000000000         4.018957438675852E-013
   48.5450000000000         4.095228145252283E-013
   48.7350000000000         4.039650950213833E-013
   48.9250000000000         3.518740000630407E-013
   49.1150000000000         3.148543385029222E-013
   49.3050000000000         2.664245817190786E-013
   49.4950000000000         2.233666829140059E-013
   49.6850000000000         2.222801995897075E-013
   49.8750000000000         2.574865857714349E-013
   50.0650000000000         2.268484914705455E-013
   50.2550000000000         2.206448251230740E-013
   50.4450000000000         2.140138134829504E-013
   50.6350000000000         2.295357709572453E-013
   50.8250000000000         2.622767871114083E-013
   51.0150000000000         2.479878905901252E-013
   51.2050000000000         2.432817558267406E-013
   51.3950000000000         2.749828032637434E-013
   51.5850000000000         3.641328754638046E-013
   51.7750000000000         3.976507465298483E-013
   51.9650000000000         4.035747025120364E-013
   52.1550000000000         3.994870815654426E-013
   52.3450000000000         4.984763949398024E-013
   52.5350000000000         5.853113504963079E-013
   52.7250000000000         6.897945883813197E-013
   52.9150000000000         7.173883946225031E-013
   53.1050000000000         7.802303646465987E-013
   53.2950000000000         7.830243891092136E-013
   53.4850000000000         8.654286414165845E-013
   53.6750000000000         9.472398653405578E-013
   53.8650000000000         9.830769377326776E-013
   54.0550000000000         1.025236911156249E-012
   54.2450000000000         1.067718550483324E-012
   54.4350000000000         1.107459985607955E-012
   54.6250000000000         1.143779837306667E-012
   54.8150000000000         1.146909633839076E-012
   55.0050000000000         1.147694041977445E-012
   55.1950000000000         1.145907715143488E-012
   55.3850000000000         1.132083191817048E-012
   55.5750000000000         1.124958347373088E-012
   55.7650000000000         1.082532675778698E-012
   55.9550000000000         1.025463443624503E-012
   56.1450000000000         8.556217551328113E-013
   56.3350000000000         7.286583833888729E-013
   56.5250000000000         5.724331524010390E-013
   56.7150000000000         4.703202436689842E-013
   56.9050000000000         3.826375949561135E-013
   57.0950000000000         2.887186871552451E-013
   57.2850000000000         2.529365693310138E-013
   57.4750000000000         1.924738143448352E-013
   57.6650000000000         1.590713744368851E-013
   57.8550000000000         1.554787320786108E-013
   58.0450000000000         1.039832536763289E-013
   58.2350000000000         7.626506118209541E-014
   58.4250000000000         5.504857842590950E-014
   58.6150000000000         4.127201667813468E-014
   58.8050000000000         3.646028564017345E-014
   58.9950000000000         3.895330684903117E-014
   59.1850000000000         4.614077988675631E-014
   59.3750000000000         5.129231157448569E-014
   59.5650000000000         5.305458078649921E-014
   59.7550000000000         5.567717970865051E-014
   59.9450000000000         6.497396234332248E-014
   60.1350000000000         8.735209750772317E-014
   60.3250000000000         1.236654558799492E-013
   60.5150000000000         1.714995498398511E-013
   60.7050000000000         2.343465705795250E-013
   60.8950000000000         3.540012219723058E-013
   61.0850000000000         4.157546567367299E-013
   61.2750000000000         4.811226322037745E-013
   61.4650000000000         6.260914463855816E-013
   61.6550000000000         6.701190590503459E-013
   61.8450000000000         7.173880262476656E-013
   62.0350000000000         8.257811054184098E-013
   62.2250000000000         8.408156703238674E-013
   62.4150000000000         8.810904160660083E-013
   62.6050000000000         8.668758036592502E-013
   62.7950000000000         9.091093861827132E-013
   62.9850000000000         9.107996483731255E-013
   63.1750000000000         9.196768986792601E-013
   63.3650000000000         9.174023630795065E-013
   63.5550000000000         9.124763945741729E-013
   63.7450000000000         8.917834576748246E-013
   63.9350000000000         8.514630168687570E-013
   64.1250000000000         7.813512935684949E-013
   64.3150000000000         7.244713838911596E-013
   64.5050000000000         6.714305452028832E-013
   64.6950000000000         5.993698285607383E-013
   64.8850000000000         6.055348462713882E-013
   65.0750000000000         5.260502308334653E-013
   65.2650000000000         4.608367156785580E-013
   65.4550000000000         4.053397343541079E-013
   65.6450000000000         3.582318770696374E-013
   65.8350000000000         3.073521831741378E-013
   66.0250000000000         2.734033158548673E-013
   66.2150000000000         2.282208062698568E-013
   66.4050000000000         1.890403161683795E-013
   66.5950000000000         1.726292261697240E-013
   66.7850000000000         1.537429457600472E-013
   66.9750000000000         1.493301100149505E-013
   67.1650000000000         1.570892147829126E-013
   67.3550000000000         1.739628339624744E-013
   67.5450000000000         1.964289682957150E-013
   67.7350000000000         2.227056747240320E-013
   67.9250000000000         2.494160049186090E-013
   68.1150000000000         2.895372136265898E-013
   68.3050000000000         3.807681736972056E-013
   68.4950000000000         4.835824691031111E-013
   68.6850000000000         5.588909457952828E-013
   68.8750000000000         6.224432271122355E-013
   69.0650000000000         6.751583583308839E-013
   69.2550000000000         7.255265239483100E-013
   69.4450000000000         7.650812801995900E-013
   69.6350000000000         7.801223098032556E-013
   69.8250000000000         8.008627345234665E-013
   70.0150000000000         8.163981276288668E-013
   70.2050000000000         8.196866929411461E-013
   70.3950000000000         8.204794827165981E-013
   70.5850000000000         8.219370406551897E-013
   70.7750000000000         8.004086968791899E-013
   70.9650000000000         8.015094202890496E-013
   71.1550000000000         7.971349248602552E-013
   71.3450000000000         8.012799828386959E-013
   71.5350000000000         7.977958729685974E-013
   71.7250000000000         8.113986344603099E-013
   71.9150000000000         8.077169097847905E-013
   72.1050000000000         8.144819152283096E-013
   72.2950000000000         8.097560148188722E-013
   72.4850000000000         7.949101786158233E-013
   72.6750000000000         7.797788731197908E-013
   72.8650000000000         7.661648357084080E-013
   73.0550000000000         7.552357945230026E-013
   73.2450000000000         7.452016729423468E-013
   73.4350000000000         7.267465269380166E-013
   73.6250000000000         6.921614717973163E-013
   73.8150000000000         6.799927285527383E-013
   74.0050000000000         6.684936685295956E-013
   74.1950000000000         6.513806059081261E-013
   74.3850000000000         6.596951141670864E-013
   74.5750000000000         6.490411744527461E-013
   74.7650000000000         6.294758612800454E-013
   74.9550000000000         5.927211038272820E-013
   75.1450000000000         5.770144794032072E-013
   75.3350000000000         5.938595684001347E-013
   75.5250000000000         5.775153346132825E-013
   75.7150000000000         5.713359909598437E-013
   75.9050000000000         5.634596832172974E-013
   76.0950000000000         5.466924206758859E-013
   76.2850000000000         5.463335283955700E-013
   76.4750000000000         5.600101374362405E-013
   76.6650000000000         5.827053538011742E-013
   76.8550000000000         5.942024176169144E-013
   77.0450000000000         5.963385536814242E-013
   77.2350000000000         5.816836723471743E-013
   77.4250000000000         5.258764064864188E-013
   77.6150000000000         4.634316636891622E-013
   77.8050000000000         4.277724023591680E-013
   77.9950000000000         4.012765655502504E-013
   78.1850000000000         3.657756861313773E-013
   78.3750000000000         3.116176309451293E-013
   78.5650000000000         2.821089211982497E-013
   78.7550000000000         2.624923094580832E-013
   78.9450000000000         2.562753667884654E-013
   79.1350000000000         2.394663696328556E-013
   79.3250000000000         2.198619609702503E-013
   79.5150000000000         1.986128194907283E-013
   79.7050000000000         1.803681002861093E-013
   79.8950000000000         1.957608311079500E-013
   80.0850000000000         2.624115328480544E-013
   80.2750000000000         3.068786495600304E-013
   80.4650000000000         3.366405570984511E-013
   80.6550000000000         3.874449488793833E-013
   80.8450000000000         4.393431730821163E-013
   81.0350000000000         5.002737420425892E-013
   81.2250000000000         5.884391192641377E-013
   81.4150000000000         6.720195343363689E-013
   81.6050000000000         7.496534892193992E-013
   81.7950000000000         7.547523716436926E-013
   81.9850000000000         7.766773262413115E-013
   82.1750000000000         8.378015017962298E-013
   82.3650000000000         8.856408868192612E-013
   82.5550000000000         9.448253275026570E-013
   82.7450000000000         9.564320261909987E-013
   82.9350000000000         9.333744459111027E-013
   83.1250000000000         9.272234551000058E-013
   83.3150000000000         9.216725164004406E-013
   83.5050000000000         9.342530378717296E-013
   83.6950000000000         9.555167448211350E-013
   83.8850000000000         9.575948193235972E-013
   84.0750000000000         9.520438616233086E-013
   84.2650000000000         9.515801484524852E-013
   84.4550000000000         9.561074103670653E-013
   84.6450000000000         9.668566402005317E-013
   84.8350000000000         9.787387877663021E-013
   85.0250000000000         9.775738326128096E-013
   85.2150000000000         9.521053785472209E-013
   85.4050000000000         9.211332826640960E-013
   85.5950000000000         8.551737072955809E-013
   85.7850000000000         7.799155289421422E-013
   85.9750000000000         7.118923924203145E-013
   86.1650000000000         6.392114374814270E-013
   86.3550000000000         5.583935124798478E-013
   86.5450000000000         4.627026150216393E-013
   86.7350000000000         3.692516724240327E-013
   86.9250000000000         2.876905564949947E-013
   87.1150000000000         2.394766714947683E-013
   87.3050000000000         1.926096234668006E-013
   87.4950000000000         1.596482717724284E-013
   87.6850000000000         1.292715824966454E-013
   87.8750000000000         1.247879517917764E-013
   88.0650000000000         9.619631708671434E-014
   88.2550000000000         9.602322871745261E-014
   88.4450000000000         1.017949875391679E-013
   88.6350000000000         1.042940117253155E-013
   88.8250000000000         1.128258546708111E-013
   89.0150000000000         1.481714172114012E-013
   89.2050000000000         1.959872748268079E-013
   89.3950000000000         3.374022121033196E-013
   89.5850000000000         4.443598593986737E-013
   89.7750000000000         5.235021410030462E-013
   89.9650000000000         5.734752927442896E-013
   90.1550000000000         6.478256166045638E-013
   90.3450000000000         7.050350237656914E-013
   90.5350000000000         7.814251364175519E-013
   90.7250000000000         8.352004710933445E-013
   90.9150000000000         8.984076967042837E-013
   91.1050000000000         9.516003838639337E-013
   91.2950000000000         9.946901843525984E-013
   91.4850000000000         1.047409794672107E-012
   91.6750000000000         1.104034073295747E-012
   91.8650000000000         1.116457375089081E-012
   92.0550000000000         1.125939569927839E-012
   92.2450000000000         1.110769690284665E-012
   92.4350000000000         1.104531074004602E-012
   92.6250000000000         1.087888681225419E-012
   92.8150000000000         1.067228277383897E-012
   93.0050000000000         1.038368901222040E-012
   93.1950000000000         9.893933116621765E-013
   93.3850000000000         8.473893057146420E-013
   93.5750000000000         6.972607375324295E-013
   93.7650000000000         6.376887510329944E-013
   93.9550000000000         6.088838282351900E-013
   94.1450000000000         5.423675137227744E-013
   94.3350000000000         4.378638982950421E-013
   94.5250000000000         4.022819407609656E-013
   94.7150000000000         3.296156256677071E-013
   94.9050000000000         2.960184753503678E-013
   95.0950000000000         3.149870488000202E-013
   95.2850000000000         2.958798326918042E-013
   95.4750000000000         2.799499404750373E-013
   95.6650000000000         2.278324637494397E-013
   95.8550000000000         2.044563037307436E-013
   96.0450000000000         1.902830488787414E-013
   96.2350000000000         1.631873316080081E-013
   96.4250000000000         1.483032998959756E-013
   96.6150000000000         1.361306157327136E-013
   96.8050000000000         1.167336706466773E-013
   96.9950000000000         1.056859943673556E-013
   97.1850000000000         1.069478982597408E-013
   97.3750000000000         1.360163038171031E-013
   97.5650000000000         1.776780516702269E-013
   97.7550000000000         2.258821848907375E-013
   97.9450000000000         2.801342202961263E-013
   98.1350000000000         3.561389955473374E-013
   98.3250000000000         4.600934725209499E-013
   98.5150000000000         5.604763269182436E-013
   98.7050000000000         6.513491350600949E-013
   98.8950000000000         7.148292797256108E-013
   99.0850000000000         7.557637248764856E-013
   99.2750000000000         8.338402231534283E-013
   99.4650000000000         8.703158567329886E-013
   99.6550000000000         8.587660227148416E-013
   99.8450000000000         8.577748222378233E-013
   100.035000000000         8.676722552134673E-013
   100.225000000000         8.436899236118961E-013
   100.415000000000         8.155419951620124E-013
   100.605000000000         7.761580483149661E-013
   100.795000000000         7.636612339209191E-013
   100.985000000000         7.508127640598400E-013
   101.175000000000         7.602762347792959E-013
   101.365000000000         7.466707869321145E-013
   101.555000000000         7.308413417129206E-013
   101.745000000000         7.142398288323297E-013
   101.935000000000         6.872305293013221E-013
   102.125000000000         7.057091692248851E-013
   102.315000000000         7.636016500198486E-013
   102.505000000000         7.425615582048968E-013
   102.695000000000         7.297598696658579E-013
   102.885000000000         7.128658610630448E-013
   103.075000000000         6.814507985195714E-013
   103.265000000000         6.913012635873813E-013
   103.455000000000         6.616654569047589E-013
   103.645000000000         6.084882436354551E-013
   103.835000000000         6.014938627810734E-013
   104.025000000000         5.987709773307167E-013
   104.215000000000         5.945997528048847E-013
   104.405000000000         6.137322869185038E-013
   104.595000000000         6.251339648913185E-013
   104.785000000000         6.344712268272063E-013
   104.975000000000         6.281972699141418E-013
   105.165000000000         6.044286685493799E-013
   105.355000000000         5.747552502063693E-013
   105.545000000000         5.545579834004164E-013
   105.735000000000         5.488736046383142E-013
   105.925000000000         5.457380358292840E-013
   106.115000000000         5.356992870149378E-013
   106.305000000000         5.129018639427342E-013
   106.495000000000         4.944775359283693E-013
   106.685000000000         4.825569275890581E-013
   106.875000000000         4.850409706985989E-013
   107.065000000000         4.917986233042896E-013
   107.255000000000         4.907761868353477E-013
   107.445000000000         4.860255761634903E-013
   107.635000000000         4.757981187894596E-013
   107.825000000000         4.696533782476342E-013
   108.015000000000         4.692538707109995E-013
   108.205000000000         4.692385822846152E-013
   108.395000000000         4.697644611798483E-013
   108.585000000000         4.718368161591854E-013
   108.775000000000         4.737122782804197E-013
   108.965000000000         4.830325422661391E-013
   109.155000000000         4.945731135440727E-013
   109.345000000000         5.145148294076141E-013
   109.535000000000         5.273360530673961E-013
   109.725000000000         5.266641119401333E-013
   109.915000000000         5.169796573764162E-013
   110.105000000000         5.175871991663590E-013