  -1.42500000000000         0.000000000000000E+000
  -1.23500000000000         3.695734280255179E-011
  -1.04500000000000         2.687869371496446E-010
 -0.855000000000000         1.328805115832495E-009
 -0.665000000000000         5.184398042290981E-009
 -0.475000000000000         1.687417317285937E-008
 -0.285000000000000         4.673764686817518E-008
 -9.499999999999975E-002    1.112442495182124E-007
  9.500000000000020E-002    2.262021556647754E-007
  0.285000000000000         4.120320912164661E-007
  0.475000000000000         6.655712664043221E-007
  0.665000000000000         9.947865146834611E-007
  0.855000000000000         1.391929025781148E-006
   1.04500000000000         1.862802299083845E-006
   1.23500000000000         2.346850954980177E-006
   1.42500000000000         2.619137161105559E-006
   1.61500000000000         3.032729125243974E-006
   1.80500000000000         3.527841171878173E-006
   1.99500000000000         4.033373739839951E-006
   2.18500000000000         4.574065709434107E-006
   2.37500000000000         5.119880442850305E-006
   2.56500000000000         5.624847245000965E-006
   2.75500000000000         6.088742380926964E-006
   2.94500000000000         6.500354078034349E-006
   3.13500000000000         6.786722163185519E-006
   3.32500000000000         6.881638304317689E-006
   3.51500000000000         7.088867091100505E-006
   3.70500000000000         7.165318352042896E-006
   3.89500000000000         7.247692035369463E-006
   4.08500000000000         7.309888933943598E-006
   4.27500000000000         7.368200017152964E-006
   4.46500000000000         7.437193234038935E-006
   4.65500000000000         7.494317538063501E-006
   4.84500000000000         7.518490068746416E-006
   5.03500000000000         7.499301259187332E-006
   5.22500000000000         7.488905573519525E-006
   5.41500000000000         7.410698036965219E-006
   5.60500000000000         7.236752639963905E-006
   5.79500000000000         6.969504119101708E-006
   5.98500000000000         6.585826295035250E-006
   6.17500000000000         6.108061635204028E-006
   6.36500000000000         5.529944016231407E-006
   6.55500000000000         5.060874058521546E-006
   6.74500000000000         4.656228790006749E-006
   6.93500000000000         4.236831452328440E-006
   7.12500000000000         3.754975188031905E-006
   7.31500000000000         3.452773248396049E-006
   7.50500000000000         3.300007509256964E-006
   7.69500000000000         3.286371028649873E-006
   7.88500000000000         3.386977762566970E-006
   8.07500000000000         3.587424058522627E-006
   8.26500000000000         3.752437583617129E-006
   8.45500000000000         3.964879473020628E-006
   8.64500000000000         4.245795394475365E-006
   8.83500000000000         4.540037356414516E-006
   9.02500000000000         5.034818443102641E-006
   9.21500000000000         5.580242248361051E-006
   9.40500000000000         5.923794392030149E-006
   9.59500000000000         6.029568648520612E-006
   9.78500000000000         6.013042593154256E-006
   9.97500000000000         5.942213812962081E-006
   10.1650000000000         5.844877952792530E-006
   10.3550000000000         5.786878812090162E-006
   10.5450000000000         5.730158768866250E-006
   10.7350000000000         5.711240450769139E-006
   10.9250000000000         5.699921048902426E-006
   11.1150000000000         5.681693800468787E-006
   11.3050000000000         5.653354803618038E-006
   11.4950000000000         5.622780206872250E-006
   11.6850000000000         5.603613419402097E-006
   11.8750000000000         5.609452940599572E-006
   12.0650000000000         5.641865066316922E-006
   12.2550000000000         5.691123483454820E-006
   12.4450000000000         5.758737915249902E-006
   12.6350000000000         5.774621342857187E-006
   12.8250000000000         5.819797401366170E-006
   13.0150000000000         5.806623741594614E-006
   13.2050000000000         5.759733357585888E-006
   13.3950000000000         5.618776386426248E-006
   13.5850000000000         5.346351388033064E-006
   13.7750000000000         5.001922926953849E-006
   13.9650000000000         4.659769518592674E-006
   14.1550000000000         4.578631183276930E-006
   14.3450000000000         4.304943796395396E-006
   14.5350000000000         4.224581964389040E-006
   14.7250000000000         4.086624449429273E-006
   14.9150000000000         3.916574984390302E-006
   15.1050000000000         3.822166554334845E-006
   15.2950000000000         3.896836193569963E-006
   15.4850000000000         4.137562429707328E-006
   15.6750000000000         4.412372006609457E-006
   15.8650000000000         4.747298779468993E-006
   16.0550000000000         5.159298608055357E-006
   16.2450000000000         5.536261055193934E-006
   16.4350000000000         5.853831133232282E-006
   16.6250000000000         6.126472597096578E-006
   16.8150000000000         6.378578242253953E-006
   17.0050000000000         6.431212268101662E-006
   17.1950000000000         6.617156444641535E-006
   17.3850000000000         6.667127364022596E-006
   17.5750000000000         6.829927506439221E-006
   17.7650000000000         6.877362735409869E-006
   17.9550000000000         6.942760646195416E-006
   18.1450000000000         6.992075470701091E-006
   18.3350000000000         7.039177902443177E-006
   18.5250000000000         7.094426242672149E-006
   18.7150000000000         7.190196794752125E-006
   18.9050000000000         7.279427523569683E-006
   19.0950000000000         7.325600920957908E-006
   19.2850000000000         7.305195687111970E-006
   19.4750000000000         7.187197586627072E-006
   19.6650000000000         6.958206081205110E-006
   19.8550000000000         6.599499250457728E-006
   20.0450000000000         6.148005998724934E-006
   20.2350000000000         5.679321827644819E-006
   20.4250000000000         5.211710629219259E-006
   20.6150000000000         4.704933912262262E-006
   20.8050000000000         4.211124428219755E-006
   20.9950000000000         3.766343871586658E-006
   21.1850000000000         3.657562851167141E-006
   21.3750000000000         3.234914144031980E-006
   21.5650000000000         3.160274657638960E-006
   21.7550000000000         3.015161078418316E-006
   21.9450000000000         2.815803728761609E-006
   22.1350000000000         2.632469298030066E-006
   22.3250000000000         2.530453748631639E-006
   22.5150000000000         2.635436035457991E-006
   22.7050000000000         2.886466543011856E-006
   22.8950000000000         3.243274876909649E-006
   23.0850000000000         3.655151706414832E-006
   23.2750000000000         4.074141855313560E-006
   23.4650000000000         4.437538632710860E-006
   23.6550000000000         4.937905957207047E-006
   23.8450000000000         5.522433685537082E-006
   24.0350000000000         6.100128907013813E-006
   24.2250000000000         6.700885660962205E-006
   24.4150000000000         7.292729035783484E-006
   24.6050000000000         7.982922512601022E-006
   24.7950000000000         8.344842853786063E-006
   24.9850000000000         8.750916021869110E-006
   25.1750000000000         8.946678683314874E-006
   25.3650000000000         9.111685197852663E-006
   25.5550000000000         9.152173378087643E-006
   25.7450000000000         9.124665013392491E-006
   25.9350000000000         8.998110784198715E-006
   26.1250000000000         8.850767291270200E-006
   26.3150000000000         8.706801568073392E-006
   26.5050000000000         8.535889967267381E-006
   26.6950000000000         8.360290313828796E-006
   26.8850000000000         8.162552169100161E-006
   27.0750000000000         7.895926457162479E-006
   27.2650000000000         7.560867167075925E-006
   27.4550000000000         7.244567650948361E-006
   27.6450000000000         6.947951376254680E-006
   27.8350000000000         6.886516766709585E-006
   28.0250000000000         6.565326319223984E-006
   28.2150000000000         6.310170711883415E-006
   28.4050000000000         5.980441302140473E-006
   28.5950000000000         5.373463229772312E-006
   28.7850000000000         4.671163316309661E-006
   28.9750000000000         3.891373259443126E-006
   29.1650000000000         3.095276117921806E-006
   29.3550000000000         2.275556711290320E-006
   29.5450000000000         1.519260702436911E-006
   29.7350000000000         8.938261262559238E-007
   29.9250000000000         3.562654299162646E-007
   30.1150000000000        -3.468243195124248E-008
   30.3050000000000        -2.796371004025733E-007
   30.4950000000000        -3.912178361997898E-007
   30.6850000000000        -4.162233666777188E-007
   30.8750000000000        -3.423037803252903E-007
   31.0650000000000         1.372731464430843E-007
   31.2550000000000         9.602653675151614E-007
   31.4450000000000         1.905043630079223E-006
   31.6350000000000         2.968250566781802E-006
   31.8250000000000         3.976609428988992E-006
   32.0150000000000         4.909009821554748E-006
   32.2050000000000         5.787007853381046E-006
   32.3950000000000         6.573119385251288E-006
   32.5850000000000         7.171974116862204E-006
   32.7750000000000         7.555129602236588E-006
   32.9650000000000         7.884980533812186E-006
   33.1550000000000         8.036186919375625E-006
   33.3450000000000         8.228622481578339E-006
   33.5350000000000         8.469862019494730E-006
   33.7250000000000         8.726447781925802E-006
   33.9150000000000         8.939941761750034E-006
   34.1050000000000         9.005592947408388E-006
   34.2950000000000         8.899612132535687E-006
   34.4850000000000         8.732174150002972E-006
   34.6750000000000         8.497853968811044E-006
   34.8650000000000         8.179608880475570E-006
   35.0550000000000         7.787389021760225E-006
   35.2450000000000         7.251237502699510E-006
   35.4350000000000         6.682757583285463E-006
   35.6250000000000         6.205740992532255E-006
   35.8150000000000         5.805099546880579E-006
   36.0050000000000         5.522801221735991E-006
   36.1950000000000         5.273056833768351E-006
   36.3850000000000         5.207020957075107E-006
   36.5750000000000         5.063263556795318E-006
   36.7650000000000         5.004197666379454E-006
   36.9550000000000         4.870269677660523E-006
   37.1450000000000         4.719479497554217E-006
   37.3350000000000         4.572491142687056E-006
   37.5250000000000         4.435979763433734E-006
   37.7150000000000         4.303211748488363E-006
   37.9050000000000         4.186093670397947E-006
   38.0950000000000         4.116270752779909E-006
   38.2850000000000         4.051124582891102E-006
   38.4750000000000         4.235114756930240E-006
   38.6650000000000         4.823610866295895E-006
   38.8550000000000         5.546359298026926E-006
   39.0450000000000         6.290315081679755E-006
   39.2350000000000         7.061637116174553E-006
   39.4250000000000         7.783069586511978E-006
   39.6150000000000         8.406856706141384E-006
   39.8050000000000         8.935981049535305E-006
   39.9950000000000         9.189413190260388E-006
   40.1850000000000         9.434645689869815E-006
   40.3750000000000         9.478463934039621E-006
   40.5650000000000         9.549599449814671E-006
   40.7550000000000         9.651943461320953E-006
   40.9450000000000         9.749020923654325E-006
   41.1350000000000         9.713132119959721E-006
   41.3250000000000         9.407449500743508E-006
   41.5150000000000         8.958444091253046E-006
   41.7050000000000         8.484602771660790E-006
   41.8950000000000         7.963823495123193E-006
   42.0850000000000         7.460280402956621E-006
   42.2750000000000         6.985545864783892E-006
   42.4650000000000         6.527010955850133E-006
   42.6550000000000         6.120490283254071E-006
   42.8450000000000         5.726721659814794E-006
   43.0350000000000         5.395955735421590E-006
   43.2250000000000         5.168133672764102E-006
   43.4150000000000         4.864556289843057E-006
   43.6050000000000         4.762938255973017E-006
   43.7950000000000         4.641481011025924E-006
   43.9850000000000         4.536002243940975E-006
   44.1750000000000         4.393888581066908E-006
   44.3650000000000         4.187364937225000E-006
   44.5550000000000         3.942148339177126E-006
   44.7450000000000         3.862562391737506E-006
   44.9350000000000         4.153701789779981E-006
   45.1250000000000         4.780821558058829E-006
   45.3150000000000         5.522538307570812E-006
   45.5050000000000         6.296001819076243E-006
   45.6950000000000         6.979449302811801E-006
   45.8850000000000         7.543397866676334E-006
   46.0750000000000         7.759358373294400E-006
   46.2650000000000         7.970725685460902E-006
   46.4550000000000         8.118719771889001E-006
   46.6450000000000         8.345609153729952E-006
   46.8350000000000         8.592018616843071E-006
   47.0250000000000         8.588348901756182E-006
   47.2150000000000         8.233401009074277E-006
   47.4050000000000         7.684860607842651E-006
   47.5950000000000         7.061875639399176E-006
   47.7850000000000         6.412114292072492E-006
   47.9750000000000         5.769244609914187E-006
   48.1650000000000         5.224624379342292E-006
   48.3550000000000         4.719274802513914E-006
   48.5450000000000         4.381451007017810E-006
   48.7350000000000         4.044084386852613E-006
   48.9250000000000         3.816617893196781E-006
   49.1150000000000         3.632155912221924E-006
   49.3050000000000         3.291711079213055E-006
   49.4950000000000         2.851110307702837E-006
   49.6850000000000         2.557582477884440E-006
   49.8750000000000         2.455174375402170E-006
   50.0650000000000         2.532854740205884E-006
   50.2550000000000         2.692184529303174E-006
   50.4450000000000         2.894302770114383E-006
   50.6350000000000         3.014835896689276E-006
   50.8250000000000         3.209026680698692E-006
   51.0150000000000         3.256636946041311E-006
   51.2050000000000         3.331756600449407E-006
   51.3950000000000         3.502076122855511E-006
   51.5850000000000         3.867550682556590E-006
   51.7750000000000         4.394651327709453E-006
   51.9650000000000         4.822823109829773E-006
   52.1550000000000         5.108620544527288E-006
   52.3450000000000         5.337880618794703E-006
   52.5350000000000         5.583989043183209E-006
   52.7250000000000         5.823478940536505E-006
   52.9150000000000         5.967871278981998E-006
   53.1050000000000         6.234491255112715E-006
   53.2950000000000         6.498824899606107E-006
   53.4850000000000         6.857979354746431E-006
   53.6750000000000         7.477356908296263E-006
   53.8650000000000         8.031804072935265E-006
   54.0550000000000         8.527967927079988E-006
   54.2450000000000         8.983338787846522E-006
   54.4350000000000         9.403939521449652E-006
   54.6250000000000         9.762768647483425E-006
   54.8150000000000         1.006775214279984E-005
   55.0050000000000         1.030949657378527E-005
   55.1950000000000         1.045756676927426E-005
   55.3850000000000         1.058086381474354E-005
   55.5750000000000         1.062067862515527E-005
   55.7650000000000         1.063890225698364E-005
   55.9550000000000         1.059084949771650E-005
   56.1450000000000         1.033504019413492E-005
   56.3350000000000         9.672704050492419E-006
   56.5250000000000         8.895442132847010E-006
   56.7150000000000         8.077165429639118E-006
   56.9050000000000         7.216668499867865E-006
   57.0950000000000         6.432090281292813E-006
   57.2850000000000         5.902902214758561E-006
   57.4750000000000         5.288131082032129E-006
   57.6650000000000         4.629374053538912E-006
   57.8550000000000         4.096612628537753E-006
   58.0450000000000         3.799611428151276E-006
   58.2350000000000         3.531172226329727E-006
   58.4250000000000         3.224095001738817E-006
   58.6150000000000         2.991771754842839E-006
   58.8050000000000         2.815951980533095E-006
   58.9950000000000         2.648915688907347E-006
   59.1850000000000         2.547591710212359E-006
   59.3750000000000         2.481860058136805E-006
   59.5650000000000         2.439208900447818E-006
   59.7550000000000         2.395785168917914E-006
   59.9450000000000         2.354400314890909E-006
   60.1350000000000         2.313603135183961E-006
   60.3250000000000         2.293062815917892E-006
   60.5150000000000         2.327533396245431E-006
   60.7050000000000         2.445922626567046E-006
   60.8950000000000         2.745063179165206E-006
   61.0850000000000         3.111248328452939E-006
   61.2750000000000         3.541507181005838E-006
   61.4650000000000         4.012317466629551E-006
   61.6550000000000         4.485102534351639E-006
   61.8450000000000         4.969270749714608E-006
   62.0350000000000         5.381094216344300E-006
   62.2250000000000         5.668828228835497E-006
   62.4150000000000         5.994756467315681E-006
   62.6050000000000         6.248596534987380E-006
   62.7950000000000         6.319154710783713E-006
   62.9850000000000         6.406789822000889E-006
   63.1750000000000         6.522251276051200E-006
   63.3650000000000         6.655894984681125E-006
   63.5550000000000         6.797228869629144E-006
   63.7450000000000         6.912579677014288E-006
   63.9350000000000         6.955266439124613E-006
   64.1250000000000         6.915987812302199E-006
   64.3150000000000         6.808639705784780E-006
   64.5050000000000         6.650470300347145E-006
   64.6950000000000         6.357204166756622E-006
   64.8850000000000         6.203893691411573E-006
   65.0750000000000         5.940046664464698E-006
   65.2650000000000         5.662605253970516E-006
   65.4550000000000         5.398770083401965E-006
   65.6450000000000         5.136165600281416E-006
   65.8350000000000         4.875780610612416E-006
   66.0250000000000         4.654092669974392E-006
   66.2150000000000         4.467301701649365E-006
   66.4050000000000         4.294583136154983E-006
   66.5950000000000         4.249529919808605E-006
   66.7850000000000         4.124466147705865E-006
   66.9750000000000         4.063295096097037E-006
   67.1650000000000         3.983663723775862E-006
   67.3550000000000         3.891556794920678E-006
   67.5450000000000         3.788435065579422E-006
   67.7350000000000         3.696230976153797E-006
   67.9250000000000         3.646095279054994E-006
   68.1150000000000         3.673904451868826E-006
   68.3050000000000         3.810318254572134E-006
   68.4950000000000         4.067141425822332E-006
   68.6850000000000         4.395773737845878E-006
   68.8750000000000         4.771310101989775E-006
   69.0650000000000         5.175173305253778E-006
   69.2550000000000         5.604202172651709E-006
   69.4450000000000         6.022446382386550E-006
   69.6350000000000         6.372669419320313E-006
   69.8250000000000         6.574004440534881E-006
   70.0150000000000         6.786145051324688E-006
   70.2050000000000         6.958355429718789E-006
   70.3950000000000         7.142880958834922E-006
   70.5850000000000         7.292166917591302E-006
   70.7750000000000         7.440402826908809E-006
   70.9650000000000         7.551819250558043E-006
   71.1550000000000         7.674408413589030E-006
   71.3450000000000         7.773989769863320E-006
   71.5350000000000         7.888049161780708E-006
   71.7250000000000         7.932066328559728E-006
   71.9150000000000         8.028969001400521E-006
   72.1050000000000         8.045985725003680E-006
   72.2950000000000         8.071167482384567E-006
   72.4850000000000         8.090681221209630E-006
   72.6750000000000         8.102493597279614E-006
   72.8650000000000         8.129464362838129E-006
   73.0550000000000         8.152535335082588E-006
   73.2450000000000         8.174197740346199E-006
   73.4350000000000         8.190937549914695E-006
   73.6250000000000         8.174322984023656E-006
   73.8150000000000         8.106275172451472E-006
   74.0050000000000         7.971636377271558E-006
   74.1950000000000         7.782944665089525E-006
   74.3850000000000         7.537102125914709E-006
   74.5750000000000         7.253744763345629E-006
   74.7650000000000         6.947128483487070E-006
   74.9550000000000         6.666751261934225E-006
   75.1450000000000         6.432614551005582E-006
   75.3350000000000         6.373656706257112E-006
   75.5250000000000         6.165664768771042E-006
   75.7150000000000         6.130670214849858E-006
   75.9050000000000         6.074403877831001E-006
   76.0950000000000         5.985349363311679E-006
   76.2850000000000         5.881297476240700E-006
   76.4750000000000         5.802622398144127E-006
   76.6650000000000         5.752650257296738E-006
   76.8550000000000         5.723526530924502E-006
   77.0450000000000         5.692510562287518E-006
   77.2350000000000         5.616673637219558E-006
   77.4250000000000         5.410328902839108E-006
   77.6150000000000         4.969557191659085E-006
   77.8050000000000         4.461606382488270E-006
   77.9950000000000         3.963337444917629E-006
   78.1850000000000         3.475515554396518E-006
   78.3750000000000         3.033223133536977E-006
   78.5650000000000         2.711628866773073E-006
   78.7550000000000         2.413431146088398E-006
   78.9450000000000         2.310019012521606E-006
   79.1350000000000         2.151416597828645E-006
   79.3250000000000         2.072766917456273E-006
   79.5150000000000         1.949454631331654E-006
   79.7050000000000         1.769514559403113E-006
   79.8950000000000         1.584082938868840E-006
   80.0850000000000         1.580333347429857E-006
   80.2750000000000         1.867199968900055E-006
   80.4650000000000         2.391976885490646E-006
   80.6550000000000         3.063960679913669E-006
   80.8450000000000         3.805987927902941E-006
   81.0350000000000         4.606737414179375E-006
   81.2250000000000         5.394380616566385E-006
   81.4150000000000         6.131750765638982E-006
   81.6050000000000         6.824217068176493E-006
   81.7950000000000         7.157264649344333E-006
   81.9850000000000         7.551834520239025E-006
   82.1750000000000         7.800363147190502E-006
   82.3650000000000         8.107078859399400E-006
   82.5550000000000         8.596327418738096E-006
   82.7450000000000         9.057596089154485E-006
   82.9350000000000         9.314097927389050E-006
   83.1250000000000         9.366518403277148E-006
   83.3150000000000         9.309367174576303E-006
   83.5050000000000         9.219136429681635E-006
   83.6950000000000         9.164016854259789E-006
   83.8850000000000         9.047934921835489E-006
   84.0750000000000         9.014019678953039E-006
   84.2650000000000         8.971280186274329E-006
   84.4550000000000         8.948316583566267E-006
   84.6450000000000         8.926890803075276E-006
   84.8350000000000         8.905094825609250E-006
   85.0250000000000         8.860409669286961E-006
   85.2150000000000         8.783167242128512E-006
   85.4050000000000         8.658803237397107E-006
   85.5950000000000         8.456582852424148E-006
   85.7850000000000         8.166307619872733E-006
   85.9750000000000         7.858250434851447E-006
   86.1650000000000         7.551440381468793E-006
   86.3550000000000         7.245447402214689E-006
   86.5450000000000         6.869055652197928E-006
   86.7350000000000         6.438139875938594E-006
   86.9250000000000         5.984955006795674E-006
   87.1150000000000         5.542463433278928E-006
   87.3050000000000         5.080285203155713E-006
   87.4950000000000         4.629207735860901E-006
   87.6850000000000         4.238887374889059E-006
   87.8750000000000         3.992453836726479E-006
   88.0650000000000         3.793888786939910E-006
   88.2550000000000         3.701902118490429E-006
   88.4450000000000         3.612716624359787E-006
   88.6350000000000         3.534810345529916E-006
   88.8250000000000         3.424149794831001E-006
   89.0150000000000         3.340400623930440E-006
   89.2050000000000         3.332457025504971E-006
   89.3950000000000         3.495757325654451E-006
   89.5850000000000         3.843495670334457E-006
   89.7750000000000         4.131182821308647E-006
   89.9650000000000         4.420739966953836E-006
   90.1550000000000         4.763787880770043E-006
   90.3450000000000         5.092966926266997E-006
   90.5350000000000         5.484644217948499E-006
   90.7250000000000         5.893143622122446E-006
   90.9150000000000         6.328661322601023E-006
   91.1050000000000         6.755323000214744E-006
   91.2950000000000         7.170323431650319E-006
   91.4850000000000         7.593672789150663E-006
   91.6750000000000         8.014011392659302E-006
   91.8650000000000         8.338752870600684E-006
   92.0550000000000         8.576845271419963E-006
   92.2450000000000         8.705140656430521E-006
   92.4350000000000         8.780210651493355E-006
   92.6250000000000         8.834973122474004E-006
   92.8150000000000         8.846813778135135E-006
   93.0050000000000         8.819460077670314E-006
   93.1950000000000         8.700013794489097E-006
   93.3850000000000         8.401260258634069E-006
   93.5750000000000         7.762715492838235E-006
   93.7650000000000         7.066294259849217E-006
   93.9550000000000         6.454648310992927E-006
   94.1450000000000         5.925384834337670E-006
   94.3350000000000         5.449699498811809E-006
   94.5250000000000         5.036190552517139E-006
   94.7150000000000         4.715186747126119E-006
   94.9050000000000         4.401153425460216E-006
   95.0950000000000         4.233417286075265E-006
   95.2850000000000         4.022549564709103E-006
   95.4750000000000         3.970004626091849E-006
   95.6650000000000         3.760943331444537E-006
   95.8550000000000         3.718372915768417E-006
   96.0450000000000         3.657925821170983E-006
   96.2350000000000         3.563848989436486E-006
   96.4250000000000         3.436177940478242E-006
   96.6150000000000         3.277821199817739E-006
   96.8050000000000         3.086796170849595E-006
   96.9950000000000         2.901830563146032E-006
   97.1850000000000         2.759520573709134E-006
   97.3750000000000         2.697854438581537E-006
   97.5650000000000         2.655164456141315E-006
   97.7550000000000         2.674810591535707E-006
   97.9450000000000         2.761476051133715E-006
   98.1350000000000         2.960373270337287E-006
   98.3250000000000         3.290901409048426E-006
   98.5150000000000         3.723158523145631E-006
   98.7050000000000         4.200744544442346E-006
   98.8950000000000         4.670026844066809E-006
   99.0850000000000         5.107055925721815E-006
   99.2750000000000         5.573651058162553E-006
   99.4650000000000         6.128667290067395E-006
   99.6550000000000         6.477946416156459E-006
   99.8450000000000         6.686807241612329E-006
   100.035000000000         6.729815748485536E-006
   100.225000000000         6.639429604472631E-006
   100.415000000000         6.449167103166607E-006
   100.605000000000         6.187405784646633E-006
   100.795000000000         5.918023292047396E-006
   100.985000000000         5.655827784969586E-006
   101.175000000000         5.580467830746365E-006
   101.365000000000         5.419710996018462E-006
   101.555000000000         5.375041347026061E-006
   101.745000000000         5.274996606477292E-006
   101.935000000000         5.084086856567540E-006
   102.125000000000         4.929306604844142E-006
   102.315000000000         5.009839435381094E-006
   102.505000000000         5.318397679753920E-006
   102.695000000000         5.683615070145081E-006
   102.885000000000         6.043026128269893E-006
   103.075000000000         6.362309602344316E-006
   103.265000000000         6.597665130972963E-006
   103.455000000000         6.751529291860662E-006
   103.645000000000         6.827228449139161E-006
   103.835000000000         6.865168456801379E-006
   104.025000000000         6.838956031192483E-006
   104.215000000000         6.817373302670374E-006
   104.405000000000         6.802476119209171E-006
   104.595000000000         6.770036366286749E-006
   104.785000000000         6.711289250944531E-006
   104.975000000000         6.622159897253173E-006
   105.165000000000         6.508780107322446E-006
   105.355000000000         6.394029380437390E-006
   105.545000000000         6.283884092659784E-006
   105.735000000000         6.176593972025374E-006
   105.925000000000         6.079454929402157E-006
   106.115000000000         5.999516045773987E-006
   106.305000000000         5.895436128442194E-006
   106.495000000000         5.844675070695708E-006
   106.685000000000         5.732955949305414E-006
   106.875000000000         5.686680876240258E-006
   107.065000000000         5.591742648209072E-006
   107.255000000000         5.492355819761527E-006
   107.445000000000         5.393221405770894E-006
   107.635000000000         5.298510808984881E-006
   107.825000000000         5.217025753128767E-006
   108.015000000000         5.151433912327923E-006
   108.205000000000         5.090048563930921E-006
   108.395000000000         5.017320787845349E-006
   108.585000000000         4.954118000877865E-006
   108.775000000000         4.920819620823222E-006
   108.965000000000         4.903211007784936E-006
   109.155000000000         4.902145087302972E-006
   109.345000000000         4.905974632482021E-006
   109.535000000000         4.910257926460491E-006
   109.725000000000         4.918303510070251E-006
   109.915000000000         4.926152155436635E-006
   110.105000000000         4.940951480527710E-006