  -1.42500000000000         6.260257906971599E-020
  -1.23500000000000        -1.299511511397497E-018
  -1.04500000000000        -7.232839632862597E-018
 -0.855000000000000        -3.469937530626244E-017
 -0.665000000000000        -1.497552020597640E-016
 -0.475000000000000        -5.649943773939353E-016
 -0.285000000000000        -1.813046284290170E-015
 -9.499999999999975E-002   -5.063679693269518E-015
  9.500000000000020E-002   -1.226390796260205E-014
  0.285000000000000        -2.583832052218051E-014
  0.475000000000000        -4.814966219214394E-014
  0.665000000000000        -8.046100718135257E-014
  0.855000000000000        -1.230102177409482E-013
   1.04500000000000        -1.767545202589626E-013
   1.23500000000000        -2.428848560290830E-013
   1.42500000000000        -3.196935547162034E-013
   1.61500000000000        -4.060199670658670E-013
   1.80500000000000        -5.025289432448257E-013
   1.99500000000000        -6.077271421650903E-013
   2.18500000000000        -7.201979949903680E-013
   2.37500000000000        -8.386612445542085E-013
   2.56500000000000        -9.606793483982119E-013
   2.75500000000000        -1.084241429781172E-012
   2.94500000000000        -1.208154704288271E-012
   3.13500000000000        -1.331514148920675E-012
   3.32500000000000        -1.454149256512737E-012
   3.51500000000000        -1.575645109548749E-012
   3.70500000000000        -1.695774306122429E-012
   3.89500000000000        -1.814885622615186E-012
   4.08500000000000        -1.932841245149076E-012
   4.27500000000000        -2.049481994659849E-012
   4.46500000000000        -2.164104649842111E-012
   4.65500000000000        -2.275353547911759E-012
   4.84500000000000        -2.381650001066202E-012
   5.03500000000000        -2.482048837765820E-012
   5.22500000000000        -2.578703961443280E-012
   5.41500000000000        -2.671557190711537E-012
   5.60500000000000        -2.758147633468370E-012
   5.79500000000000        -2.837976711909963E-012
   5.98500000000000        -2.909623690906149E-012
   6.17500000000000        -2.971783868130127E-012
   6.36500000000000        -3.024120857793248E-012
   6.55500000000000        -3.068767760443113E-012
   6.74500000000000        -3.108991906307736E-012
   6.93500000000000        -3.146400410981309E-012
   7.12500000000000        -3.183686076909324E-012
   7.31500000000000        -3.224726427544723E-012
   7.50500000000000        -3.273353368690803E-012
   7.69500000000000        -3.332718190561474E-012
   7.88500000000000        -3.403895631544551E-012
   8.07500000000000        -3.487593788536211E-012
   8.26500000000000        -3.583080096858777E-012
   8.45500000000000        -3.687575881900333E-012
   8.64500000000000        -3.800113918394201E-012
   8.83500000000000        -3.920327013791573E-012
   9.02500000000000        -4.048419634356890E-012
   9.21500000000000        -4.180093370515197E-012
   9.40500000000000        -4.303437685470043E-012
   9.59500000000000        -4.410825861564371E-012
   9.78500000000000        -4.503001271217524E-012
   9.97500000000000        -4.582364728779847E-012
   10.1650000000000        -4.650216876415849E-012
   10.3550000000000        -4.707908518472224E-012
   10.5450000000000        -4.758360433087054E-012
   10.7350000000000        -4.805451997067435E-012
   10.9250000000000        -4.851336972265240E-012
   11.1150000000000        -4.896231432406989E-012
   11.3050000000000        -4.939382233057788E-012
   11.4950000000000        -4.980192748313345E-012
   11.6850000000000        -5.018864954220331E-012
   11.8750000000000        -5.056535844540373E-012
   12.0650000000000        -5.094731592320549E-012
   12.2550000000000        -5.134713628793126E-012
   12.4450000000000        -5.177668930439876E-012
   12.6350000000000        -5.222863924211170E-012
   12.8250000000000        -5.270043832158828E-012
   13.0150000000000        -5.319397620355151E-012
   13.2050000000000        -5.369519108077711E-012
   13.3950000000000        -5.418864216358133E-012
   13.5850000000000        -5.464700061258008E-012
   13.7750000000000        -5.505034901084811E-012
   13.9650000000000        -5.540052637017191E-012
   14.1550000000000        -5.571901951568803E-012
   14.3450000000000        -5.601425348040189E-012
   14.5350000000000        -5.629053273213558E-012
   14.7250000000000        -5.655873261410846E-012
   14.9150000000000        -5.682283023028979E-012
   15.1050000000000        -5.711320461760096E-012
   15.2950000000000        -5.748163192763260E-012
   15.4850000000000        -5.796425186993722E-012
   15.6750000000000        -5.855101106100390E-012
   15.8650000000000        -5.922100993604305E-012
   16.0550000000000        -5.997426382633699E-012
   16.2450000000000        -6.079952737870269E-012
   16.4350000000000        -6.167245813353384E-012
   16.6250000000000        -6.257981178814399E-012
   16.8150000000000        -6.352052684945978E-012
   17.0050000000000        -6.448231525508332E-012
   17.1950000000000        -6.545895051810953E-012
   17.3850000000000        -6.644957020973822E-012
   17.5750000000000        -6.745353295810202E-012
   17.7650000000000        -6.847091782935709E-012
   17.9550000000000        -6.949665441725913E-012
   18.1450000000000        -7.053146346984963E-012
   18.3350000000000        -7.157454937593887E-012
   18.5250000000000        -7.262585597785773E-012
   18.7150000000000        -7.368449705112205E-012
   18.9050000000000        -7.474291921548372E-012
   19.0950000000000        -7.578898712618839E-012
   19.2850000000000        -7.680991026880770E-012
   19.4750000000000        -7.779148940817409E-012
   19.6650000000000        -7.872432952559869E-012
   19.8550000000000        -7.960212910093142E-012
   20.0450000000000        -8.041728426530580E-012
   20.2350000000000        -8.117255652812305E-012
   20.4250000000000        -8.187507258894098E-012
   20.6150000000000        -8.251934257330278E-012
   20.8050000000000        -8.310233197821853E-012
   20.9950000000000        -8.363182642328568E-012
   21.1850000000000        -8.413021122580707E-012
   21.3750000000000        -8.460073888156775E-012
   21.5650000000000        -8.504725782027833E-012
   21.7550000000000        -8.548671168617743E-012
   21.9450000000000        -8.591870870316112E-012
   22.1350000000000        -8.635542025884600E-012
   22.3250000000000        -8.684477093998558E-012
   22.5150000000000        -8.743977574305092E-012
   22.7050000000000        -8.816214433777444E-012
   22.8950000000000        -8.901632088363780E-012
   23.0850000000000        -9.001061305447349E-012
   23.2750000000000        -9.114370047470576E-012
   23.4650000000000        -9.238726495170099E-012
   23.6550000000000        -9.373932223318647E-012
   23.8450000000000        -9.521468787096496E-012
   24.0350000000000        -9.679439843775991E-012
   24.2250000000000        -9.845365764715889E-012
   24.4150000000000        -1.001691581763818E-011
   24.6050000000000        -1.019092016986589E-011
   24.7950000000000        -1.036358236915039E-011
   24.9850000000000        -1.053193454311799E-011
   25.1750000000000        -1.069443368080135E-011
   25.3650000000000        -1.084932658156659E-011
   25.5550000000000        -1.099644525032353E-011
   25.7450000000000        -1.113355001337137E-011
   25.9350000000000        -1.125822970266651E-011
   26.1250000000000        -1.137270338057887E-011
   26.3150000000000        -1.147903466103182E-011
   26.5050000000000        -1.157772344621087E-011
   26.6950000000000        -1.166935776318503E-011
   26.8850000000000        -1.175449814528971E-011
   27.0750000000000        -1.183299625978179E-011
   27.2650000000000        -1.190530144279194E-011
   27.4550000000000        -1.197367792462251E-011
   27.6450000000000        -1.204090699071195E-011
   27.8350000000000        -1.210804465822240E-011
   28.0250000000000        -1.217596733665390E-011
   28.2150000000000        -1.224475811489227E-011
   28.4050000000000        -1.231310453159194E-011
   28.5950000000000        -1.237736958201760E-011
   28.7850000000000        -1.243435103343236E-011
   28.9750000000000        -1.248029162491242E-011
   29.1650000000000        -1.250986760228927E-011
   29.3550000000000        -1.251825686490352E-011
   29.5450000000000        -1.250315371575312E-011
   29.7350000000000        -1.246708091038257E-011
   29.9250000000000        -1.241201544550636E-011
   30.1150000000000        -1.234152029311849E-011
   30.3050000000000        -1.226121438237656E-011
   30.4950000000000        -1.217542711765735E-011
   30.6850000000000        -1.208575454931038E-011
   30.8750000000000        -1.199498024041304E-011
   31.0650000000000        -1.191077365903719E-011
   31.2550000000000        -1.184240029682130E-011
   31.4450000000000        -1.179563151152428E-011
   31.6350000000000        -1.177378268913575E-011
   31.8250000000000        -1.177672713905630E-011
   32.0150000000000        -1.180042564781658E-011
   32.2050000000000        -1.184406842028510E-011
   32.3950000000000        -1.190664347662059E-011
   32.5850000000000        -1.198524776241833E-011
   32.7750000000000        -1.207581082516837E-011
   32.9650000000000        -1.217345373348118E-011
   33.1550000000000        -1.227535763374159E-011
   33.3450000000000        -1.238059230912595E-011
   33.5350000000000        -1.248954739587420E-011
   33.7250000000000        -1.260180724682339E-011
   33.9150000000000        -1.271451158571002E-011
   34.1050000000000        -1.282205827257416E-011
   34.2950000000000        -1.291934817018938E-011
   34.4850000000000        -1.300596190267012E-011
   34.6750000000000        -1.308263958649457E-011
   34.8650000000000        -1.314871841806640E-011
   35.0550000000000        -1.320445188332922E-011
   35.2450000000000        -1.324985416069600E-011
   35.4350000000000        -1.328839395195827E-011
   35.6250000000000        -1.332691804422602E-011
   35.8150000000000        -1.336978885112191E-011
   36.0050000000000        -1.341899275493955E-011
   36.1950000000000        -1.347485872995856E-011
   36.3850000000000        -1.353458063205527E-011
   36.5750000000000        -1.359697912083450E-011
   36.7650000000000        -1.366198377336529E-011
   36.9550000000000        -1.372891486960163E-011
   37.1450000000000        -1.379808530221349E-011
   37.3350000000000        -1.386858516384370E-011
   37.5250000000000        -1.393969072235182E-011
   37.7150000000000        -1.401098573589339E-011
   37.9050000000000        -1.408218323517733E-011
   38.0950000000000        -1.415330232016983E-011
   38.2850000000000        -1.422487815632665E-011
   38.4750000000000        -1.430139751740850E-011
   38.6650000000000        -1.439145271263747E-011
   38.8550000000000        -1.449964247377999E-011
   39.0450000000000        -1.462628683318955E-011
   39.2350000000000        -1.477199748989935E-011
   39.4250000000000        -1.493592847266152E-011
   39.6150000000000        -1.511584935587706E-011
   39.8050000000000        -1.531049992914577E-011
   39.9950000000000        -1.551625986619812E-011
   40.1850000000000        -1.572926603336663E-011
   40.3750000000000        -1.594628306824703E-011
   40.5650000000000        -1.616465822972179E-011
   40.7550000000000        -1.638481657317122E-011
   40.9450000000000        -1.660629452202474E-011
   41.1350000000000        -1.682413456436812E-011
   41.3250000000000        -1.702980696522964E-011
   41.5150000000000        -1.721873877935715E-011
   41.7050000000000        -1.739034614322753E-011
   41.8950000000000        -1.754340919024589E-011
   42.0850000000000        -1.767698801049363E-011
   42.2750000000000        -1.779147735558247E-011
   42.4650000000000        -1.788744961317854E-011
   42.6550000000000        -1.796551661087137E-011
   42.8450000000000        -1.802651178888476E-011
   43.0350000000000        -1.807209301158301E-011
   43.2250000000000        -1.810621833200976E-011
   43.4150000000000        -1.813006182684754E-011
   43.6050000000000        -1.814658444189537E-011
   43.7950000000000        -1.815934646132163E-011
   43.9850000000000        -1.816803588722572E-011
   44.1750000000000        -1.817271285610975E-011
   44.3650000000000        -1.817255500037006E-011
   44.5550000000000        -1.816859299480959E-011
   44.7450000000000        -1.816892338433817E-011
   44.9350000000000        -1.818618215288930E-011
   45.1250000000000        -1.822981369287762E-011
   45.3150000000000        -1.830104610907871E-011
   45.5050000000000        -1.839661874566610E-011
   45.6950000000000        -1.851263590371800E-011
   45.8850000000000        -1.864356438848558E-011
   46.0750000000000        -1.878325095235140E-011
   46.2650000000000        -1.892707667001581E-011
   46.4550000000000        -1.907327613923178E-011
   46.6450000000000        -1.922130851570501E-011
   46.8350000000000        -1.936862257390921E-011
   47.0250000000000        -1.950762936555248E-011
   47.2150000000000        -1.962682080338618E-011
   47.4050000000000        -1.972242710666528E-011
   47.5950000000000        -1.979829698419747E-011
   47.7850000000000        -1.985603833813948E-011
   47.9750000000000        -1.989701672491993E-011
   48.1650000000000        -1.992309231268278E-011
   48.3550000000000        -1.993527200209163E-011
   48.5450000000000        -1.993584546043038E-011
   48.7350000000000        -1.992853872840221E-011
   48.9250000000000        -1.991542329431882E-011
   49.1150000000000        -1.989788545995437E-011
   49.3050000000000        -1.987600038944217E-011
   49.4950000000000        -1.985230445287374E-011
   49.6850000000000        -1.983567558763389E-011
   49.8750000000000        -1.983651101681023E-011
   50.0650000000000        -1.985981163750062E-011
   50.2550000000000        -1.990530031907602E-011
   50.4450000000000        -1.997090457673940E-011
   50.6350000000000        -2.005241495651084E-011
   50.8250000000000        -2.014825871709674E-011
   51.0150000000000        -2.025232604932637E-011
   51.2050000000000        -2.035889984091281E-011
   51.3950000000000        -2.047125049896229E-011
   51.5850000000000        -2.059325887250509E-011
   51.7750000000000        -2.072120594833144E-011
   51.9650000000000        -2.084344091067843E-011
   52.1550000000000        -2.095048767801240E-011
   52.3450000000000        -2.104196948906011E-011
   52.5350000000000        -2.112062755194268E-011
   52.7250000000000        -2.118887086422372E-011
   52.9150000000000        -2.125117467901017E-011
   53.1050000000000        -2.130996239995355E-011
   53.2950000000000        -2.136695109603166E-011
   53.4850000000000        -2.142490466246505E-011
   53.6750000000000        -2.148739164252294E-011
   53.8650000000000        -2.155670608320859E-011
   54.0550000000000        -2.163436241996291E-011
   54.2450000000000        -2.172201087410271E-011
   54.4350000000000        -2.182096844849951E-011
   54.6250000000000        -2.193138815979206E-011
   54.8150000000000        -2.205285005166346E-011
   55.0050000000000        -2.218499746033586E-011
   55.1950000000000        -2.232618381584957E-011
   55.3850000000000        -2.247418029067021E-011
   55.5750000000000        -2.262685652718555E-011
   55.7650000000000        -2.278252882194584E-011
   55.9550000000000        -2.293984481771935E-011
   56.1450000000000        -2.309337563834222E-011
   56.3350000000000        -2.323659194366184E-011
   56.5250000000000        -2.336631819328092E-011
   56.7150000000000        -2.348088560223942E-011
   56.9050000000000        -2.357863921475542E-011
   57.0950000000000        -2.365845159182695E-011
   57.2850000000000        -2.372335687206064E-011
   57.4750000000000        -2.377666560339184E-011
   57.6650000000000        -2.381922926799508E-011
   57.8550000000000        -2.385406671275765E-011
   58.0450000000000        -2.388463765496344E-011
   58.2350000000000        -2.391256493425047E-011
   58.4250000000000        -2.393838397206839E-011
   58.6150000000000        -2.396265552627556E-011
   58.8050000000000        -2.398627426350187E-011
   58.9950000000000        -2.400988337134295E-011
   59.1850000000000        -2.403397751235183E-011
   59.3750000000000        -2.405880292599552E-011
   59.5650000000000        -2.408444915129933E-011
   59.7550000000000        -2.411125966181650E-011
   59.9450000000000        -2.413992048526683E-011
   60.1350000000000        -2.417156517313558E-011
   60.3250000000000        -2.420799310561916E-011
   60.5150000000000        -2.425076936857736E-011
   60.7050000000000        -2.429984505851742E-011
   60.8950000000000        -2.435360979330916E-011
   61.0850000000000        -2.440824114004732E-011
   61.2750000000000        -2.445967896133198E-011
   61.4650000000000        -2.450778033937923E-011
   61.6550000000000        -2.455196554747510E-011
   61.8450000000000        -2.459093259466366E-011
   62.0350000000000        -2.462696950858369E-011
   62.2250000000000        -2.465954940875418E-011
   62.4150000000000        -2.468767477325742E-011
   62.6050000000000        -2.471266699111845E-011
   62.7950000000000        -2.473580496001049E-011
   62.9850000000000        -2.475823426629013E-011
   63.1750000000000        -2.477979000999013E-011
   63.3650000000000        -2.480050827625339E-011
   63.5550000000000        -2.482043817006589E-011
   63.7450000000000        -2.483968584568094E-011
   63.9350000000000        -2.485864728711369E-011
   64.1250000000000        -2.487802897579005E-011
   64.3150000000000        -2.489870712361055E-011
   64.5050000000000        -2.492157202038383E-011
   64.6950000000000        -2.494760194665667E-011
   64.8850000000000        -2.497784838175584E-011
   65.0750000000000        -2.501142106803342E-011
   65.2650000000000        -2.504791974780205E-011
   65.4550000000000        -2.508850637023830E-011
   65.6450000000000        -2.513304055105085E-011
   65.8350000000000        -2.518091712855549E-011
   66.0250000000000        -2.523127447371867E-011
   66.2150000000000        -2.528289402228149E-011
   66.4050000000000        -2.533498188182891E-011
   66.5950000000000        -2.538665143269223E-011
   66.7850000000000        -2.543758400895767E-011
   66.9750000000000        -2.548799608684673E-011
   67.1650000000000        -2.553800250572533E-011
   67.3550000000000        -2.558818328344088E-011
   67.5450000000000        -2.563931889188324E-011
   67.7350000000000        -2.569234118784409E-011
   67.9250000000000        -2.574823169855900E-011
   68.1150000000000        -2.580790701200321E-011
   68.3050000000000        -2.587262536780589E-011
   68.4950000000000        -2.594312369058634E-011
   68.6850000000000        -2.601873445003796E-011
   68.8750000000000        -2.609888396939112E-011
   69.0650000000000        -2.618365727041230E-011
   69.2550000000000        -2.627346790768688E-011
   69.4450000000000        -2.636859708587769E-011
   69.6350000000000        -2.646836366561568E-011
   69.8250000000000        -2.657137425105019E-011
   70.0150000000000        -2.667733904758636E-011
   70.2050000000000        -2.678644942038747E-011
   70.3950000000000        -2.689861277098719E-011
   70.5850000000000        -2.701389587599889E-011
   70.7750000000000        -2.713234211405578E-011
   70.9650000000000        -2.725496857588866E-011
   71.1550000000000        -2.738458598151115E-011
   71.3450000000000        -2.752208692876686E-011
   71.5350000000000        -2.766779523449264E-011
   71.7250000000000        -2.781987951084620E-011
   71.9150000000000        -2.797706483879248E-011
   72.1050000000000        -2.813882472827090E-011
   72.2950000000000        -2.830270773475167E-011
   72.4850000000000        -2.846841317321317E-011
   72.6750000000000        -2.863530209231243E-011
   72.8650000000000        -2.880360807409562E-011
   73.0550000000000        -2.897380443065724E-011
   73.2450000000000        -2.914569784704243E-011
   73.4350000000000        -2.931863772295004E-011
   73.6250000000000        -2.949045747269463E-011
   73.8150000000000        -2.965752571488765E-011
   74.0050000000000        -2.981523811913975E-011
   74.1950000000000        -2.996041221275905E-011
   74.3850000000000        -3.009064859092502E-011
   74.5750000000000        -3.020396666084360E-011
   74.7650000000000        -3.030077882429923E-011
   74.9550000000000        -3.038298458497484E-011
   75.1450000000000        -3.045284447430127E-011
   75.3350000000000        -3.051627930112349E-011
   75.5250000000000        -3.057510575618351E-011
   75.7150000000000        -3.062982742901668E-011
   75.9050000000000        -3.068344087709033E-011
   76.0950000000000        -3.073456611306737E-011
   76.2850000000000        -3.078269946099225E-011
   76.4750000000000        -3.082894876327180E-011
   76.6650000000000        -3.087482462020616E-011
   76.8550000000000        -3.092069621413837E-011
   77.0450000000000        -3.096637299719662E-011
   77.2350000000000        -3.101190655169434E-011
   77.4250000000000        -3.105495203896647E-011
   77.6150000000000        -3.109089420175562E-011
   77.8050000000000        -3.111646261459231E-011
   77.9950000000000        -3.113025259082913E-011
   78.1850000000000        -3.113130035295538E-011
   78.3750000000000        -3.111901730693365E-011
   78.5650000000000        -3.109406312778426E-011
   78.7550000000000        -3.105800193150760E-011
   78.9450000000000        -3.101511356057351E-011
   79.1350000000000        -3.096763450168657E-011
   79.3250000000000        -3.091605760634775E-011
   79.5150000000000        -3.086195638318709E-011
   79.7050000000000        -3.080533776134381E-011
   79.8950000000000        -3.074851330006555E-011
   80.0850000000000        -3.069956369243011E-011
   80.2750000000000        -3.066729986976440E-011
   80.4650000000000        -3.065819626209494E-011
   80.6550000000000        -3.067431892721726E-011
   80.8450000000000        -3.071423833674303E-011
   81.0350000000000        -3.077822234701359E-011
   81.2250000000000        -3.086543143084916E-011
   81.4150000000000        -3.097379120754139E-011
   81.6050000000000        -3.110170981123340E-011
   81.7950000000000        -3.124588938936091E-011
   81.9850000000000        -3.140242168793894E-011
   82.1750000000000        -3.156889232096943E-011
   82.3650000000000        -3.174424994752709E-011
   82.5550000000000        -3.192868139464063E-011
   82.7450000000000        -3.211618692792202E-011
   82.9350000000000        -3.229622184765485E-011
   83.1250000000000        -3.246222670577994E-011
   83.3150000000000        -3.261279696582308E-011
   83.5050000000000        -3.274911995637086E-011
   83.6950000000000        -3.287459205598007E-011
   83.8850000000000        -3.299048856630367E-011
   84.0750000000000        -3.310002156095365E-011
   84.2650000000000        -3.320730893479012E-011
   84.4550000000000        -3.331266942444273E-011
   84.6450000000000        -3.341699020745743E-011
   84.8350000000000        -3.352004182198379E-011
   85.0250000000000        -3.362085657209021E-011
   85.2150000000000        -3.371803178732334E-011
   85.4050000000000        -3.381092478057023E-011
   85.5950000000000        -3.389930028996698E-011
   85.7850000000000        -3.398504280371424E-011
   85.9750000000000        -3.407152398060844E-011
   86.1650000000000        -3.416045279393013E-011
   86.3550000000000        -3.425214591173197E-011
   86.5450000000000        -3.434583845764608E-011
   86.7350000000000        -3.444029106645351E-011
   86.9250000000000        -3.453450908172968E-011
   87.1150000000000        -3.462825165768525E-011
   87.3050000000000        -3.472155273773422E-011
   87.4950000000000        -3.481441271264806E-011
   87.6850000000000        -3.490741168977488E-011
   87.8750000000000        -3.500114818051465E-011
   88.0650000000000        -3.509557125622002E-011
   88.2550000000000        -3.519018535406050E-011
   88.4450000000000        -3.528471191131148E-011
   88.6350000000000        -3.537897458649769E-011
   88.8250000000000        -3.547309902673442E-011
   89.0150000000000        -3.556821917579291E-011
   89.2050000000000        -3.566640866353307E-011
   89.3950000000000        -3.577030734886420E-011
   89.5850000000000        -3.587830145645929E-011
   89.7750000000000        -3.598592660137086E-011
   89.9650000000000        -3.609131932601657E-011
   90.1550000000000        -3.619499936071930E-011
   90.3450000000000        -3.629797702502514E-011
   90.5350000000000        -3.640074796538318E-011
   90.7250000000000        -3.650351283409118E-011
   90.9150000000000        -3.660601911139259E-011
   91.1050000000000        -3.670782862835025E-011
   91.2950000000000        -3.680829955516859E-011
   91.4850000000000        -3.690712752364271E-011
   91.6750000000000        -3.700338067182077E-011
   91.8650000000000        -3.709523183580302E-011
   92.0550000000000        -3.718175127380425E-011
   92.2450000000000        -3.726380629430763E-011
   92.4350000000000        -3.734231997093951E-011
   92.6250000000000        -3.741681916221839E-011
   92.8150000000000        -3.748658270059526E-011
   93.0050000000000        -3.755044656836955E-011
   93.1950000000000        -3.760569771142657E-011
   93.3850000000000        -3.764808348916283E-011
   93.5750000000000        -3.767673158335622E-011
   93.7650000000000        -3.769842394043688E-011
   93.9550000000000        -3.772153825515578E-011
   94.1450000000000        -3.774947965651352E-011
   94.3350000000000        -3.778261050072443E-011
   94.5250000000000        -3.782167885378976E-011
   94.7150000000000        -3.786683982929711E-011
   94.9050000000000        -3.791862599761955E-011
   95.0950000000000        -3.797719936889559E-011
   95.2850000000000        -3.804079353198065E-011
   95.4750000000000        -3.810697277468493E-011
   95.6650000000000        -3.817579148741117E-011
   95.8550000000000        -3.824667444519380E-011
   96.0450000000000        -3.831794811712356E-011
   96.2350000000000        -3.838976113879786E-011
   96.4250000000000        -3.846147588281663E-011
   96.6150000000000        -3.853210838932895E-011
   96.8050000000000        -3.860051268197559E-011
   96.9950000000000        -3.866590442609155E-011
   97.1850000000000        -3.872835052387702E-011
   97.3750000000000        -3.878926484122668E-011
   97.5650000000000        -3.885001076420350E-011
   97.7550000000000        -3.891159573164101E-011
   97.9450000000000        -3.897562714155315E-011
   98.1350000000000        -3.904422010238888E-011
   98.3250000000000        -3.911994001215024E-011
   98.5150000000000        -3.920392945647033E-011
   98.7050000000000        -3.929521559744371E-011
   98.8950000000000        -3.939181907341838E-011
   99.0850000000000        -3.949167394851360E-011
   99.2750000000000        -3.959375214505925E-011
   99.4650000000000        -3.969447763142379E-011
   99.6550000000000        -3.978825100461885E-011
   99.8450000000000        -3.987069083057297E-011
   100.035000000000        -3.993752202607080E-011
   100.225000000000        -3.998605952050184E-011
   100.415000000000        -4.001531145663051E-011
   100.605000000000        -4.002477778198370E-011
   100.795000000000        -4.001554015987673E-011
   100.985000000000        -3.998985822105516E-011
   101.175000000000        -3.995299004959904E-011
   101.365000000000        -3.990849031794270E-011
   101.555000000000        -3.985785736808633E-011
   101.745000000000        -3.980232325611925E-011
   101.935000000000        -3.973997681446113E-011
   102.125000000000        -3.967570519372007E-011
   102.315000000000        -3.962405095625880E-011
   102.505000000000        -3.959644053569025E-011
   102.695000000000        -3.959654217127589E-011
   102.885000000000        -3.962418717488856E-011
   103.075000000000        -3.967669255953734E-011
   103.265000000000        -3.975152899931324E-011
   103.455000000000        -3.984476240897663E-011
   103.645000000000        -3.995188630156097E-011
   103.835000000000        -4.006926690612916E-011
   104.025000000000        -4.019363007934583E-011
   104.215000000000        -4.032140690447721E-011
   104.405000000000        -4.045044038736645E-011
   104.595000000000        -4.058121972931251E-011
   104.785000000000        -4.071407301272708E-011
   104.975000000000        -4.084863695523630E-011
   105.165000000000        -4.098378797280611E-011
   105.355000000000        -4.111823807580160E-011
   105.545000000000        -4.125093858952933E-011
   105.735000000000        -4.138090907505632E-011
   105.925000000000        -4.150732732063459E-011
   106.115000000000        -4.162989306009103E-011
   106.305000000000        -4.174787993352338E-011
   106.495000000000        -4.186148168432320E-011
   106.685000000000        -4.197034549133083E-011
   106.875000000000        -4.207453770797439E-011
   107.065000000000        -4.217470693202636E-011
   107.255000000000        -4.227032452153463E-011
   107.445000000000        -4.236202342039102E-011
   107.635000000000        -4.245065934865162E-011
   107.825000000000        -4.253708509299529E-011
   108.015000000000        -4.262213046553969E-011
   108.205000000000        -4.270631184150065E-011
   108.395000000000        -4.278963498735944E-011
   108.585000000000        -4.287188687925266E-011
   108.775000000000        -4.295308801035303E-011
   108.965000000000        -4.303316539210341E-011
   109.155000000000        -4.311254348047947E-011
   109.345000000000        -4.319106022611615E-011
   109.535000000000        -4.326855519796472E-011
   109.725000000000        -4.334551354062459E-011
   109.915000000000        -4.342175354740857E-011
   110.105000000000        -4.349712555351715E-011