  -1.42500000000000        -4.588088670521575E-020
  -1.23500000000000         3.194111810837864E-019
  -1.04500000000000         5.897439172144886E-018
 -0.855000000000000         3.259695478632322E-017
 -0.665000000000000         1.351311694474854E-016
 -0.475000000000000         4.657305303959121E-016
 -0.285000000000000         1.325039508320070E-015
 -9.499999999999975E-002    3.430357846980967E-015
  9.500000000000020E-002    7.607534250970582E-015
  0.285000000000000         1.539391610644414E-014
  0.475000000000000         2.856939194461681E-014
  0.665000000000000         4.726191134558276E-014
  0.855000000000000         7.207870747080449E-014
   1.04500000000000         1.053097136639781E-013
   1.23500000000000         1.530556184056800E-013
   1.42500000000000         2.145982437826263E-013
   1.61500000000000         2.874161821440281E-013
   1.80500000000000         3.722867624501398E-013
   1.99500000000000         4.658470200502102E-013
   2.18500000000000         5.696819156993029E-013
   2.37500000000000         6.855324025484327E-013
   2.56500000000000         8.104791831314529E-013
   2.75500000000000         9.428616074000028E-013
   2.94500000000000         1.084142487310391E-012
   3.13500000000000         1.234932465842661E-012
   3.32500000000000         1.391491346505579E-012
   3.51500000000000         1.550929642683892E-012
   3.70500000000000         1.712631239291891E-012
   3.89500000000000         1.875606467550837E-012
   4.08500000000000         2.039553156795125E-012
   4.27500000000000         2.204016749926558E-012
   4.46500000000000         2.368133942392278E-012
   4.65500000000000         2.529865264618026E-012
   4.84500000000000         2.687060020088131E-012
   5.03500000000000         2.839012088030973E-012
   5.22500000000000         2.988114068504247E-012
   5.41500000000000         3.134171624219412E-012
   5.60500000000000         3.273625173800600E-012
   5.79500000000000         3.404950527073596E-012
   5.98500000000000         3.523798596812069E-012
   6.17500000000000         3.625575176159528E-012
   6.36500000000000         3.709070401213166E-012
   6.55500000000000         3.779505504468621E-012
   6.74500000000000         3.843368880671756E-012
   6.93500000000000         3.900168528685767E-012
   7.12500000000000         3.949717822890256E-012
   7.31500000000000         3.995647801103363E-012
   7.50500000000000         4.042899229884840E-012
   7.69500000000000         4.092759511791283E-012
   7.88500000000000         4.145582848604956E-012
   8.07500000000000         4.203533154060987E-012
   8.26500000000000         4.266034134461998E-012
   8.45500000000000         4.330894382935716E-012
   8.64500000000000         4.399263800967442E-012
   8.83500000000000         4.473385591773058E-012
   9.02500000000000         4.560094268903846E-012
   9.21500000000000         4.658324653617315E-012
   9.40500000000000         4.754455533340871E-012
   9.59500000000000         4.848688847918457E-012
   9.78500000000000         4.947957269665134E-012
   9.97500000000000         5.052587062066132E-012
   10.1650000000000         5.160236466607568E-012
   10.3550000000000         5.269257885434596E-012
   10.5450000000000         5.379366099729766E-012
   10.7350000000000         5.490351015344492E-012
   10.9250000000000         5.602586682281918E-012
   11.1150000000000         5.716151606026612E-012
   11.3050000000000         5.830865613839748E-012
   11.4950000000000         5.946761768385868E-012
   11.6850000000000         6.064026937324656E-012
   11.8750000000000         6.182894426857144E-012
   12.0650000000000         6.303863405791287E-012
   12.2550000000000         6.427160975401032E-012
   12.4450000000000         6.552233904042905E-012
   12.6350000000000         6.677362708451677E-012
   12.8250000000000         6.800730001354479E-012
   13.0150000000000         6.919158732019928E-012
   13.2050000000000         7.030599025356965E-012
   13.3950000000000         7.134340445056540E-012
   13.5850000000000         7.227082011480415E-012
   13.7750000000000         7.307144094070108E-012
   13.9650000000000         7.375747598789559E-012
   14.1550000000000         7.434713513218276E-012
   14.3450000000000         7.486441473184931E-012
   14.5350000000000         7.533653431715952E-012
   14.7250000000000         7.578604336887221E-012
   14.9150000000000         7.623652898537515E-012
   15.1050000000000         7.672630440394847E-012
   15.2950000000000         7.730701513926293E-012
   15.4850000000000         7.801742784376899E-012
   15.6750000000000         7.882870730291679E-012
   15.8650000000000         7.971610762964643E-012
   16.0550000000000         8.069568694022771E-012
   16.2450000000000         8.175376766200739E-012
   16.4350000000000         8.284874383271455E-012
   16.6250000000000         8.397753286834266E-012
   16.8150000000000         8.517524160802241E-012
   17.0050000000000         8.643660838869466E-012
   17.1950000000000         8.774760227545467E-012
   17.3850000000000         8.910441713143410E-012
   17.5750000000000         9.050665770962742E-012
   17.7650000000000         9.194915120509043E-012
   17.9550000000000         9.342425228804521E-012
   18.1450000000000         9.492939835199432E-012
   18.3350000000000         9.645442785717791E-012
   18.5250000000000         9.799001307621443E-012
   18.7150000000000         9.952448216017480E-012
   18.9050000000000         1.010294631186390E-011
   19.0950000000000         1.024780626443312E-011
   19.2850000000000         1.038590731993485E-011
   19.4750000000000         1.051613863425987E-011
   19.6650000000000         1.063698566280416E-011
   19.8550000000000         1.074619495963191E-011
   20.0450000000000         1.084022399584071E-011
   20.2350000000000         1.092004200417846E-011
   20.4250000000000         1.098953784354199E-011
   20.6150000000000         1.104870246938981E-011
   20.8050000000000         1.109850543499122E-011
   20.9950000000000         1.114132518134614E-011
   21.1850000000000         1.117793567317731E-011
   21.3750000000000         1.120835089546548E-011
   21.5650000000000         1.123404692412914E-011
   21.7550000000000         1.125764473808810E-011
   21.9450000000000         1.127928838445299E-011
   22.1350000000000         1.129899618513816E-011
   22.3250000000000         1.132195221241333E-011
   22.5150000000000         1.135328631717891E-011
   22.7050000000000         1.139339700467137E-011
   22.8950000000000         1.144247540461380E-011
   23.0850000000000         1.150362852700395E-011
   23.2750000000000         1.157739675311009E-011
   23.4650000000000         1.165931060598538E-011
   23.6550000000000         1.175300233461123E-011
   23.8450000000000         1.186418796813090E-011
   24.0350000000000         1.199059653861577E-011
   24.2250000000000         1.213026620175005E-011
   24.4150000000000         1.228172172253734E-011
   24.6050000000000         1.244554443984153E-011
   24.7950000000000         1.261706160131428E-011
   24.9850000000000         1.279196846832158E-011
   25.1750000000000         1.296891948603270E-011
   25.3650000000000         1.314504999738329E-011
   25.5550000000000         1.332085427929861E-011
   25.7450000000000         1.349281211887361E-011
   25.9350000000000         1.366055674846505E-011
   26.1250000000000         1.382538686744295E-011
   26.3150000000000         1.398509206172193E-011
   26.5050000000000         1.413932076713116E-011
   26.6950000000000         1.428829006200488E-011
   26.8850000000000         1.443176364280785E-011
   27.0750000000000         1.456890024345288E-011
   27.2650000000000         1.469975925563973E-011
   27.4550000000000         1.482514819715032E-011
   27.6450000000000         1.494452046215867E-011
   27.8350000000000         1.505720028892913E-011
   28.0250000000000         1.516172245922687E-011
   28.2150000000000         1.525741792551728E-011
   28.4050000000000         1.534322860405385E-011
   28.5950000000000         1.541056673432761E-011
   28.7850000000000         1.545845254810099E-011
   28.9750000000000         1.549498636414115E-011
   29.1650000000000         1.552108840685160E-011
   29.3550000000000         1.553709952661732E-011
   29.5450000000000         1.554305673685168E-011
   29.7350000000000         1.554012272670104E-011
   29.9250000000000         1.553203197066243E-011
   30.1150000000000         1.552037327786014E-011
   30.3050000000000         1.550735954904929E-011
   30.4950000000000         1.549883391539005E-011
   30.6850000000000         1.549492570947547E-011
   30.8750000000000         1.549987292488241E-011
   31.0650000000000         1.552003876207709E-011
   31.2550000000000         1.555793504558622E-011
   31.4450000000000         1.561353424025965E-011
   31.6350000000000         1.569180853034507E-011
   31.8250000000000         1.579049316369921E-011
   32.0150000000000         1.590245095242509E-011
   32.2050000000000         1.603262657073986E-011
   32.3950000000000         1.618595725526312E-011
   32.5850000000000         1.636288293980899E-011
   32.7750000000000         1.654743093953677E-011
   32.9650000000000         1.673168473981938E-011
   33.1550000000000         1.692163445924416E-011
   33.3450000000000         1.711713744817184E-011
   33.5350000000000         1.731567369140285E-011
   33.7250000000000         1.751505955395729E-011
   33.9150000000000         1.771143938618842E-011
   34.1050000000000         1.790093043078553E-011
   34.2950000000000         1.808155847089901E-011
   34.4850000000000         1.825279780361862E-011
   34.6750000000000         1.841304122256036E-011
   34.8650000000000         1.856125264523192E-011
   35.0550000000000         1.869725189564366E-011
   35.2450000000000         1.881599401106745E-011
   35.4350000000000         1.891822370345355E-011
   35.6250000000000         1.901091906289738E-011
   35.8150000000000         1.909547709913866E-011
   36.0050000000000         1.917523235169144E-011
   36.1950000000000         1.925250510769692E-011
   36.3850000000000         1.932443242399248E-011
   36.5750000000000         1.939161938059116E-011
   36.7650000000000         1.945621525135657E-011
   36.9550000000000         1.951790095068624E-011
   37.1450000000000         1.957535100783636E-011
   37.3350000000000         1.962772178229251E-011
   37.5250000000000         1.967601821331821E-011
   37.7150000000000         1.972123178827186E-011
   37.9050000000000         1.976478436579733E-011
   38.0950000000000         1.980831424598978E-011
   38.2850000000000         1.985394654761559E-011
   38.4750000000000         1.991290057026657E-011
   38.6650000000000         1.998663297680667E-011
   38.8550000000000         2.006674595694332E-011
   39.0450000000000         2.015746999483425E-011
   39.2350000000000         2.026334342772745E-011
   39.4250000000000         2.038609473284441E-011
   39.6150000000000         2.052372001636657E-011
   39.8050000000000         2.067351916005799E-011
   39.9950000000000         2.083259511124810E-011
   40.1850000000000         2.099567957077229E-011
   40.3750000000000         2.116190337330411E-011
   40.5650000000000         2.133083418369639E-011
   40.7550000000000         2.149992792134853E-011
   40.9450000000000         2.166706844112496E-011
   41.1350000000000         2.182741257655291E-011
   41.3250000000000         2.197584661537997E-011
   41.5150000000000         2.211460369335581E-011
   41.7050000000000         2.224744005594933E-011
   41.8950000000000         2.237163916284615E-011
   42.0850000000000         2.248833356321868E-011
   42.2750000000000         2.260156075403382E-011
   42.4650000000000         2.271056234843452E-011
   42.6550000000000         2.281396485828441E-011
   42.8450000000000         2.291123276781955E-011
   43.0350000000000         2.300195734929391E-011
   43.2250000000000         2.308720593658061E-011
   43.4150000000000         2.316499722266130E-011
   43.6050000000000         2.323561726274862E-011
   43.7950000000000         2.330312934154309E-011
   43.9850000000000         2.336693101172633E-011
   44.1750000000000         2.342622376361412E-011
   44.3650000000000         2.348110408262504E-011
   44.5550000000000         2.353490636766558E-011
   44.7450000000000         2.359667432470242E-011
   44.9350000000000         2.367102741121455E-011
   45.1250000000000         2.375677105074904E-011
   45.3150000000000         2.385525623204100E-011
   45.5050000000000         2.396572314657350E-011
   45.6950000000000         2.408512911326296E-011
   45.8850000000000         2.421729951344965E-011
   46.0750000000000         2.435876111291073E-011
   46.2650000000000         2.450288393887828E-011
   46.4550000000000         2.465231561516116E-011
   46.6450000000000         2.480657798121778E-011
   46.8350000000000         2.496087412214416E-011
   47.0250000000000         2.511051948927935E-011
   47.2150000000000         2.525406982197111E-011
   47.4050000000000         2.539178116421562E-011
   47.5950000000000         2.552465872064529E-011
   47.7850000000000         2.565002924034858E-011
   47.9750000000000         2.576120466620359E-011
   48.1650000000000         2.585625550611800E-011
   48.3550000000000         2.593831460602941E-011
   48.5450000000000         2.601539936907673E-011
   48.7350000000000         2.609268072048365E-011
   48.9250000000000         2.616448543451667E-011
   49.1150000000000         2.622782462668043E-011
   49.3050000000000         2.628304612410153E-011
   49.4950000000000         2.632957629424167E-011
   49.6850000000000         2.637191274807952E-011
   49.8750000000000         2.641749059268883E-011
   50.0650000000000         2.646350242502682E-011
   50.2550000000000         2.650601429010321E-011
   50.4450000000000         2.654730686077079E-011
   50.6350000000000         2.658944407129260E-011
   50.8250000000000         2.663616626430912E-011
   51.0150000000000         2.668464140869077E-011
   51.2050000000000         2.673131202510038E-011
   51.3950000000000         2.678054715821397E-011
   51.5850000000000         2.684126314769308E-011
   51.7750000000000         2.691363259178249E-011
   51.9650000000000         2.698974900944146E-011
   52.1550000000000         2.706603987892883E-011
   52.3450000000000         2.715134640919683E-011
   52.5350000000000         2.725430624501326E-011
   52.7250000000000         2.737544130920663E-011
   52.9150000000000         2.750912369259199E-011
   53.1050000000000         2.765139747472256E-011
   53.2950000000000         2.779990667632937E-011
   53.4850000000000         2.795650971422931E-011
   53.6750000000000         2.812871322237125E-011
   53.8650000000000         2.831209331866321E-011
   54.0550000000000         2.850288313430765E-011
   54.2450000000000         2.870171390316342E-011
   54.4350000000000         2.890835586409208E-011
   54.6250000000000         2.912222364726897E-011
   54.8150000000000         2.933983914702782E-011
   55.0050000000000         2.955782649623039E-011
   55.1950000000000         2.977571866315687E-011
   55.3850000000000         2.999212779931812E-011
   55.5750000000000         3.020654674554119E-011
   55.7650000000000         3.041625839274061E-011
   55.9550000000000         3.061651802408391E-011
   56.1450000000000         3.079522111796586E-011
   56.3350000000000         3.094572773112542E-011
   56.5250000000000         3.106933142702547E-011
   56.7150000000000         3.116839299965211E-011
   56.9050000000000         3.124942399432149E-011
   57.0950000000000         3.131320284112207E-011
   57.2850000000000         3.136466009048828E-011
   57.4750000000000         3.140697407693748E-011
   57.6650000000000         3.144037086987174E-011
   57.8550000000000         3.147025312999072E-011
   58.0450000000000         3.149490201863744E-011
   58.2350000000000         3.151202560854899E-011
   58.4250000000000         3.152450040431175E-011
   58.6150000000000         3.153365086084664E-011
   58.8050000000000         3.154103542956687E-011
   58.9950000000000         3.154819972085335E-011
   59.1850000000000         3.155628365909324E-011
   59.3750000000000         3.156553980278206E-011
   59.5650000000000         3.157545275755636E-011
   59.7550000000000         3.158578227480339E-011
   59.9450000000000         3.159724413329833E-011
   60.1350000000000         3.161171510898418E-011
   60.3250000000000         3.163176177655601E-011
   60.5150000000000         3.165980245209939E-011
   60.7050000000000         3.169835783353923E-011
   60.8950000000000         3.175425087383165E-011
   61.0850000000000         3.182737768230901E-011
   61.2750000000000         3.191258102475837E-011
   61.4650000000000         3.201776636222435E-011
   61.6550000000000         3.214090636024077E-011
   61.8450000000000         3.227271953334408E-011
   62.0350000000000         3.241932060085236E-011
   62.2250000000000         3.257764729454788E-011
   62.4150000000000         3.274122837275492E-011
   62.6050000000000         3.290728516362883E-011
   62.7950000000000         3.307600375666380E-011
   62.9850000000000         3.324889511494660E-011
   63.1750000000000         3.342279038691659E-011
   63.3650000000000         3.359731291678366E-011
   63.5550000000000         3.377115139876076E-011
   63.7450000000000         3.394255608472443E-011
   63.9350000000000         3.410816449980607E-011
   64.1250000000000         3.426328185929760E-011
   64.3150000000000         3.440633501365627E-011
   64.5050000000000         3.453894569692020E-011
   64.6950000000000         3.465967173242774E-011
   64.8850000000000         3.477413767653679E-011
   65.0750000000000         3.488163825886176E-011
   65.2650000000000         3.497539251878040E-011
   65.4550000000000         3.505767928153350E-011
   65.6450000000000         3.513021858461875E-011
   65.8350000000000         3.519344907034192E-011
   66.0250000000000         3.524862084274967E-011
   66.2150000000000         3.529627513435153E-011
   66.4050000000000         3.533591494098316E-011
   66.5950000000000         3.537027354750528E-011
   66.7850000000000         3.540127890383860E-011
   66.9750000000000         3.543007084413722E-011
   67.1650000000000         3.545918067999303E-011
   67.3550000000000         3.549063062462384E-011
   67.5450000000000         3.552581784583836E-011
   67.7350000000000         3.556563563692524E-011
   67.9250000000000         3.561048719649129E-011
   68.1150000000000         3.566168775225309E-011
   68.3050000000000         3.572536676404884E-011
   68.4950000000000         3.580748007511488E-011
   68.6850000000000         3.590651504953022E-011
   68.8750000000000         3.601874179595644E-011
   69.0650000000000         3.614201394657354E-011
   69.2550000000000         3.627507901039006E-011
   69.4450000000000         3.641668675178410E-011
   69.6350000000000         3.656348109283438E-011
   69.8250000000000         3.671367467204542E-011
   70.0150000000000         3.686731445394990E-011
   70.2050000000000         3.702274251190404E-011
   70.3950000000000         3.717855829859152E-011
   70.5850000000000         3.733458786831185E-011
   70.7750000000000         3.748871071337762E-011
   70.9650000000000         3.764089293450859E-011
   71.1550000000000         3.779276414729779E-011
   71.3450000000000         3.794461356352919E-011
   71.5350000000000         3.809652576983089E-011
   71.7250000000000         3.824939924803663E-011
   71.9150000000000         3.840321522473991E-011
   72.1050000000000         3.855732411311616E-011
   72.2950000000000         3.871162671647064E-011
   72.4850000000000         3.886407000484694E-011
   72.6750000000000         3.901366546476183E-011
   72.8650000000000         3.916053011710051E-011
   73.0550000000000         3.930506317697249E-011
   73.2450000000000         3.944760473638170E-011
   73.4350000000000         3.958743981537034E-011
   73.6250000000000         3.972223607525020E-011
   73.8150000000000         3.985259072428345E-011
   74.0050000000000         3.998069693200627E-011
   74.1950000000000         4.010608498807785E-011
   74.3850000000000         4.023063718148500E-011
   74.5750000000000         4.035496712890389E-011
   74.7650000000000         4.047642624729851E-011
   74.9550000000000         4.059253495898371E-011
   75.1450000000000         4.070365983939060E-011
   75.3350000000000         4.081489287393193E-011
   75.5250000000000         4.092617348971820E-011
   75.7150000000000         4.103531436564765E-011
   75.9050000000000         4.114311995469448E-011
   76.0950000000000         4.124858440456434E-011
   76.2850000000000         4.135242186972614E-011
   76.4750000000000         4.145752451798015E-011
   76.6650000000000         4.156608248964769E-011
   76.8550000000000         4.167788872793241E-011
   77.0450000000000         4.179099012020577E-011
   77.2350000000000         4.190290223167848E-011
   77.4250000000000         4.200812043916769E-011
   77.6150000000000         4.210210470583437E-011
   77.8050000000000         4.218676909210896E-011
   77.9950000000000         4.226552874406036E-011
   78.1850000000000         4.233839870797011E-011
   78.3750000000000         4.240275107309238E-011
   78.5650000000000         4.245915509554601E-011
   78.7550000000000         4.251089221245836E-011
   78.9450000000000         4.256017514170177E-011
   79.1350000000000         4.260727060666180E-011
   79.3250000000000         4.265090679806909E-011
   79.5150000000000         4.269066190221287E-011
   79.7050000000000         4.272666508959168E-011
   79.8950000000000         4.276239733807411E-011
   80.0850000000000         4.280592371264993E-011
   80.2750000000000         4.286000627997869E-011
   80.4650000000000         4.292114060461126E-011
   80.6550000000000         4.298992872767914E-011
   80.8450000000000         4.306847359926550E-011
   81.0350000000000         4.315773720620234E-011
   81.2250000000000         4.326116492802647E-011
   81.4150000000000         4.338090850011852E-011
   81.6050000000000         4.351596743735632E-011
   81.7950000000000         4.365888599413832E-011
   81.9850000000000         4.380437181543738E-011
   82.1750000000000         4.395774730410095E-011
   82.3650000000000         4.412147433101943E-011
   82.5550000000000         4.429536862138002E-011
   82.7450000000000         4.447598806998092E-011
   82.9350000000000         4.465551968483061E-011
   83.1250000000000         4.483227648542667E-011
   83.3150000000000         4.500792160271920E-011
   83.5050000000000         4.518423453037506E-011
   83.6950000000000         4.536376265973088E-011
   83.8850000000000         4.554550825832463E-011
   84.0750000000000         4.572692393301459E-011
   84.2650000000000         4.590776821397179E-011
   84.4550000000000         4.608899853205965E-011
   84.6450000000000         4.627168011686358E-011
   84.8350000000000         4.645651168252043E-011
   85.0250000000000         4.664236138145644E-011
   85.2150000000000         4.682568090651664E-011
   85.4050000000000         4.700363857933171E-011
   85.5950000000000         4.717238774337788E-011
   85.7850000000000         4.732772122082046E-011
   85.9750000000000         4.746944297334990E-011
   86.1650000000000         4.759779783719057E-011
   86.3550000000000         4.771157030743688E-011
   86.5450000000000         4.780857443954951E-011
   86.7350000000000         4.788761009685686E-011
   86.9250000000000         4.795001960860416E-011
   87.1150000000000         4.800010049526319E-011
   87.3050000000000         4.804114869328454E-011
   87.4950000000000         4.807461319333226E-011
   87.6850000000000         4.810206057948783E-011
   87.8750000000000         4.812619623524522E-011
   88.0650000000000         4.814718974078868E-011
   88.2550000000000         4.816545059764006E-011
   88.4450000000000         4.818424332818445E-011
   88.6350000000000         4.820382178311458E-011
   88.8250000000000         4.822444817042222E-011
   89.0150000000000         4.824924291125103E-011
   89.2050000000000         4.828193798699467E-011
   89.3950000000000         4.833260998825301E-011
   89.5850000000000         4.840687738504572E-011
   89.7750000000000         4.849882427508388E-011
   89.9650000000000         4.860303713128988E-011
   90.1550000000000         4.871906071767801E-011
   90.3450000000000         4.884758247851318E-011
   90.5350000000000         4.898879619373060E-011
   90.7250000000000         4.914237562644414E-011
   90.9150000000000         4.930706840238493E-011
   91.1050000000000         4.948281917003890E-011
   91.2950000000000         4.966771677401947E-011
   91.4850000000000         4.986171627202682E-011
   91.6750000000000         5.006610343948377E-011
   91.8650000000000         5.027705012708032E-011
   92.0550000000000         5.049007783685693E-011
   92.2450000000000         5.070256521657714E-011
   92.4350000000000         5.091301878918461E-011
   92.6250000000000         5.112129866593146E-011
   92.8150000000000         5.132603477699934E-011
   93.0050000000000         5.152606650896692E-011
   93.1950000000000         5.171870391919091E-011
   93.3850000000000         5.189319826784171E-011
   93.5750000000000         5.203994002195019E-011
   93.7650000000000         5.216676022336389E-011
   93.9550000000000         5.228518461839438E-011
   94.1450000000000         5.239455349588037E-011
   94.3350000000000         5.248767548002207E-011
   94.5250000000000         5.256748933473239E-011
   94.7150000000000         5.263701960354311E-011
   94.9050000000000         5.269645484313983E-011
   95.0950000000000         5.275450036793413E-011
   95.2850000000000         5.281253272167583E-011
   95.4750000000000         5.286723655012669E-011
   95.6650000000000         5.291547587852801E-011
   95.8550000000000         5.295654331143862E-011
   96.0450000000000         5.299404354993654E-011
   96.2350000000000         5.302762323608278E-011
   96.4250000000000         5.305721484607565E-011
   96.6150000000000         5.308423606806038E-011
   96.8050000000000         5.310825817526642E-011
   96.9950000000000         5.312938804344275E-011
   97.1850000000000         5.314958826324233E-011
   97.3750000000000         5.317266986243962E-011
   97.5650000000000         5.320247082621092E-011
   97.7550000000000         5.324080904868421E-011
   97.9450000000000         5.328888060717696E-011
   98.1350000000000         5.334932656268208E-011
   98.3250000000000         5.342686864714857E-011
   98.5150000000000         5.352382277809529E-011
   98.7050000000000         5.363894619698323E-011
   98.8950000000000         5.376873314638786E-011
   99.0850000000000         5.390843948182506E-011
   99.2750000000000         5.405945185688790E-011
   99.4650000000000         5.422134668447711E-011
   99.6550000000000         5.438560946302465E-011
   99.8450000000000         5.454868084329516E-011
   100.035000000000         5.471259831565302E-011
   100.225000000000         5.487517772264143E-011
   100.415000000000         5.503280475492496E-011
   100.605000000000         5.518401625905525E-011
   100.795000000000         5.533029909086767E-011
   100.985000000000         5.547417412067584E-011
   101.175000000000         5.561772757556555E-011
   101.365000000000         5.576088754262815E-011
   101.555000000000         5.590125119484942E-011
   101.745000000000         5.603853390605123E-011
   101.935000000000         5.617167359007392E-011
   102.125000000000         5.630400286143391E-011
   102.315000000000         5.644358738926216E-011
   102.505000000000         5.658667289404352E-011
   102.695000000000         5.672654342969124E-011
   102.885000000000         5.686359287411049E-011
   103.075000000000         5.699605295677084E-011
   103.265000000000         5.712646440267101E-011
   103.455000000000         5.725499624111774E-011
   103.645000000000         5.737566084266906E-011
   103.835000000000         5.749060914277864E-011
   104.025000000000         5.760463430258925E-011
   104.215000000000         5.771800452195214E-011
   104.405000000000         5.783279606572585E-011
   104.595000000000         5.795048835964779E-011
   104.785000000000         5.807015085286106E-011
   104.975000000000         5.819010436005149E-011
   105.165000000000         5.830720382420551E-011
   105.355000000000         5.841922629648733E-011
   105.545000000000         5.852651105367996E-011
   105.735000000000         5.863133705454364E-011
   105.925000000000         5.873532516038806E-011
   106.115000000000         5.883806170605827E-011
   106.305000000000         5.893767881539924E-011
   106.495000000000         5.903337985838700E-011
   106.685000000000         5.912619813242116E-011
   106.875000000000         5.921811993275848E-011
   107.065000000000         5.931091969418874E-011
   107.255000000000         5.940426430115202E-011
   107.445000000000         5.949706046863690E-011
   107.635000000000         5.958843371965744E-011
   107.825000000000         5.967825161187597E-011
   108.015000000000         5.976744780052704E-011
   108.205000000000         5.985660458356163E-011
   108.395000000000         5.994580987269076E-011
   108.585000000000         6.003526199403795E-011
   108.775000000000         6.012508915800971E-011
   108.965000000000         6.021597991596163E-011
   109.155000000000         6.030885245326360E-011
   109.345000000000         6.040471580784401E-011
   109.535000000000         6.050369164167915E-011
   109.725000000000         6.060382165735484E-011
   109.915000000000         6.070296781543993E-011
   110.105000000000         6.080125166681148E-011