  -1.42500000000000         0.000000000000000E+000
  -1.23500000000000         2.378898004649208E-020
  -1.04500000000000        -4.938143743310490E-019
 -0.855000000000000        -2.724690080441295E-018
 -0.665000000000000        -1.367957699071077E-017
 -0.475000000000000        -5.963166686315161E-017
 -0.285000000000000        -2.283774404004061E-016
 -9.499999999999975E-002   -7.485892548934161E-016
  9.500000000000020E-002   -2.152575723842823E-015
  0.285000000000000        -5.408874280682193E-015
  0.475000000000000        -1.197113752227142E-014
  0.665000000000000        -2.370574591369689E-014
  0.855000000000000        -4.254632025118540E-014
   1.04500000000000        -7.044962865525718E-014
   1.23500000000000        -1.097130379495912E-013
   1.42500000000000        -1.627458739463087E-013
   1.61500000000000        -2.311965887417485E-013
   1.80500000000000        -3.170334614313382E-013
   1.99500000000000        -4.221575871747822E-013
   2.18500000000000        -5.479697754540725E-013
   2.37500000000000        -6.958328252711221E-013
   2.56500000000000        -8.666610483846717E-013
   2.75500000000000        -1.060890977662443E-012
   2.94500000000000        -1.278672791701517E-012
   3.13500000000000        -1.519989765291985E-012
   3.32500000000000        -1.784648168291373E-012
   3.51500000000000        -2.072566482766826E-012
   3.70500000000000        -2.383393309919899E-012
   3.89500000000000        -2.716960719093349E-012
   4.08500000000000        -3.073049846513669E-012
   4.27500000000000        -3.451440392249999E-012
   4.46500000000000        -3.851853004484412E-012
   4.65500000000000        -4.273800159190002E-012
   4.84500000000000        -4.716487352690881E-012
   5.03500000000000        -5.178827159595158E-012
   5.22500000000000        -5.659665911041892E-012
   5.41500000000000        -6.158734664943603E-012
   5.60500000000000        -6.674857643512275E-012
   5.79500000000000        -7.206830765661586E-012
   5.98500000000000        -7.753288794038061E-012
   6.17500000000000        -8.312487768205917E-012
   6.36500000000000        -8.882566663927509E-012
   6.55500000000000        -9.461653694167358E-012
   6.74500000000000        -1.004869841289589E-011
   6.93500000000000        -1.064307061856430E-011
   7.12500000000000        -1.124433056906879E-011
   7.31500000000000        -1.185287132778984E-011
   7.50500000000000        -1.246972661153579E-011
   7.69500000000000        -1.309674560789235E-011
   7.88500000000000        -1.373615952394915E-011
   8.07500000000000        -1.439022594787928E-011
   8.26500000000000        -1.506144516359291E-011
   8.45500000000000        -1.575179638468561E-011
   8.64500000000000        -1.646272399871503E-011
   8.83500000000000        -1.719583967367541E-011
   9.02500000000000        -1.795244826395583E-011
   9.21500000000000        -1.873423913473102E-011
   9.40500000000000        -1.954088374475160E-011
   9.59500000000000        -2.036954545520963E-011
   9.78500000000000        -2.121699757214606E-011
   9.97500000000000        -2.208068593827230E-011
   10.1650000000000        -2.295829616908240E-011
   10.3550000000000        -2.384776835131031E-011
   10.5450000000000        -2.474730140610185E-011
   10.7350000000000        -2.565594531588340E-011
   10.9250000000000        -2.657337316498747E-011
   11.1150000000000        -2.749945336534419E-011
   11.3050000000000        -2.843394110930213E-011
   11.4950000000000        -2.937641861390615E-011
   11.6850000000000        -3.032641435366120E-011
   11.8750000000000        -3.128358729650986E-011
   12.0650000000000        -3.224789797458653E-011
   12.2550000000000        -3.321958530159167E-011
   12.4450000000000        -3.419908915352792E-011
   12.6350000000000        -3.518709949515883E-011
   12.8250000000000        -3.618377744472817E-011
   13.0150000000000        -3.718971615137918E-011
   13.2050000000000        -3.820514854046313E-011
   13.3950000000000        -3.923013341244871E-011
   13.5850000000000        -4.026431694267921E-011
   13.7750000000000        -4.130671943572674E-011
   13.9650000000000        -4.235623020509144E-011
   14.1550000000000        -4.341193943779328E-011
   14.3450000000000        -4.447355294668757E-011
   14.5350000000000        -4.554048107004853E-011
   14.7250000000000        -4.661259319050872E-011
   14.9150000000000        -4.768971290938467E-011
   15.1050000000000        -4.877186073925974E-011
   15.2950000000000        -4.986001468485350E-011
   15.4850000000000        -5.095616275250978E-011
   15.6750000000000        -5.206265625591111E-011
   15.8650000000000        -5.318110117282791E-011
   16.0550000000000        -5.431305463348075E-011
   16.2450000000000        -5.546012319822873E-011
   16.4350000000000        -5.662343667387146E-011
   16.6250000000000        -5.780367660730302E-011
   16.8150000000000        -5.900146952182092E-011
   17.0050000000000        -6.021745662758249E-011
   17.1950000000000        -6.145179750151409E-011
   17.3850000000000        -6.270489674727063E-011
   17.5750000000000        -6.397688116948414E-011
   17.7650000000000        -6.526813099967852E-011
   17.9550000000000        -6.657877604699967E-011
   18.1450000000000        -6.790900386753435E-011
   18.3350000000000        -6.925897165885401E-011
   18.5250000000000        -7.062883674382006E-011
   18.7150000000000        -7.201875418601261E-011
   18.9050000000000        -7.342884763176268E-011
   19.0950000000000        -7.485898511620099E-011
   19.2850000000000        -7.630882914255785E-011
   19.4750000000000        -7.777776170641566E-011
   19.6650000000000        -7.926490574006849E-011
   19.8550000000000        -8.076928622838843E-011
   20.0450000000000        -8.228978664590388E-011
   20.2350000000000        -8.382514303047004E-011
   20.4250000000000        -8.537434379397257E-011
   20.6150000000000        -8.693639578884982E-011
   20.8050000000000        -8.851007881175807E-011
   20.9950000000000        -9.009428440402213E-011
   21.1850000000000        -9.168808821584292E-011
   21.3750000000000        -9.329123243060282E-011
   21.5650000000000        -9.490291629334249E-011
   21.7550000000000        -9.652302822777335E-011
   21.9450000000000        -9.815141133741725E-011
   22.1350000000000        -9.978793915849345E-011
   22.3250000000000        -1.014329173072534E-010
   22.5150000000000        -1.030880404542129E-010
   22.7050000000000        -1.047556287854893E-010
   22.8950000000000        -1.064382019390484E-010
   23.0850000000000        -1.081382489790675E-010
   23.2750000000000        -1.098586052351183E-010
   23.4650000000000        -1.116017095971064E-010
   23.6550000000000        -1.133693213032830E-010
   23.8450000000000        -1.151638038419675E-010
   24.0350000000000        -1.169874794423797E-010
   24.2250000000000        -1.188419909826024E-010
   24.4150000000000        -1.207287184329717E-010
   24.6050000000000        -1.226484189933048E-010
   24.7950000000000        -1.246012680975207E-010
   24.9850000000000        -1.265865802935820E-010
   25.1750000000000        -1.286034032239056E-010
   25.3650000000000        -1.306504650922865E-010
   25.5550000000000        -1.327261473249010E-010
   25.7450000000000        -1.348291142874095E-010
   25.9350000000000        -1.369568963299820E-010
   26.1250000000000        -1.391072415744227E-010
   26.3150000000000        -1.412785236146020E-010
   26.5050000000000        -1.434692747456148E-010
   26.6950000000000        -1.456780585241621E-010
   26.8850000000000        -1.479036306956251E-010
   27.0750000000000        -1.501447678193721E-010
   27.2650000000000        -1.524001692743422E-010
   27.4550000000000        -1.546687823676331E-010
   27.6450000000000        -1.569501668856987E-010
   27.8350000000000        -1.592443270241037E-010
   28.0250000000000        -1.615512238558232E-010
   28.2150000000000        -1.638711946120321E-010
   28.4050000000000        -1.662042319394823E-010
   28.5950000000000        -1.685501743340371E-010
   28.7850000000000        -1.709076323806490E-010
   28.9750000000000        -1.732752277267414E-010
   29.1650000000000        -1.756501431981157E-010
   29.3550000000000        -1.780289774156113E-010
   29.5450000000000        -1.804070808067791E-010
   29.7350000000000        -1.827801758275975E-010
   29.9250000000000        -1.851445715527244E-010
   30.1150000000000        -1.874967416968899E-010
   30.3050000000000        -1.898343492641094E-010
   30.4950000000000        -1.921560031621929E-010
   30.6850000000000        -1.944610115688192E-010
   30.8750000000000        -1.967485898909309E-010
   31.0650000000000        -1.990191040601762E-010
   31.2550000000000        -2.012746838813650E-010
   31.4450000000000        -2.035192161729683E-010
   31.6350000000000        -2.057570238557443E-010
   31.8250000000000        -2.079932535948399E-010
   32.0150000000000        -2.102321801685857E-010
   32.2050000000000        -2.124774153410102E-010
   32.3950000000000        -2.147329261682940E-010
   32.5850000000000        -2.170019398621260E-010
   32.7750000000000        -2.192873203180130E-010
   32.9650000000000        -2.215907479756900E-010
   33.1550000000000        -2.239132327367358E-010
   33.3450000000000        -2.262553838765118E-010
   33.5350000000000        -2.286178578142037E-010
   33.7250000000000        -2.310014118869439E-010
   33.9150000000000        -2.334065445679965E-010
   34.1050000000000        -2.358329262895137E-010
   34.2950000000000        -2.382789267115747E-010
   34.4850000000000        -2.407422785941858E-010
   34.6750000000000        -2.432211922345893E-010
   34.8650000000000        -2.457136816370536E-010
   35.0550000000000        -2.482177052334545E-010
   35.2450000000000        -2.507313733527187E-010
   35.4350000000000        -2.532526498145191E-010
   35.6250000000000        -2.557809630544628E-010
   35.8150000000000        -2.583168786713249E-010
   36.0050000000000        -2.608614828178892E-010
   36.1950000000000        -2.634160959182018E-010
   36.3850000000000        -2.659819291352734E-010
   36.5750000000000        -2.685592365583828E-010
   36.7650000000000        -2.711487812011904E-010
   36.9550000000000        -2.737507903922617E-010
   37.1450000000000        -2.763657688516391E-010
   37.3350000000000        -2.789940628071027E-010
   37.5250000000000        -2.816358312138998E-010
   37.7150000000000        -2.842911452815966E-010
   37.9050000000000        -2.869600057935391E-010
   38.0950000000000        -2.896423749109640E-010
   38.2850000000000        -2.923382606752038E-010
   38.4750000000000        -2.950478286103681E-010
   38.6650000000000        -2.977727917318190E-010
   38.8550000000000        -3.005165806411703E-010
   39.0450000000000        -3.032826558718554E-010
   39.2350000000000        -3.060745696377823E-010
   39.4250000000000        -3.088960149180171E-010
   39.6150000000000        -3.117502224573936E-010
   39.8050000000000        -3.146400376732504E-010
   39.9950000000000        -3.175682124304691E-010
   40.1850000000000        -3.205362164224056E-010
   40.3750000000000        -3.235453335231484E-010
   40.5650000000000        -3.265958039883395E-010
   40.7550000000000        -3.296879036504428E-010
   40.9450000000000        -3.328220342861446E-010
   41.1350000000000        -3.359982955688121E-010
   41.3250000000000        -3.392152054206045E-010
   41.5150000000000        -3.424696222155993E-010
   41.7050000000000        -3.457583261567603E-010
   41.8950000000000        -3.490779537500258E-010
   42.0850000000000        -3.524248216490537E-010
   42.2750000000000        -3.557952091940135E-010
   42.4650000000000        -3.591855830441751E-010
   42.6550000000000        -3.625924400470212E-010
   42.8450000000000        -3.660124793563062E-010
   43.0350000000000        -3.694425145267976E-010
   43.2250000000000        -3.728798747007078E-010
   43.4150000000000        -3.763228774929612E-010
   43.6050000000000        -3.797692981949098E-010
   43.7950000000000        -3.832185795808814E-010
   43.9850000000000        -3.866698498502120E-010
   44.1750000000000        -3.901224332180272E-010
   44.3650000000000        -3.935754807355337E-010
   44.5550000000000        -3.970280041181679E-010
   44.7450000000000        -4.004795460735615E-010
   44.9350000000000        -4.039321950042164E-010
   45.1250000000000        -4.073902952916593E-010
   45.3150000000000        -4.108595242075101E-010
   45.5050000000000        -4.143446928131092E-010
   45.6950000000000        -4.178502393308629E-010
   45.8850000000000        -4.213794944565220E-010
   46.0750000000000        -4.249347937984875E-010
   46.2650000000000        -4.285171298184155E-010
   46.4550000000000        -4.321270829330935E-010
   46.6450000000000        -4.357649747513236E-010
   46.8350000000000        -4.394311801690614E-010
   47.0250000000000        -4.431250513294090E-010
   47.2150000000000        -4.468440793279714E-010
   47.4050000000000        -4.505832432346959E-010
   47.5950000000000        -4.543386016285041E-010
   47.7850000000000        -4.581065960886911E-010
   47.9750000000000        -4.618838961969972E-010
   48.1650000000000        -4.656674624441606E-010
   48.3550000000000        -4.694546712758166E-010
   48.5450000000000        -4.732428658049556E-010
   48.7350000000000        -4.770302925507803E-010
   48.9250000000000        -4.808157105217481E-010
   49.1150000000000        -4.845981534026214E-010
   49.3050000000000        -4.883769069965310E-010
   49.4950000000000        -4.921510335506094E-010
   49.6850000000000        -4.959207826886230E-010
   49.8750000000000        -4.996885902739103E-010
   50.0650000000000        -5.034586568750108E-010
   50.2550000000000        -5.072353186961605E-010
   50.4450000000000        -5.110226709962597E-010
   50.6350000000000        -5.148242624353217E-010
   50.8250000000000        -5.186425886797342E-010
   51.0150000000000        -5.224806007478183E-010
   51.2050000000000        -5.263384725784779E-010
   51.3950000000000        -5.302169826873651E-010
   51.5850000000000        -5.341175477680836E-010
   51.7750000000000        -5.380424210589172E-010
   51.9650000000000        -5.419916060284495E-010
   52.1550000000000        -5.459629286049752E-010
   52.3450000000000        -5.499527913460944E-010
   52.5350000000000        -5.539588770108180E-010
   52.7250000000000        -5.579786298158329E-010
   52.9150000000000        -5.620106479392232E-010
   53.1050000000000        -5.660540761938568E-010
   53.2950000000000        -5.701084336512057E-010
   53.4850000000000        -5.741735176103488E-010
   53.6750000000000        -5.782498974229424E-010
   53.8650000000000        -5.823387264345076E-010
   54.0550000000000        -5.864414457345615E-010
   54.2450000000000        -5.905597841540935E-010
   54.4350000000000        -5.946958098667207E-010
   54.6250000000000        -5.988517521645232E-010
   54.8150000000000        -6.030297373674415E-010
   55.0050000000000        -6.072318351841554E-010
   55.1950000000000        -6.114600364023693E-010
   55.3850000000000        -6.157157850341782E-010
   55.5750000000000        -6.200002249128238E-010
   55.7650000000000        -6.243139905145088E-010
   55.9550000000000        -6.286575858651633E-010
   56.1450000000000        -6.330311315452424E-010
   56.3350000000000        -6.374330686077335E-010
   56.5250000000000        -6.418610364838338E-010
   56.7150000000000        -6.463122695211802E-010
   56.9050000000000        -6.507837730126847E-010
   57.0950000000000        -6.552721524227874E-010
   57.2850000000000        -6.597739846175790E-010
   57.4750000000000        -6.642870280341703E-010
   57.6650000000000        -6.688091175468677E-010
   57.8550000000000        -6.733383351560083E-010
   58.0450000000000        -6.778736628977158E-010
   58.2350000000000        -6.824144974648946E-010
   58.4250000000000        -6.869604375727308E-010
   58.6150000000000        -6.915110833742806E-010
   58.8050000000000        -6.960662466727154E-010
   58.9950000000000        -7.006258675944112E-010
   59.1850000000000        -7.051900023538257E-010
   59.3750000000000        -7.097587790491047E-010
   59.5650000000000        -7.143323474657038E-010
   59.7550000000000        -7.189108697265984E-010
   59.9450000000000        -7.234946261371942E-010
   60.1350000000000        -7.280840395109997E-010
   60.3250000000000        -7.326798209029857E-010
   60.5150000000000        -7.372830768911350E-010
   60.7050000000000        -7.418951132630453E-010
   60.8950000000000        -7.465170180133717E-010
   61.0850000000000        -7.511494849845028E-010
   61.2750000000000        -7.557921496465897E-010
   61.4650000000000        -7.604441629898087E-010
   61.6550000000000        -7.651051061755540E-010
   61.8450000000000        -7.697739098978495E-010
   62.0350000000000        -7.744496605615261E-010
   62.2250000000000        -7.791321583111114E-010
   62.4150000000000        -7.838202893368529E-010
   62.6050000000000        -7.885134747249492E-010
   62.7950000000000        -7.932111027934779E-010
   62.9850000000000        -7.979130806097530E-010
   63.1750000000000        -8.026192318146683E-010
   63.3650000000000        -8.073294008135495E-010
   63.5550000000000        -8.120434249596444E-010
   63.7450000000000        -8.167611673181746E-010
   63.9350000000000        -8.214825055810029E-010
   64.1250000000000        -8.262074532872776E-010
   64.3150000000000        -8.309361565918031E-010
   64.5050000000000        -8.356689619942496E-010
   64.6950000000000        -8.404063539595492E-010
   64.8850000000000        -8.451490507339791E-010
   65.0750000000000        -8.498979363446161E-010
   65.2650000000000        -8.546533907398318E-010
   65.4550000000000        -8.594161458487810E-010
   65.6450000000000        -8.641870231605223E-010
   65.8350000000000        -8.689667012581804E-010
   66.0250000000000        -8.737557716693733E-010
   66.2150000000000        -8.785545855581935E-010
   66.4050000000000        -8.833632713978402E-010
   66.5950000000000        -8.881818786732887E-010
   66.7850000000000        -8.930101989422633E-010
   66.9750000000000        -8.978481605966928E-010
   67.1650000000000        -9.026956374552656E-010
   67.3550000000000        -9.075526015488685E-010
   67.5450000000000        -9.124191471029729E-010
   67.7350000000000        -9.172955427277836E-010
   67.9250000000000        -9.221822367543537E-010
   68.1150000000000        -9.270798707732362E-010
   68.3050000000000        -9.319892414189149E-010
   68.4950000000000        -9.369114684130023E-010
   68.6850000000000        -9.418476284213376E-010
   68.8750000000000        -9.467985875040166E-010
   69.0650000000000        -9.517652043297063E-010
   69.2550000000000        -9.567483772667738E-010
   69.4450000000000        -9.617491221346276E-010
   69.6350000000000        -9.667684441594076E-010
   69.8250000000000        -9.718071003275617E-010
   70.0150000000000        -9.768655663748066E-010
   70.2050000000000        -9.819444891656446E-010
   70.3950000000000        -9.870444171545541E-010
   70.5850000000000        -9.921659620186200E-010
   70.7750000000000        -9.973096975874339E-010
   70.9650000000000        -1.002476252021961E-009
   71.1550000000000        -1.007666585646272E-009
   71.3450000000000        -1.012882394694936E-009
   71.5350000000000        -1.018124978679203E-009
   71.7250000000000        -1.023396156884043E-009
   71.9150000000000        -1.028696532893325E-009
   72.1050000000000        -1.034027441522784E-009
   72.2950000000000        -1.039389286290067E-009
   72.4850000000000        -1.044782470461989E-009
   72.6750000000000        -1.050207283295888E-009
   72.8650000000000        -1.055663885257068E-009
   73.0550000000000        -1.061152654364045E-009
   73.2450000000000        -1.066673930940718E-009
   73.4350000000000        -1.072228019545921E-009
   73.6250000000000        -1.077815013275439E-009
   73.8150000000000        -1.083434393385545E-009
   74.0050000000000        -1.089084873047096E-009
   74.1950000000000        -1.094764183870818E-009
   74.3850000000000        -1.100469829687945E-009
   74.5750000000000        -1.106198630335370E-009
   74.7650000000000        -1.111947337019065E-009
   74.9550000000000        -1.117712926288603E-009
   75.1450000000000        -1.123492871161356E-009
   75.3350000000000        -1.129285007188838E-009
   75.5250000000000        -1.135089057295783E-009
   75.7150000000000        -1.140903547376188E-009
   75.9050000000000        -1.146728391718810E-009
   76.0950000000000        -1.152563254909482E-009
   76.2850000000000        -1.158407526841775E-009
   76.4750000000000        -1.164260680704659E-009
   76.6650000000000        -1.170122527371818E-009
   76.8550000000000        -1.175993114060337E-009
   77.0450000000000        -1.181872391933190E-009
   77.2350000000000        -1.187760335799272E-009
   77.4250000000000        -1.193656916422834E-009
   77.6150000000000        -1.199561217574079E-009
   77.8050000000000        -1.205471456219502E-009
   77.9950000000000        -1.211385473367625E-009
   78.1850000000000        -1.217300952204017E-009
   78.3750000000000        -1.223215367501748E-009
   78.5650000000000        -1.229126178780652E-009
   78.7550000000000        -1.235031111490306E-009
   78.9450000000000        -1.240928219514625E-009
   79.1350000000000        -1.246816854643323E-009
   79.3250000000000        -1.252695920625266E-009
   79.5150000000000        -1.258564956533736E-009
   79.7050000000000        -1.264423464050877E-009
   79.8950000000000        -1.270270984883046E-009
   80.0850000000000        -1.276107899104901E-009
   80.2750000000000        -1.281936819086170E-009
   80.4650000000000        -1.287761473055412E-009
   80.6550000000000        -1.293586933665766E-009
   80.8450000000000        -1.299417714247754E-009
   81.0350000000000        -1.305258344233728E-009
   81.2250000000000        -1.311113438739620E-009
   81.4150000000000        -1.316987208177451E-009
   81.6050000000000        -1.322883479398485E-009
   81.7950000000000        -1.328805857905719E-009
   81.9850000000000        -1.334756917366442E-009
   82.1750000000000        -1.340738778147137E-009
   82.3650000000000        -1.346753096448411E-009
   82.5550000000000        -1.352801593127196E-009
   82.7450000000000        -1.358885995378374E-009
   82.9350000000000        -1.365005744159806E-009
   83.1250000000000        -1.371158559680483E-009
   83.3150000000000        -1.377341390308003E-009
   83.5050000000000        -1.383551422527496E-009
   83.6950000000000        -1.389786055891424E-009
   83.8850000000000        -1.396043767508768E-009
   84.0750000000000        -1.402322441546619E-009
   84.2650000000000        -1.408621775701930E-009
   84.4550000000000        -1.414941218941839E-009
   84.6450000000000        -1.421280590083218E-009
   84.8350000000000        -1.427639675220673E-009
   85.0250000000000        -1.434018205975572E-009
   85.2150000000000        -1.440415600718067E-009
   85.4050000000000        -1.446831058054755E-009
   85.5950000000000        -1.453263752134684E-009
   85.7850000000000        -1.459712792164943E-009
   85.9750000000000        -1.466178068400096E-009
   86.1650000000000        -1.472659971277574E-009
   86.3550000000000        -1.479159040461789E-009
   86.5450000000000        -1.485675786724033E-009
   86.7350000000000        -1.492210459075695E-009
   86.9250000000000        -1.498763097329285E-009
   87.1150000000000        -1.505333572526752E-009
   87.3050000000000        -1.511921832959205E-009
   87.4950000000000        -1.518527762567091E-009
   87.6850000000000        -1.525151309790011E-009
   87.8750000000000        -1.531792579009206E-009
   88.0650000000000        -1.538451746098607E-009
   88.2550000000000        -1.545128896086569E-009
   88.4450000000000        -1.551824016533150E-009
   88.6350000000000        -1.558537086612868E-009
   88.8250000000000        -1.565268026876019E-009
   89.0150000000000        -1.572016864243027E-009
   89.2050000000000        -1.578783950162821E-009
   89.3950000000000        -1.585570099535170E-009
   89.5850000000000        -1.592376666955389E-009
   89.7750000000000        -1.599203854088624E-009
   89.9650000000000        -1.606051319063910E-009
   90.1550000000000        -1.612918555432511E-009
   90.3450000000000        -1.619805418820984E-009
   90.5350000000000        -1.626711786702020E-009
   90.7250000000000        -1.633637703047829E-009
   90.9150000000000        -1.640583121578975E-009
   91.1050000000000        -1.647547990310158E-009
   91.2950000000000        -1.654532096457748E-009
   91.4850000000000        -1.661535144141122E-009
   91.6750000000000        -1.668556804916733E-009
   91.8650000000000        -1.675596428796415E-009
   92.0550000000000        -1.682652993014337E-009
   92.2450000000000        -1.689725494280460E-009
   92.4350000000000        -1.696813239406175E-009
   92.6250000000000        -1.703915575869417E-009
   92.8150000000000        -1.711031630687817E-009
   93.0050000000000        -1.718160477295643E-009
   93.1950000000000        -1.725300800383798E-009
   93.3850000000000        -1.732450642425986E-009
   93.5750000000000        -1.739607072109680E-009
   93.7650000000000        -1.746767800427661E-009
   93.9550000000000        -1.753932473207045E-009
   94.1450000000000        -1.761101984964620E-009
   94.3350000000000        -1.768277275476520E-009
   94.5250000000000        -1.775459376954894E-009
   94.7150000000000        -1.782649513440960E-009
   94.9050000000000        -1.789848776090027E-009
   95.0950000000000        -1.797058591320055E-009
   95.2850000000000        -1.804280111850207E-009
   95.4750000000000        -1.811514092862208E-009
   95.6650000000000        -1.818760761504588E-009
   95.8550000000000        -1.826020893627424E-009
   96.0450000000000        -1.833294497793762E-009
   96.2350000000000        -1.840581713911931E-009
   96.4250000000000        -1.847882607026504E-009
   96.6150000000000        -1.855197074747401E-009
   96.8050000000000        -1.862524808214449E-009
   96.9950000000000        -1.869865269566552E-009
   97.1850000000000        -1.877217851896364E-009
   97.3750000000000        -1.884582042765625E-009
   97.5650000000000        -1.891957772536031E-009
   97.7550000000000        -1.899345046856022E-009
   97.9450000000000        -1.906744178914053E-009
   98.1350000000000        -1.914155785169813E-009
   98.3250000000000        -1.921580982552962E-009
   98.5150000000000        -1.929021362374429E-009
   98.7050000000000        -1.936478475746420E-009
   98.8950000000000        -1.943953544301457E-009
   99.0850000000000        -1.951447366994318E-009
   99.2750000000000        -1.958960380401893E-009
   99.4650000000000        -1.966492992809441E-009
   99.6550000000000        -1.974044281901834E-009
   99.8450000000000        -1.981612528191196E-009
   100.035000000000        -1.989195144417452E-009
   100.225000000000        -1.996788786561103E-009
   100.415000000000        -2.004389847035242E-009
   100.605000000000        -2.011994604914623E-009
   100.795000000000        -2.019599262592396E-009
   100.985000000000        -2.027200510175375E-009
   101.175000000000        -2.034795408716397E-009
   101.365000000000        -2.042382646394223E-009
   101.555000000000        -2.049960635037215E-009
   101.745000000000        -2.057528632194097E-009
   101.935000000000        -2.065085517874541E-009
   102.125000000000        -2.072629823383592E-009
   102.315000000000        -2.080162285848156E-009
   102.505000000000        -2.087686962746970E-009
   102.695000000000        -2.095208933251717E-009
   102.885000000000        -2.102733648772055E-009
   103.075000000000        -2.110266124378175E-009
   103.265000000000        -2.117810791944679E-009
   103.455000000000        -2.125371705397914E-009
   103.645000000000        -2.132951801660091E-009
   103.835000000000        -2.140553422192507E-009
   104.025000000000        -2.148178123084419E-009
   104.215000000000        -2.155827001622659E-009
   104.405000000000        -2.163500257708121E-009
   104.595000000000        -2.171198168969858E-009
   104.785000000000        -2.178921121205260E-009
   104.975000000000        -2.186669516714694E-009
   105.165000000000        -2.194443603248250E-009
   105.355000000000        -2.202243356144360E-009
   105.545000000000        -2.210068533717054E-009
   105.735000000000        -2.217918712808382E-009
   105.925000000000        -2.225793279165576E-009
   106.115000000000        -2.233691497190223E-009
   106.305000000000        -2.241612638528410E-009
   106.495000000000        -2.249555691564961E-009
   106.685000000000        -2.257520001568453E-009
   106.875000000000        -2.265504422851667E-009
   107.065000000000        -2.273508325897483E-009
   107.255000000000        -2.281530811485837E-009
   107.445000000000        -2.289571049215666E-009
   107.635000000000        -2.297628380385585E-009
   107.825000000000        -2.305702299768153E-009
   108.015000000000        -2.313792472720923E-009
   108.205000000000        -2.321898709345058E-009
   108.395000000000        -2.330020871220693E-009
   108.585000000000        -2.338158770640254E-009
   108.775000000000        -2.346312188234810E-009
   108.965000000000        -2.354480944084189E-009
   109.155000000000        -2.362664791083808E-009
   109.345000000000        -2.370863710606771E-009
   109.535000000000        -2.379077393969732E-009
   109.725000000000        -2.387305761581997E-009
   109.915000000000        -2.395548689115170E-009
   110.105000000000        -2.403806027930013E-009