  -1.42500000000000         0.000000000000000E+000
  -1.23500000000000         2.585896692316364E-020
  -1.04500000000000        -6.895560404562305E-019
 -0.855000000000000        -5.183771743171020E-018
 -0.665000000000000        -2.433717214195040E-017
 -0.475000000000000        -9.241496294207474E-017
 -0.285000000000000        -3.097677455994230E-016
 -9.499999999999975E-002   -9.334183015545898E-016
  9.500000000000020E-002   -2.533612263973782E-015
  0.285000000000000        -6.258453246239338E-015
  0.475000000000000        -1.398622555040482E-014
  0.665000000000000        -2.834697082463100E-014
  0.855000000000000        -5.223790216867133E-014
   1.04500000000000        -8.796367392278891E-014
   1.23500000000000        -1.379391673339264E-013
   1.42500000000000        -2.051698382334396E-013
   1.61500000000000        -2.916414234583681E-013
   1.80500000000000        -3.998945421679865E-013
   1.99500000000000        -5.324245814184038E-013
   2.18500000000000        -6.907925806745334E-013
   2.37500000000000        -8.765690200891112E-013
   2.56500000000000        -1.090667212955245E-012
   2.75500000000000        -1.333313975975945E-012
   2.94500000000000        -1.604530736523692E-012
   3.13500000000000        -1.904112028804868E-012
   3.32500000000000        -2.231861747748070E-012
   3.51500000000000        -2.587608072799545E-012
   3.70500000000000        -2.970888510006346E-012
   3.89500000000000        -3.381480147982884E-012
   4.08500000000000        -3.819088165447279E-012
   4.27500000000000        -4.283410629933200E-012
   4.46500000000000        -4.774071912952058E-012
   4.65500000000000        -5.290406573198529E-012
   4.84500000000000        -5.831349034404947E-012
   5.03500000000000        -6.395524239329516E-012
   5.22500000000000        -6.981540112855225E-012
   5.41500000000000        -7.589088580064274E-012
   5.60500000000000        -8.216890998167170E-012
   5.79500000000000        -8.863640215863190E-012
   5.98500000000000        -9.527616323558620E-012
   6.17500000000000        -1.020664792690628E-011
   6.36500000000000        -1.089855395838494E-011
   6.55500000000000        -1.160101546349732E-011
   6.74500000000000        -1.231292626307272E-011
   6.93500000000000        -1.303365021503768E-011
   7.12500000000000        -1.376266155525090E-011
   7.31500000000000        -1.450065009565702E-011
   7.50500000000000        -1.524948757713576E-011
   7.69500000000000        -1.601146948182209E-011
   7.88500000000000        -1.678937284395904E-011
   8.07500000000000        -1.758600393543791E-011
   8.26500000000000        -1.840433988369567E-011
   8.45500000000000        -1.924655164173972E-011
   8.64500000000000        -2.011463160675384E-011
   8.83500000000000        -2.101053275327431E-011
   9.02500000000000        -2.193572197843543E-011
   9.21500000000000        -2.289175949457032E-011
   9.40500000000000        -2.387773259101832E-011
   9.59500000000000        -2.488951524243047E-011
   9.78500000000000        -2.592276666091046E-011
   9.97500000000000        -2.697519611758541E-011
   10.1650000000000        -2.804376890759039E-011
   10.3550000000000        -2.912601062494479E-011
   10.5450000000000        -3.021995046912850E-011
   10.7350000000000        -3.132416104740642E-011
   10.9250000000000        -3.243831912012288E-011
   11.1150000000000        -3.356226791537444E-011
   11.3050000000000        -3.469569082146569E-011
   11.4950000000000        -3.583809599962373E-011
   11.6850000000000        -3.698898718913498E-011
   11.8750000000000        -3.814814033151470E-011
   12.0650000000000        -3.931577497047769E-011
   12.2550000000000        -4.049247792513060E-011
   12.4450000000000        -4.167904614653009E-011
   12.6350000000000        -4.287654095150111E-011
   12.8250000000000        -4.408517527888446E-011
   13.0150000000000        -4.530571684312112E-011
   13.2050000000000        -4.653836633504854E-011
   13.3950000000000        -4.778304578206908E-011
   13.5850000000000        -4.903914352244923E-011
   13.7750000000000        -5.030505324210970E-011
   13.9650000000000        -5.157925098913432E-011
   14.1550000000000        -5.286061261403277E-011
   14.3450000000000        -5.414887747966149E-011
   14.5350000000000        -5.544327089453062E-011
   14.7250000000000        -5.674364933166334E-011
   14.9150000000000        -5.804978773293421E-011
   15.1050000000000        -5.936180839227309E-011
   15.2950000000000        -6.068131867993379E-011
   15.4850000000000        -6.201096407814993E-011
   15.6750000000000        -6.335369535855876E-011
   15.8650000000000        -6.471141370239037E-011
   16.0550000000000        -6.608605536323428E-011
   16.2450000000000        -6.747963171942975E-011
   16.4350000000000        -6.889352506234268E-011
   16.6250000000000        -7.032859292816245E-011
   16.8150000000000        -7.178560801902008E-011
   17.0050000000000        -7.326539231846232E-011
   17.1950000000000        -7.476824269084637E-011
   17.3850000000000        -7.629467659443850E-011
   17.5750000000000        -7.784488528534029E-011
   17.7650000000000        -7.941932054104178E-011
   17.9550000000000        -8.101815015783015E-011
   18.1450000000000        -8.264159612759827E-011
   18.3350000000000        -8.428983208412399E-011
   18.5250000000000        -8.596302296748142E-011
   18.7150000000000        -8.766132144361328E-011
   18.9050000000000        -8.938479570346862E-011
   19.0950000000000        -9.113316280615310E-011
   19.2850000000000        -9.290586065955737E-011
   19.4750000000000        -9.470198078786837E-011
   19.6650000000000        -9.652041257587780E-011
   19.8550000000000        -9.835991831659064E-011
   20.0450000000000        -1.002188065971231E-010
   20.2350000000000        -1.020954606525065E-010
   20.4250000000000        -1.039885590881917E-010
   20.6150000000000        -1.058967817438735E-010
   20.8050000000000        -1.078184806841529E-010
   20.9950000000000        -1.097522435641837E-010
   21.1850000000000        -1.116969660113643E-010
   21.3750000000000        -1.136524229517858E-010
   21.5650000000000        -1.156176070667001E-010
   21.7550000000000        -1.175923740588166E-010
   21.9450000000000        -1.195765206609839E-010
   22.1350000000000        -1.215699581347530E-010
   22.3250000000000        -1.235733105401523E-010
   22.5150000000000        -1.255890685286080E-010
   22.7050000000000        -1.276202741242791E-010
   22.8950000000000        -1.296701425234896E-010
   23.0850000000000        -1.317420418405321E-010
   23.2750000000000        -1.338390064010599E-010
   23.4650000000000        -1.359640672558931E-010
   23.6550000000000        -1.381194520293033E-010
   23.8450000000000        -1.403079843083674E-010
   24.0350000000000        -1.425322744476045E-010
   24.2250000000000        -1.447942263083840E-010
   24.4150000000000        -1.470951979576226E-010
   24.6050000000000        -1.494360099929749E-010
   24.7950000000000        -1.518166825054968E-010
   24.9850000000000        -1.542365165230561E-010
   25.1750000000000        -1.566942637306241E-010
   25.3650000000000        -1.591882504925434E-010
   25.5550000000000        -1.617163521892270E-010
   25.7450000000000        -1.642767618175049E-010
   25.9350000000000        -1.668662083636306E-010
   26.1250000000000        -1.694817292535428E-010
   26.3150000000000        -1.721213533014816E-010
   26.5050000000000        -1.747833364186081E-010
   26.6950000000000        -1.774658666053177E-010
   26.8850000000000        -1.801674879949434E-010
   27.0750000000000        -1.828868825303212E-010
   27.2650000000000        -1.856227695882438E-010
   27.4550000000000        -1.883743726975921E-010
   27.6450000000000        -1.911416337895993E-010
   27.8350000000000        -1.939248966661034E-010
   28.0250000000000        -1.967241377255424E-010
   28.2150000000000        -1.995398083544406E-010
   28.4050000000000        -2.023719553830196E-010
   28.5950000000000        -2.052201401021484E-010
   28.7850000000000        -2.080825370855431E-010
   28.9750000000000        -2.109570155033594E-010
   29.1650000000000        -2.138399825861376E-010
   29.3550000000000        -2.167269531181792E-010
   29.5450000000000        -2.196120052596675E-010
   29.7350000000000        -2.224900539422880E-010
   29.9250000000000        -2.253566241985745E-010
   30.1150000000000        -2.282076570127452E-010
   30.3050000000000        -2.310400139835584E-010
   30.4950000000000        -2.338522222583070E-010
   30.6850000000000        -2.366434551182987E-010
   30.8750000000000        -2.394131218487145E-010
   31.0650000000000        -2.421617624467575E-010
   31.2550000000000        -2.448924353742976E-010
   31.4450000000000        -2.476108605329104E-010
   31.6350000000000        -2.503225153627587E-010
   31.8250000000000        -2.530331921642056E-010
   32.0150000000000        -2.557489553273745E-010
   32.2050000000000        -2.584744532271113E-010
   32.3950000000000        -2.612134376609561E-010
   32.5850000000000        -2.639699052038613E-010
   32.7750000000000        -2.667470657577466E-010
   32.9650000000000        -2.695470458633174E-010
   33.1550000000000        -2.723712166849329E-010
   33.3450000000000        -2.752202704397386E-010
   33.5350000000000        -2.780950214439886E-010
   33.7250000000000        -2.809962865455328E-010
   33.9150000000000        -2.839243879076569E-010
   34.1050000000000        -2.868783261814219E-010
   34.2950000000000        -2.898553119551432E-010
   34.4850000000000        -2.928520150061728E-010
   34.6750000000000        -2.958662710883669E-010
   34.8650000000000        -2.988956100166884E-010
   35.0550000000000        -3.019375960405728E-010
   35.2450000000000        -3.049900682224824E-010
   35.4350000000000        -3.080511442581784E-010
   35.6250000000000        -3.111207414671459E-010
   35.8150000000000        -3.142000419239886E-010
   36.0050000000000        -3.172907250784346E-010
   36.1950000000000        -3.203945692123250E-010
   36.3850000000000        -3.235131749935263E-010
   36.5750000000000        -3.266467003105501E-010
   36.7650000000000        -3.297960679267262E-010
   36.9550000000000        -3.329614157211918E-010
   37.1450000000000        -3.361432341343862E-010
   37.3350000000000        -3.393417600681325E-010
   37.5250000000000        -3.425570197097805E-010
   37.7150000000000        -3.457889090554974E-010
   37.9050000000000        -3.490372244907255E-010
   38.0950000000000        -3.523017237522233E-010
   38.2850000000000        -3.555822831235503E-010
   38.4750000000000        -3.588791207766398E-010
   38.6650000000000        -3.621943823989330E-010
   38.8550000000000        -3.655335604500105E-010
   39.0450000000000        -3.689008082571156E-010
   39.2350000000000        -3.723005450489986E-010
   39.4250000000000        -3.757374133913706E-010
   39.6150000000000        -3.792155194964218E-010
   39.8050000000000        -3.827375666999697E-010
   39.9950000000000        -3.863069680066470E-010
   40.1850000000000        -3.899253242152588E-010
   40.3750000000000        -3.935942466236828E-010
   40.5650000000000        -3.973139138985250E-010
   40.7550000000000        -4.010846024311387E-010
   40.9450000000000        -4.049066703672191E-010
   41.1350000000000        -4.087798820592331E-010
   41.3250000000000        -4.127017906300074E-010
   41.5150000000000        -4.166683655818732E-010
   41.7050000000000        -4.206752361369102E-010
   41.8950000000000        -4.247182413626490E-010
   42.0850000000000        -4.287930644398694E-010
   42.2750000000000        -4.328952205784117E-010
   42.4650000000000        -4.370205847268494E-010
   42.6550000000000        -4.411650799312271E-010
   42.8450000000000        -4.453251337636411E-010
   43.0350000000000        -4.494971787411445E-010
   43.2250000000000        -4.536780191227807E-010
   43.4150000000000        -4.578653348231910E-010
   43.6050000000000        -4.620563237586885E-010
   43.7950000000000        -4.662503406628626E-010
   43.9850000000000        -4.704461613495809E-010
   44.1750000000000        -4.746428387369523E-010
   44.3650000000000        -4.788392069969880E-010
   44.5550000000000        -4.830340244983316E-010
   44.7450000000000        -4.872270856075672E-010
   44.9350000000000        -4.914214291860379E-010
   45.1250000000000        -4.956232100678103E-010
   45.3150000000000        -4.998393243100878E-010
   45.5050000000000        -5.040754267520382E-010
   45.6950000000000        -5.083365710819585E-010
   45.8850000000000        -5.126260800584827E-010
   46.0750000000000        -5.169465854469784E-010
   46.2650000000000        -5.212991525735601E-010
   46.4550000000000        -5.256845885001951E-010
   46.6450000000000        -5.301034013100204E-010
   46.8350000000000        -5.345562334472920E-010
   47.0250000000000        -5.390422407292543E-010
   47.2150000000000        -5.435579146336976E-010
   47.4050000000000        -5.480973018646645E-010
   47.5950000000000        -5.526559620110599E-010
   47.7850000000000        -5.572298283711511E-010
   47.9750000000000        -5.618148528350610E-010
   48.1650000000000        -5.664072103736723E-010
   48.3550000000000        -5.710035662407465E-010
   48.5450000000000        -5.756009175081927E-010
   48.7350000000000        -5.801970074015205E-010
   48.9250000000000        -5.847900863185118E-010
   49.1150000000000        -5.893791549867314E-010
   49.3050000000000        -5.939633986127191E-010
   49.4950000000000        -5.985419647682853E-010
   49.6850000000000        -6.031157995209586E-010
   49.8750000000000        -6.076885168480606E-010
   50.0650000000000        -6.122656506781402E-010
   50.2550000000000        -6.168523296650799E-010
   50.4450000000000        -6.214535723359048E-010
   50.6350000000000        -6.260740368188890E-010
   50.8250000000000        -6.307157271232562E-010
   51.0150000000000        -6.353824200139912E-010
   51.2050000000000        -6.400742879154018E-010
   51.3950000000000        -6.447923665558606E-010
   51.5850000000000        -6.495383243729510E-010
   51.7750000000000        -6.543145301622069E-010
   51.9650000000000        -6.591202661290785E-010
   52.1550000000000        -6.639518034333382E-010
   52.3450000000000        -6.688049724653365E-010
   52.5350000000000        -6.736768492702685E-010
   52.7250000000000        -6.785646085809652E-010
   52.9150000000000        -6.834661427045583E-010
   53.1050000000000        -6.883811996590652E-010
   53.2950000000000        -6.933089926796415E-010
   53.4850000000000        -6.982494483702653E-010
   53.6750000000000        -7.032035177183094E-010
   53.8650000000000        -7.081727170989012E-010
   54.0550000000000        -7.131592495476759E-010
   54.2450000000000        -7.181653676739710E-010
   54.4350000000000        -7.231937048924960E-010
   54.6250000000000        -7.282471097688715E-010
   54.8150000000000        -7.333282627508790E-010
   55.0050000000000        -7.384396972791048E-010
   55.1950000000000        -7.435835289275913E-010
   55.3850000000000        -7.487616938323908E-010
   55.5750000000000        -7.539757400768975E-010
   55.7650000000000        -7.592264248529692E-010
   55.9550000000000        -7.645141751111420E-010
   56.1450000000000        -7.698388707059368E-010
   56.3350000000000        -7.751980521114924E-010
   56.5250000000000        -7.805884700480038E-010
   56.7150000000000        -7.860062789179481E-010
   56.9050000000000        -7.914475108032570E-010
   57.0950000000000        -7.969081818565956E-010
   57.2850000000000        -8.023848380480818E-010
   57.4750000000000        -8.078749418268916E-010
   57.6650000000000        -8.133759503725016E-010
   57.8550000000000        -8.188855927518280E-010
   58.0450000000000        -8.244030032509593E-010
   58.2350000000000        -8.299276649907953E-010
   58.4250000000000        -8.354590692218067E-010
   58.6150000000000        -8.409966517983199E-010
   58.8050000000000        -8.465400445987011E-010
   58.9950000000000        -8.520890442539245E-010
   59.1850000000000        -8.576436454522858E-010
   59.3750000000000        -8.632039594601527E-010
   59.5650000000000        -8.687701927820011E-010
   59.7550000000000        -8.743426548109115E-010
   59.9450000000000        -8.799219031531370E-010
   60.1350000000000        -8.855087265437249E-010
   60.3250000000000        -8.911042548578970E-010
   60.5150000000000        -8.967099837242099E-010
   60.7050000000000        -9.023273313440974E-010
   60.8950000000000        -9.079572494540483E-010
   61.0850000000000        -9.135995348278553E-010
   61.2750000000000        -9.192536595430168E-010
   61.4650000000000        -9.249183206023003E-010
   61.6550000000000        -9.305917550043246E-010
   61.8450000000000        -9.362729524670708E-010
   62.0350000000000        -9.419609610327748E-010
   62.2250000000000        -9.476547182351345E-010
   62.4150000000000        -9.533538614632625E-010
   62.6050000000000        -9.590577817047616E-010
   62.7950000000000        -9.647659230461484E-010
   62.9850000000000        -9.704784836462818E-010
   63.1750000000000        -9.761954289099525E-010
   63.3650000000000        -9.819166596240134E-010
   63.5550000000000        -9.876420302995375E-010
   63.7450000000000        -9.933714222085149E-010
   63.9350000000000        -9.991047650472163E-010
   64.1250000000000        -1.004842264688226E-009
   64.3150000000000        -1.010584358921312E-009
   64.5050000000000        -1.016331753485623E-009
   64.6950000000000        -1.022085186598910E-009
   64.8850000000000        -1.027845750531578E-009
   65.0750000000000        -1.033614283352432E-009
   65.2650000000000        -1.039391465192089E-009
   65.4550000000000        -1.045177999832858E-009
   65.6450000000000        -1.050974711096187E-009
   65.8350000000000        -1.056782288995988E-009
   66.0250000000000        -1.062601420703369E-009
   66.2150000000000        -1.068432746901531E-009
   66.4050000000000        -1.074276597533828E-009
   66.5950000000000        -1.080133295627048E-009
   66.7850000000000        -1.086002960845905E-009
   66.9750000000000        -1.091885790383038E-009
   67.1650000000000        -1.097781845269629E-009
   67.3550000000000        -1.103691191819885E-009
   67.5450000000000        -1.109613937466042E-009
   67.7350000000000        -1.115550326651474E-009
   67.9250000000000        -1.121500786703196E-009
   68.1150000000000        -1.127465965985120E-009
   68.3050000000000        -1.133446744806533E-009
   68.4950000000000        -1.139444359572260E-009
   68.6850000000000        -1.145459820711959E-009
   68.8750000000000        -1.151493891969667E-009
   69.0650000000000        -1.157547303133322E-009
   69.2550000000000        -1.163620755412386E-009
   69.4450000000000        -1.169714986296078E-009
   69.6350000000000        -1.175830692878658E-009
   69.8250000000000        -1.181968416253257E-009
   70.0150000000000        -1.188128451049292E-009
   70.2050000000000        -1.194311522565174E-009
   70.3950000000000        -1.200518567234730E-009
   70.5850000000000        -1.206750762185458E-009
   70.7750000000000        -1.213009338042400E-009
   70.9650000000000        -1.219295622469537E-009
   71.1550000000000        -1.225611226835058E-009
   71.3450000000000        -1.231958444880224E-009
   71.5350000000000        -1.238338845081895E-009
   71.7250000000000        -1.244754636134637E-009
   71.9150000000000        -1.251206398039049E-009
   72.1050000000000        -1.257695561587427E-009
   72.2950000000000        -1.264222697679881E-009
   72.4850000000000        -1.270788462257188E-009
   72.6750000000000        -1.277393475229901E-009
   72.8650000000000        -1.284038255125807E-009
   73.0550000000000        -1.290723519484756E-009
   73.2450000000000        -1.297449803577917E-009
   73.4350000000000        -1.304217380172221E-009
   73.6250000000000        -1.311025995952805E-009
   73.8150000000000        -1.317874396177348E-009
   74.0050000000000        -1.324760167976105E-009
   74.1950000000000        -1.331680211267789E-009
   74.3850000000000        -1.338630973574732E-009
   74.5750000000000        -1.345608344303159E-009
   74.7650000000000        -1.352608321091967E-009
   74.9550000000000        -1.359627106926193E-009
   75.1450000000000        -1.366661535529527E-009
   75.3350000000000        -1.373709362803753E-009
   75.5250000000000        -1.380769800330291E-009
   75.7150000000000        -1.387841106676074E-009
   75.9050000000000        -1.394922981869202E-009
   76.0950000000000        -1.402015018274226E-009
   76.2850000000000        -1.409116643963371E-009
   76.4750000000000        -1.416227622441907E-009
   76.6650000000000        -1.423348322058351E-009
   76.8550000000000        -1.430479353564040E-009
   77.0450000000000        -1.437620983679557E-009
   77.2350000000000        -1.444773462401989E-009
   77.4250000000000        -1.451936789647972E-009
   77.6150000000000        -1.459109460248018E-009
   77.8050000000000        -1.466289137981683E-009
   77.9950000000000        -1.473472814078037E-009
   78.1850000000000        -1.480657672198098E-009
   78.3750000000000        -1.487840866175622E-009
   78.5650000000000        -1.495019705831350E-009
   78.7550000000000        -1.502192064442220E-009
   78.9450000000000        -1.509355826181826E-009
   79.1350000000000        -1.516510447443978E-009
   79.3250000000000        -1.523654699447467E-009
   79.5150000000000        -1.530787935819656E-009
   79.7050000000000        -1.537909306381921E-009
   79.8950000000000        -1.545018013021223E-009
   80.0850000000000        -1.552114640531193E-009
   80.2750000000000        -1.559202521851283E-009
   80.4650000000000        -1.566286989385048E-009
   80.6550000000000        -1.573374063699503E-009
   80.8450000000000        -1.580469318311388E-009
   81.0350000000000        -1.587578535743174E-009
   81.2250000000000        -1.594707517723306E-009
   81.4150000000000        -1.601861546683702E-009
   81.6050000000000        -1.609045243179544E-009
   81.7950000000000        -1.616262797895804E-009
   81.9850000000000        -1.623516169871233E-009
   82.1750000000000        -1.630807514172710E-009
   82.3650000000000        -1.638138064507920E-009
   82.5550000000000        -1.645509381801542E-009
   82.7450000000000        -1.652922861408847E-009
   82.9350000000000        -1.660377324881473E-009
   83.1250000000000        -1.667869266097889E-009
   83.3150000000000        -1.675394875967651E-009
   83.5050000000000        -1.682950945895188E-009
   83.6950000000000        -1.690534836875531E-009
   83.8850000000000        -1.698144761462017E-009
   84.0750000000000        -1.705777964706828E-009
   84.2650000000000        -1.713434061977882E-009
   84.4550000000000        -1.721112276001529E-009
   84.6450000000000        -1.728812351276283E-009
   84.8350000000000        -1.736534091854764E-009
   85.0250000000000        -1.744277378471511E-009
   85.2150000000000        -1.752041849485189E-009
   85.4050000000000        -1.759826980622344E-009
   85.5950000000000        -1.767632295259172E-009
   85.7850000000000        -1.775457312391053E-009
   85.9750000000000        -1.783302283422517E-009
   86.1650000000000        -1.791168211106939E-009
   86.3550000000000        -1.799055955449895E-009
   86.5450000000000        -1.806965863343441E-009
   86.7350000000000        -1.814898236344812E-009
   86.9250000000000        -1.822853102520660E-009
   87.1150000000000        -1.830830282443453E-009
   87.3050000000000        -1.838829612988800E-009
   87.4950000000000        -1.846850915833390E-009
   87.6850000000000        -1.854894247072491E-009
   87.8750000000000        -1.862959800190562E-009
   88.0650000000000        -1.871047868218603E-009
   88.2550000000000        -1.879158605673201E-009
   88.4450000000000        -1.887292204839511E-009
   88.6350000000000        -1.895448868827528E-009
   88.8250000000000        -1.903628758919790E-009
   89.0150000000000        -1.911832159580160E-009
   89.2050000000000        -1.920059724459760E-009
   89.3950000000000        -1.928312631022758E-009
   89.5850000000000        -1.936592239558997E-009
   89.7750000000000        -1.944897936665923E-009
   89.9650000000000        -1.953228708445126E-009
   90.1550000000000        -1.961583856647290E-009
   90.3450000000000        -1.969962736451451E-009
   90.5350000000000        -1.978364933660185E-009
   90.7250000000000        -1.986790090709385E-009
   90.9150000000000        -1.995237841657757E-009
   91.1050000000000        -2.003707772232025E-009
   91.2950000000000        -2.012199427833206E-009
   91.4850000000000        -2.020712245020912E-009
   91.6750000000000        -2.029245496439794E-009
   91.8650000000000        -2.037798059728319E-009
   92.0550000000000        -2.046368418877560E-009
   92.2450000000000        -2.054954989378173E-009
   92.4350000000000        -2.063556735629302E-009
   92.6250000000000        -2.072172998627600E-009
   92.8150000000000        -2.080802825884140E-009
   93.0050000000000        -2.089445353143682E-009
   93.1950000000000        -2.098099347901114E-009
   93.3850000000000        -2.106762817907190E-009
   93.5750000000000        -2.115432707727525E-009
   93.7650000000000        -2.124107297611714E-009
   93.9550000000000        -2.132786981643998E-009
   94.1450000000000        -2.141472860104066E-009
   94.3350000000000        -2.150166516631972E-009
   94.5250000000000        -2.158869777829438E-009
   94.7150000000000        -2.167584106106887E-009
   94.9050000000000        -2.176310870939127E-009
   95.0950000000000        -2.185051585728119E-009
   95.2850000000000        -2.193807940994170E-009
   95.4750000000000        -2.202581003043979E-009
   95.6650000000000        -2.211371040756222E-009
   95.8550000000000        -2.220179007570800E-009
   96.0450000000000        -2.229005049160982E-009
   96.2350000000000        -2.237849457454866E-009
   96.4250000000000        -2.246712354237506E-009
   96.6150000000000        -2.255593622079234E-009
   96.8050000000000        -2.264492761597827E-009
   96.9950000000000        -2.273408893315798E-009
   97.1850000000000        -2.282340960142999E-009
   97.3750000000000        -2.291288023650196E-009
   97.5650000000000        -2.300249636565754E-009
   97.7550000000000        -2.309225461279264E-009
   97.9450000000000        -2.318215520470977E-009
   98.1350000000000        -2.327220364627390E-009
   98.3250000000000        -2.336241342319534E-009
   98.5150000000000        -2.345280244595390E-009
   98.7050000000000        -2.354338771482477E-009
   98.8950000000000        -2.363418273879860E-009
   99.0850000000000        -2.372519574914057E-009
   99.2750000000000        -2.381642985398747E-009
   99.4650000000000        -2.390788477471551E-009
   99.6550000000000        -2.399954587565414E-009
   99.8450000000000        -2.409138909265569E-009
   100.035000000000        -2.418337837076205E-009
   100.225000000000        -2.427547488378153E-009
   100.415000000000        -2.436763420539050E-009
   100.605000000000        -2.445981254495870E-009
   100.795000000000        -2.455196490582615E-009
   100.985000000000        -2.464405189037583E-009
   101.175000000000        -2.473603950441613E-009
   101.365000000000        -2.482791415623450E-009
   101.555000000000        -2.491965891989430E-009
   101.745000000000        -2.501126590542013E-009
   101.935000000000        -2.510272397686326E-009
   102.125000000000        -2.519402095574799E-009
   102.315000000000        -2.528517531819071E-009
   102.505000000000        -2.537625287154097E-009
   102.695000000000        -2.546733162026925E-009
   102.885000000000        -2.555847729259206E-009
   103.075000000000        -2.564975159896111E-009
   103.265000000000        -2.574121057428742E-009
   103.455000000000        -2.583289072052074E-009
   103.645000000000        -2.592482618181023E-009
   103.835000000000        -2.601704293451112E-009
   104.025000000000        -2.610955004766871E-009
   104.215000000000        -2.620236078700347E-009
   104.405000000000        -2.629547465613922E-009
   104.595000000000        -2.638889452433760E-009
   104.785000000000        -2.648262414404075E-009
   104.975000000000        -2.657666733701923E-009
   105.165000000000        -2.667102489930260E-009
   105.355000000000        -2.676569316407669E-009
   105.545000000000        -2.686066478235235E-009
   105.735000000000        -2.695593019006099E-009
   105.925000000000        -2.705147800023946E-009
   106.115000000000        -2.714729671359258E-009
   106.305000000000        -2.724337651249328E-009
   106.495000000000        -2.733970547230414E-009
   106.685000000000        -2.743627760279921E-009
   106.875000000000        -2.753308214606123E-009
   107.065000000000        -2.763011537301171E-009
   107.255000000000        -2.772736974447940E-009
   107.445000000000        -2.782483747625447E-009
   107.635000000000        -2.792251103574255E-009
   107.825000000000        -2.802038344362251E-009
   108.015000000000        -2.811844895874390E-009
   108.205000000000        -2.821670343993530E-009
   108.395000000000        -2.831514391637899E-009
   108.585000000000        -2.841376819926054E-009
   108.775000000000        -2.851257532887926E-009
   108.965000000000        -2.861156551885561E-009
   109.155000000000        -2.871073783728763E-009
   109.345000000000        -2.881009282417139E-009
   109.535000000000        -2.890962616102606E-009
   109.725000000000        -2.900933489538530E-009
   109.915000000000        -2.910921445344626E-009
   110.105000000000        -2.920925973317942E-009