  -1.42500000000000         0.000000000000000E+000
  -1.23500000000000        -8.701066532051849E-021
  -1.04500000000000         1.798328527096920E-019
 -0.855000000000000         1.952161309680096E-018
 -0.665000000000000         1.180550403649722E-017
 -0.475000000000000         5.938757767754104E-017
 -0.285000000000000         2.199861956877529E-016
 -9.499999999999975E-002    6.951212142970765E-016
  9.500000000000020E-002    1.879364654506309E-015
  0.285000000000000         4.543060814899302E-015
  0.475000000000000         9.504570833887724E-015
  0.665000000000000         1.807395573030841E-014
  0.855000000000000         3.146801140507788E-014
   1.04500000000000         5.035010256782288E-014
   1.23500000000000         7.800299134080645E-014
   1.42500000000000         1.178373372647687E-013
   1.61500000000000         1.720000175483489E-013
   1.80500000000000         2.433503467190446E-013
   1.99500000000000         3.352324365894437E-013
   2.18500000000000         4.490880767649078E-013
   2.37500000000000         5.879962968909646E-013
   2.56500000000000         7.540378104470988E-013
   2.75500000000000         9.475228374594086E-013
   2.94500000000000         1.170146562728971E-012
   3.13500000000000         1.422856066046716E-012
   3.32500000000000         1.707352008224340E-012
   3.51500000000000         2.024338802871446E-012
   3.70500000000000         2.374451312148968E-012
   3.89500000000000         2.758008810682364E-012
   4.08500000000000         3.175260157283179E-012
   4.27500000000000         3.626307538799370E-012
   4.46500000000000         4.111105076233173E-012
   4.65500000000000         4.629305162303744E-012
   4.84500000000000         5.180061754127019E-012
   5.03500000000000         5.762366412730715E-012
   5.22500000000000         6.375344065827820E-012
   5.41500000000000         7.018800111495237E-012
   5.60500000000000         7.691707152999197E-012
   5.79500000000000         8.392728019108655E-012
   5.98500000000000         9.119583324881158E-012
   6.17500000000000         9.868707192532539E-012
   6.36500000000000         1.063681070370053E-011
   6.55500000000000         1.142044648632413E-011
   6.74500000000000         1.221787634258943E-011
   6.93500000000000         1.302794323408932E-011
   7.12500000000000         1.384905141519443E-011
   7.31500000000000         1.468123093163848E-011
   7.50500000000000         1.552363462106954E-011
   7.69500000000000         1.637610970757622E-011
   7.88500000000000         1.723901897922767E-011
   8.07500000000000         1.811353815310177E-011
   8.26500000000000         1.900146174235988E-011
   8.45500000000000         1.990367414809806E-011
   8.64500000000000         2.082134118784329E-011
   8.83500000000000         2.175544311919867E-011
   9.02500000000000         2.270717134589804E-011
   9.21500000000000         2.367940175695099E-011
   9.40500000000000         2.467180810917623E-011
   9.59500000000000         2.568511847001597E-011
   9.78500000000000         2.671920962454798E-011
   9.97500000000000         2.777480397813606E-011
   10.1650000000000         2.885290153261223E-011
   10.3550000000000         2.995320066561496E-011
   10.5450000000000         3.107566326519394E-011
   10.7350000000000         3.222049029715802E-011
   10.9250000000000         3.338769808297357E-011
   11.1150000000000         3.457739277653871E-011
   11.3050000000000         3.578967314652509E-011
   11.4950000000000         3.702465764476069E-011
   11.6850000000000         3.828262671827972E-011
   11.8750000000000         3.956396491709373E-011
   12.0650000000000         4.086920245677974E-011
   12.2550000000000         4.219892484727549E-011
   12.4450000000000         4.355356469555404E-011
   12.6350000000000         4.493333550832628E-011
   12.8250000000000         4.633788413604791E-011
   13.0150000000000         4.776676916317869E-011
   13.2050000000000         4.921865058854513E-011
   13.3950000000000         5.069216290129744E-011
   13.5850000000000         5.218539301773917E-011
   13.7750000000000         5.369500032612317E-011
   13.9650000000000         5.521857500776274E-011
   14.1550000000000         5.675422238826261E-011
   14.3450000000000         5.830078087332644E-011
   14.5350000000000         5.985729714341838E-011
   14.7250000000000         6.142332890281084E-011
   14.9150000000000         6.299878898244364E-011
   15.1050000000000         6.458409758748050E-011
   15.2950000000000         6.618151209753861E-011
   15.4850000000000         6.779345407415441E-011
   15.6750000000000         6.942240188562519E-011
   15.8650000000000         7.106989289434311E-011
   16.0550000000000         7.273775222777923E-011
   16.2450000000000         7.442829083842104E-011
   16.4350000000000         7.614217139039912E-011
   16.6250000000000         7.787984031539592E-011
   16.8150000000000         7.964191521900430E-011
   17.0050000000000         8.142990397571455E-011
   17.1950000000000         8.324471312669646E-011
   17.3850000000000         8.508714890220828E-011
   17.5750000000000         8.695785868485557E-011
   17.7650000000000         8.885762911268301E-011
   17.9550000000000         9.078689186795852E-011
   18.1450000000000         9.274608514383317E-011
   18.3350000000000         9.473545752204772E-011
   18.5250000000000         9.675519313488441E-011
   18.7150000000000         9.880544197913220E-011
   18.9050000000000         1.008860865146909E-010
   19.0950000000000         1.029962288143233E-010
   19.2850000000000         1.051348571173792E-010
   19.4750000000000         1.073007802114453E-010
   19.6650000000000         1.094925598223742E-010
   19.8550000000000         1.117083773881880E-010
   20.0450000000000         1.139447233830308E-010
   20.2350000000000         1.161980530080527E-010
   20.4250000000000         1.184664531382085E-010
   20.6150000000000         1.207481039534419E-010
   20.8050000000000         1.230402627047858E-010
   20.9950000000000         1.253412762523668E-010
   21.1850000000000         1.276501992411713E-010
   21.3750000000000         1.299661021077213E-010
   21.5650000000000         1.322874001873673E-010
   21.7550000000000         1.346136801600375E-010
   21.9450000000000         1.369446723696747E-010
   22.1350000000000         1.392798760106487E-010
   22.3250000000000         1.416193314771253E-010
   22.5150000000000         1.439652263191919E-010
   22.7050000000000         1.463198720224722E-010
   22.8950000000000         1.486842458148948E-010
   23.0850000000000         1.510612410159480E-010
   23.2750000000000         1.534527931413709E-010
   23.4650000000000         1.558609594549651E-010
   23.6550000000000         1.582869571232199E-010
   23.8450000000000         1.607345846904390E-010
   24.0350000000000         1.632069969772554E-010
   24.2250000000000         1.657067652187133E-010
   24.4150000000000         1.682365450847646E-010
   24.6050000000000         1.707987494986937E-010
   24.7950000000000         1.733953214059890E-010
   24.9850000000000         1.760268659736308E-010
   25.1750000000000         1.786946162877974E-010
   25.3650000000000         1.813985164708649E-010
   25.5550000000000         1.841383250087137E-010
   25.7450000000000         1.869137471403317E-010
   25.9350000000000         1.897231545332059E-010
   26.1250000000000         1.925658962057236E-010
   26.3150000000000         1.954414203351930E-010
   26.5050000000000         1.983485130992156E-010
   26.6950000000000         2.012861028402449E-010
   26.8850000000000         2.042531422855544E-010
   27.0750000000000         2.072485497757995E-010
   27.2650000000000         2.102711670493688E-010
   27.4550000000000         2.133202894175459E-010
   27.6450000000000         2.163950524231345E-010
   27.8350000000000         2.194942183909706E-010
   28.0250000000000         2.226162825393798E-010
   28.2150000000000         2.257587870222435E-010
   28.4050000000000         2.289207995592072E-010
   28.5950000000000         2.320993822041016E-010
   28.7850000000000         2.352899071923074E-010
   28.9750000000000         2.384900521840762E-010
   29.1650000000000         2.416963439614436E-010
   29.3550000000000         2.449083087230797E-010
   29.5450000000000         2.481233216693943E-010
   29.7350000000000         2.513387853313416E-010
   29.9250000000000         2.545533763378851E-010
   30.1150000000000         2.577657605927617E-010
   30.3050000000000         2.609757562468618E-010
   30.4950000000000         2.641834089632301E-010
   30.6850000000000         2.673899429114937E-010
   30.8750000000000         2.705958092796581E-010
   31.0650000000000         2.738039516462616E-010
   31.2550000000000         2.770158839804816E-010
   31.4450000000000         2.802367838201180E-010
   31.6350000000000         2.834709984061297E-010
   31.8250000000000         2.867235165460794E-010
   32.0150000000000         2.899984775470617E-010
   32.2050000000000         2.932982076236645E-010
   32.3950000000000         2.966248972697708E-010
   32.5850000000000         2.999836984554370E-010
   32.7750000000000         3.033787087524656E-010
   32.9650000000000         3.068111775701856E-010
   33.1550000000000         3.102805676922092E-010
   33.3450000000000         3.137885109557738E-010
   33.5350000000000         3.173357882281184E-010
   33.7250000000000         3.209232334306228E-010
   33.9150000000000         3.245507710868175E-010
   34.1050000000000         3.282169654577648E-010
   34.2950000000000         3.319194873732632E-010
   34.4850000000000         3.356558657941576E-010
   34.6750000000000         3.394250962450293E-010
   34.8650000000000         3.432250678728512E-010
   35.0550000000000         3.470536867202771E-010
   35.2450000000000         3.509078668257364E-010
   35.4350000000000         3.547843660729017E-010
   35.6250000000000         3.586804736713379E-010
   35.8150000000000         3.625949847017166E-010
   36.0050000000000         3.665269502670221E-010
   36.1950000000000         3.704757890845154E-010
   36.3850000000000         3.744412976415823E-010
   36.5750000000000         3.784228242275184E-010
   36.7650000000000         3.824195791604585E-010
   36.9550000000000         3.864307542102419E-010
   37.1450000000000         3.904556637870248E-010
   37.3350000000000         3.944930901915120E-010
   37.5250000000000         3.985417960131605E-010
   37.7150000000000         4.026005331768459E-010
   37.9050000000000         4.066683193606600E-010
   38.0950000000000         4.107447148854748E-010
   38.2850000000000         4.148298532936970E-010
   38.4750000000000         4.189248446279629E-010
   38.6650000000000         4.230329456642709E-010
   38.8550000000000         4.271555049352841E-010
   39.0450000000000         4.312961387394842E-010
   39.2350000000000         4.354579441733311E-010
   39.4250000000000         4.396453286910216E-010
   39.6150000000000         4.438596177338367E-010
   39.8050000000000         4.481044590164363E-010
   39.9950000000000         4.523819204550214E-010
   40.1850000000000         4.566935436320762E-010
   40.3750000000000         4.610397168061040E-010
   40.5650000000000         4.654217543094785E-010
   40.7550000000000         4.698404856305268E-010
   40.9450000000000         4.742960755928170E-010
   41.1350000000000         4.787874912778245E-010
   41.3250000000000         4.833117417781795E-010
   41.5150000000000         4.878652178785649E-010
   41.7050000000000         4.924476084590474E-010
   41.8950000000000         4.970575217145156E-010
   42.0850000000000         5.016929387762953E-010
   42.2750000000000         5.063528193678211E-010
   42.4650000000000         5.110354136410692E-010
   42.6550000000000         5.157386490076858E-010
   42.8450000000000         5.204610742575082E-010
   43.0350000000000         5.252014759026207E-010
   43.2250000000000         5.299587069117530E-010
   43.4150000000000         5.347323204353897E-010
   43.6050000000000         5.395206153353936E-010
   43.7950000000000         5.443236432014984E-010
   43.9850000000000         5.491412794431421E-010
   44.1750000000000         5.539732966663949E-010
   44.3650000000000         5.588193111483176E-010
   44.5550000000000         5.636787651054649E-010
   44.7450000000000         5.685518769684075E-010
   44.9350000000000         5.734412554389293E-010
   45.1250000000000         5.783498458852659E-010
   45.3150000000000         5.832780922917675E-010
   45.5050000000000         5.882282268978430E-010
   45.6950000000000         5.932020988194639E-010
   45.8850000000000         5.982012305236217E-010
   46.0750000000000         6.032288376234696E-010
   46.2650000000000         6.082859996212019E-010
   46.4550000000000         6.133729203161830E-010
   46.6450000000000         6.184911189732280E-010
   46.8350000000000         6.236410959512213E-010
   47.0250000000000         6.288215100381164E-010
   47.2150000000000         6.340296838032776E-010
   47.4050000000000         6.392658675041603E-010
   47.5950000000000         6.445292702299498E-010
   47.7850000000000         6.498178867055736E-010
   47.9750000000000         6.551288080050372E-010
   48.1650000000000         6.604601850716201E-010
   48.3550000000000         6.658088035471587E-010
   48.5450000000000         6.711719239003116E-010
   48.7350000000000         6.765494485564166E-010
   48.9250000000000         6.819413801363891E-010
   49.1150000000000         6.873468098847327E-010
   49.3050000000000         6.927644787858452E-010
   49.4950000000000         6.981926542055986E-010
   49.6850000000000         7.036302956206436E-010
   49.8750000000000         7.090784800113873E-010
   50.0650000000000         7.145377809749747E-010
   50.2550000000000         7.200082616358919E-010
   50.4450000000000         7.254895863739634E-010
   50.6350000000000         7.309804108138507E-010
   50.8250000000000         7.364802107652344E-010
   51.0150000000000         7.419905868434710E-010
   51.2050000000000         7.475116693321964E-010
   51.3950000000000         7.530440694335438E-010
   51.5850000000000         7.585893297217951E-010
   51.7750000000000         7.641504847277383E-010
   51.9650000000000         7.697281377243564E-010
   52.1550000000000         7.753220160730180E-010
   52.3450000000000         7.809342704788571E-010
   52.5350000000000         7.865669891245038E-010
   52.7250000000000         7.922213232958985E-010
   52.9150000000000         7.979008626228777E-010
   53.1050000000000         8.036084286250084E-010
   53.2950000000000         8.093462246063509E-010
   53.4850000000000         8.151153724046403E-010
   53.6750000000000         8.209190097486564E-010
   53.8650000000000         8.267597549677457E-010
   54.0550000000000         8.326389963517146E-010
   54.2450000000000         8.385579589014628E-010
   54.4350000000000         8.445174561362428E-010
   54.6250000000000         8.505183673191171E-010
   54.8150000000000         8.565616049096182E-010
   55.0050000000000         8.626469416992351E-010
   55.1950000000000         8.687738643244867E-010
   55.3850000000000         8.749422830906876E-010
   55.5750000000000         8.811510920751865E-010
   55.7650000000000         8.874001575593097E-010
   55.9550000000000         8.936886914047864E-010
   56.1450000000000         9.000150481719048E-010
   56.3350000000000         9.063742023345598E-010
   56.5250000000000         9.127625009519770E-010
   56.7150000000000         9.191758022992927E-010
   56.9050000000000         9.256113942981870E-010
   57.0950000000000         9.320672379710949E-010
   57.2850000000000         9.385381558841201E-010
   57.4750000000000         9.450220562409455E-010
   57.6650000000000         9.515166718479596E-010
   57.8550000000000         9.580182627291768E-010
   58.0450000000000         9.645275456943672E-010
   58.2350000000000         9.710433241841834E-010
   58.4250000000000         9.775641256286878E-010
   58.6150000000000         9.840886499928929E-010
   58.8050000000000         9.906159109164504E-010
   58.9950000000000         9.971454479184633E-010
   59.1850000000000         1.003677361010515E-009
   59.3750000000000         1.010212062521897E-009
   59.5650000000000         1.016749808220528E-009
   59.7550000000000         1.023290499853220E-009
   59.9450000000000         1.029833874746789E-009
   60.1350000000000         1.036379894943830E-009
   60.3250000000000         1.042929157394738E-009
   60.5150000000000         1.049482959113537E-009
   60.7050000000000         1.056043105223425E-009
   60.8950000000000         1.062611876458244E-009
   61.0850000000000         1.069191679436863E-009
   61.2750000000000         1.075787800237023E-009
   61.4650000000000         1.082399341756687E-009
   61.6550000000000         1.089030017462524E-009
   61.8450000000000         1.095682698163206E-009
   62.0350000000000         1.102361540495889E-009
   62.2250000000000         1.109069880815448E-009
   62.4150000000000         1.115809199893260E-009
   62.6050000000000         1.122580266667758E-009
   62.7950000000000         1.129382730702044E-009
   62.9850000000000         1.136217726067135E-009
   63.1750000000000         1.143085439484097E-009
   63.3650000000000         1.149986299200712E-009
   63.5550000000000         1.156920351841003E-009
   63.7450000000000         1.163887715887497E-009
   63.9350000000000         1.170887625217955E-009
   64.1250000000000         1.177918607844695E-009
   64.3150000000000         1.184979696180862E-009
   64.5050000000000         1.192068855998423E-009
   64.6950000000000         1.199183708101517E-009
   64.8850000000000         1.206321938729634E-009
   65.0750000000000         1.213481669555467E-009
   65.2650000000000         1.220660872728657E-009
   65.4550000000000         1.227857452114248E-009
   65.6450000000000         1.235069835159926E-009
   65.8350000000000         1.242295928407036E-009
   66.0250000000000         1.249534712568865E-009
   66.2150000000000         1.256786734114561E-009
   66.4050000000000         1.264051478233065E-009
   66.5950000000000         1.271328137116212E-009
   66.7850000000000         1.278616286687428E-009
   66.9750000000000         1.285915146794023E-009
   67.1650000000000         1.293223988252868E-009
   67.3550000000000         1.300542281466074E-009
   67.5450000000000         1.307869645430130E-009
   67.7350000000000         1.315205794061634E-009
   67.9250000000000         1.322550489334895E-009
   68.1150000000000         1.329903758820021E-009
   68.3050000000000         1.337267082033956E-009
   68.4950000000000         1.344644120833536E-009
   68.6850000000000         1.352037465025948E-009
   68.8750000000000         1.359450130914015E-009
   69.0650000000000         1.366884662851022E-009
   69.2550000000000         1.374343047936549E-009
   69.4450000000000         1.381827299154170E-009
   69.6350000000000         1.389339428804287E-009
   69.8250000000000         1.396880705772792E-009
   70.0150000000000         1.404452024141247E-009
   70.2050000000000         1.412054420075743E-009
   70.3950000000000         1.419688246753089E-009
   70.5850000000000         1.427353577337846E-009
   70.7750000000000         1.435050633332561E-009
   70.9650000000000         1.442779315298302E-009
   71.1550000000000         1.450540559405871E-009
   71.3450000000000         1.458335397922550E-009
   71.5350000000000         1.466163987400050E-009
   71.7250000000000         1.474026691727416E-009
   71.9150000000000         1.481923478281339E-009
   72.1050000000000         1.489853916971957E-009
   72.2950000000000         1.497818303790300E-009
   72.4850000000000         1.505816500855277E-009
   72.6750000000000         1.513847950985560E-009
   72.8650000000000         1.521911860711224E-009
   73.0550000000000         1.530007333103596E-009
   73.2450000000000         1.538133690832387E-009
   73.4350000000000         1.546290571968208E-009
   73.6250000000000         1.554477521354912E-009
   73.8150000000000         1.562693798188028E-009
   74.0050000000000         1.570938656044623E-009
   74.1950000000000         1.579211184952781E-009
   74.3850000000000         1.587510653920433E-009
   74.5750000000000         1.595837103024094E-009
   74.7650000000000         1.604189695795069E-009
   74.9550000000000         1.612567472611254E-009
   75.1450000000000         1.620969024578271E-009
   75.3350000000000         1.629393637175905E-009
   75.5250000000000         1.637841729311761E-009
   75.7150000000000         1.646312907230045E-009
   75.9050000000000         1.654806831486779E-009
   76.0950000000000         1.663323348505404E-009
   76.2850000000000         1.671862093265205E-009
   76.4750000000000         1.680423360568151E-009
   76.6650000000000         1.689007818739297E-009
   76.8550000000000         1.697616214707012E-009
   77.0450000000000         1.706248351388192E-009
   77.2350000000000         1.714903124054866E-009
   77.4250000000000         1.723578452959276E-009
   77.6150000000000         1.732270783927690E-009
   77.8050000000000         1.740977208934728E-009
   77.9950000000000         1.749696499223033E-009
   78.1850000000000         1.758427720951057E-009
   78.3750000000000         1.767170353736394E-009
   78.5650000000000         1.775921993342869E-009
   78.7550000000000         1.784682023028796E-009
   78.9450000000000         1.793450366385701E-009
   79.1350000000000         1.802227653209221E-009
   79.3250000000000         1.811013972260702E-009
   79.5150000000000         1.819809110296383E-009
   79.7050000000000         1.828612464101398E-009
   79.8950000000000         1.837423336221051E-009
   80.0850000000000         1.846242501146359E-009
   80.2750000000000         1.855072727600823E-009
   80.4650000000000         1.863916382791082E-009
   80.6550000000000         1.872775730910117E-009
   80.8450000000000         1.881652335055445E-009
   81.0350000000000         1.890548171254006E-009
   81.2250000000000         1.899465290088747E-009
   81.4150000000000         1.908405958942017E-009
   81.6050000000000         1.917374916066196E-009
   81.7950000000000         1.926373886870171E-009
   81.9850000000000         1.935403835643637E-009
   82.1750000000000         1.944464906674749E-009
   82.3650000000000         1.953558414813114E-009
   82.5550000000000         1.962685927872793E-009
   82.7450000000000         1.971849402389462E-009
   82.9350000000000         1.981049426169677E-009
   83.1250000000000         1.990284883612872E-009
   83.3150000000000         1.999555432033242E-009
   83.5050000000000         2.008860679822979E-009
   83.6950000000000         2.018201189402465E-009
   83.8850000000000         2.027577980742866E-009
   84.0750000000000         2.036990974855207E-009
   84.2650000000000         2.046440456585713E-009
   84.4550000000000         2.055926222599491E-009
   84.6450000000000         2.065448021415017E-009
   84.8350000000000         2.075005791741220E-009
   85.0250000000000         2.084599592518963E-009
   85.2150000000000         2.094229015504356E-009
   85.4050000000000         2.103892763793997E-009
   85.5950000000000         2.113589458486488E-009
   85.7850000000000         2.123316420954950E-009
   85.9750000000000         2.133071639490821E-009
   86.1650000000000         2.142853901327744E-009
   86.3550000000000         2.152661369564462E-009
   86.5450000000000         2.162491611570153E-009
   86.7350000000000         2.172341616026449E-009
   86.9250000000000         2.182208354461672E-009
   87.1150000000000         2.192089159364431E-009
   87.3050000000000         2.201982319622922E-009
   87.4950000000000         2.211885813267728E-009
   87.6850000000000         2.221798618431714E-009
   87.8750000000000         2.231719882722576E-009
   88.0650000000000         2.241649659701312E-009
   88.2550000000000         2.251587203591597E-009
   88.4450000000000         2.261532835437268E-009
   88.6350000000000         2.271487164662047E-009
   88.8250000000000         2.281450449168512E-009
   89.0150000000000         2.291422858425271E-009
   89.2050000000000         2.301405195687301E-009
   89.3950000000000         2.311399287834648E-009
   89.5850000000000         2.321409589458438E-009
   89.7750000000000         2.331439164120578E-009
   89.9650000000000         2.341490125896705E-009
   90.1550000000000         2.351563825267266E-009
   90.3450000000000         2.361662164673166E-009
   90.5350000000000         2.371787378955952E-009
   90.7250000000000         2.381942122867813E-009
   90.9150000000000         2.392129108458744E-009
   91.1050000000000         2.402350426929856E-009
   91.2950000000000         2.412608084785456E-009
   91.4850000000000         2.422902576206519E-009
   91.6750000000000         2.433235310449995E-009
   91.8650000000000         2.443607508102530E-009
   92.0550000000000         2.454020407137482E-009
   92.2450000000000         2.464474515238857E-009
   92.4350000000000         2.474969521754526E-009
   92.6250000000000         2.485505227646415E-009
   92.8150000000000         2.496081016249263E-009
   93.0050000000000         2.506696290293465E-009
   93.1950000000000         2.517350505666489E-009
   93.3850000000000         2.528042165589117E-009
   93.5750000000000         2.538766986802075E-009
   93.7650000000000         2.549520825302995E-009
   93.9550000000000         2.560302171659873E-009
   94.1450000000000         2.571108693933868E-009
   94.3350000000000         2.581937104290757E-009
   94.5250000000000         2.592785948996465E-009
   94.7150000000000         2.603652648525747E-009
   94.9050000000000         2.614533871858225E-009
   95.0950000000000         2.625426787525976E-009
   95.2850000000000         2.636331496805377E-009
   95.4750000000000         2.647246492258295E-009
   95.6650000000000         2.658172008248659E-009
   95.8550000000000         2.669106419225892E-009
   96.0450000000000         2.680049071044369E-009
   96.2350000000000         2.690999565423357E-009
   96.4250000000000         2.701957043171950E-009
   96.6150000000000         2.712921222437218E-009
   96.8050000000000         2.723891850279376E-009
   96.9950000000000         2.734868566225322E-009
   97.1850000000000         2.745850837904164E-009
   97.3750000000000         2.756838510723175E-009
   97.5650000000000         2.767831880030863E-009
   97.7550000000000         2.778832191351551E-009
   97.9450000000000         2.789841176115319E-009
   98.1350000000000         2.800861477713663E-009
   98.3250000000000         2.811896729402491E-009
   98.5150000000000         2.822949288072146E-009
   98.7050000000000         2.834022382459752E-009
   98.8950000000000         2.845118857096597E-009
   99.0850000000000         2.856241202538750E-009
   99.2750000000000         2.867392011490514E-009
   99.4650000000000         2.878572620166944E-009
   99.6550000000000         2.889784019853455E-009
   99.8450000000000         2.901025825287696E-009
   100.035000000000         2.912298195916779E-009
   100.225000000000         2.923600672672696E-009
   100.415000000000         2.934933229867520E-009
   100.605000000000         2.946295088579929E-009
   100.795000000000         2.957685331765929E-009
   100.985000000000         2.969102948225986E-009
   101.175000000000         2.980547579483941E-009
   101.365000000000         2.992020261860575E-009
   101.555000000000         3.003521184907971E-009
   101.745000000000         3.015050201040622E-009
   101.935000000000         3.026606780546917E-009
   102.125000000000         3.038189931124309E-009
   102.315000000000         3.049801863634191E-009
   102.505000000000         3.061443634032113E-009
   102.695000000000         3.073115492454102E-009
   102.885000000000         3.084818222461758E-009
   103.075000000000         3.096550562962913E-009
   103.265000000000         3.108311711815373E-009
   103.455000000000         3.120101168463919E-009
   103.645000000000         3.131918658443598E-009
   103.835000000000         3.143764724940045E-009
   104.025000000000         3.155637448063086E-009
   104.215000000000         3.167535525813178E-009
   104.405000000000         3.179458153145024E-009
   104.595000000000         3.191404450748952E-009
   104.785000000000         3.203373739931864E-009
   104.975000000000         3.215365900915161E-009
   105.165000000000         3.227380836926275E-009
   105.355000000000         3.239418217424364E-009
   105.545000000000         3.251477628160364E-009
   105.735000000000         3.263559096362094E-009
   105.925000000000         3.275663193345865E-009
   106.115000000000         3.287790793817694E-009
   106.305000000000         3.299942199308707E-009
   106.495000000000         3.312117027795098E-009
   106.685000000000         3.324314392727523E-009
   106.875000000000         3.336533006551510E-009
   107.065000000000         3.348771972428406E-009
   107.255000000000         3.361030788214470E-009
   107.445000000000         3.373308807229789E-009
   107.635000000000         3.385605205591067E-009
   107.825000000000         3.397918787634132E-009
   108.015000000000         3.410248516344307E-009
   108.205000000000         3.422593918560467E-009
   108.395000000000         3.434955104402148E-009
   108.585000000000         3.447332565215823E-009
   108.775000000000         3.459726725486796E-009
   108.965000000000         3.472137767094993E-009
   109.155000000000         3.484566102954907E-009
   109.345000000000         3.497012572361083E-009
   109.535000000000         3.509478405522048E-009
   109.725000000000         3.521964675068210E-009
   109.915000000000         3.534471863955294E-009
   110.105000000000         3.547000025878461E-009