  -1.42500000000000         1.472670258852728E-019
  -1.23500000000000         5.625759411948848E-019
  -1.04500000000000         3.058009850675428E-018
 -0.855000000000000         1.425687442966349E-017
 -0.665000000000000         5.447318393252279E-017
 -0.475000000000000         1.824602284661287E-016
 -0.285000000000000         4.901721257755842E-016
 -9.499999999999975E-002    1.182944902953714E-015
  9.500000000000020E-002    2.438368454297095E-015
  0.285000000000000         4.454639353690111E-015
  0.475000000000000         7.197922427326524E-015
  0.665000000000000         1.065369066692264E-014
  0.855000000000000         1.452208780961135E-014
   1.04500000000000         1.906729828678207E-014
   1.23500000000000         2.400382712384152E-014
   1.42500000000000         2.741341901005893E-014
   1.61500000000000         3.120913260018687E-014
   1.80500000000000         3.603317763961054E-014
   1.99500000000000         4.075893532841133E-014
   2.18500000000000         4.575848685578920E-014
   2.37500000000000         5.073646667112813E-014
   2.56500000000000         5.515762147434469E-014
   2.75500000000000         5.898526356888528E-014
   2.94500000000000         6.212864507744504E-014
   3.13500000000000         6.409396041018255E-014
   3.32500000000000         6.473661611813947E-014
   3.51500000000000         6.596657746461553E-014
   3.70500000000000         6.636981380150149E-014
   3.89500000000000         6.675550437246219E-014
   4.08500000000000         6.702316460704494E-014
   4.27500000000000         6.722891673144219E-014
   4.46500000000000         6.735889445920967E-014
   4.65500000000000         6.722900137680272E-014
   4.84500000000000         6.659944199415882E-014
   5.03500000000000         6.539294583045859E-014
   5.22500000000000         6.506343373755866E-014
   5.41500000000000         6.339065481280843E-014
   5.60500000000000         6.181732074481971E-014
   5.79500000000000         6.055704121863934E-014
   5.98500000000000         6.014123744154387E-014
   6.17500000000000         6.095363938224914E-014
   6.36500000000000         6.330307516440508E-014
   6.55500000000000         6.628350079731527E-014
   6.74500000000000         6.939142283497146E-014
   6.93500000000000         7.325580466150488E-014
   7.12500000000000         7.865497646968574E-014
   7.31500000000000         8.317767828625309E-014
   7.50500000000000         8.643789645628494E-014
   7.69500000000000         8.834233682410794E-014
   7.88500000000000         8.865038657850482E-014
   8.07500000000000         8.768363102213451E-014
   8.26500000000000         8.625257539844229E-014
   8.45500000000000         8.441774866108843E-014
   8.64500000000000         8.155544491555157E-014
   8.83500000000000         7.807874118818359E-014
   9.02500000000000         7.088273518166678E-014
   9.21500000000000         5.920030746988301E-014
   9.40500000000000         4.669246900542338E-014
   9.59500000000000         3.580620598604532E-014
   9.78500000000000         2.835453973002485E-014
   9.97500000000000         2.217093451456990E-014
   10.1650000000000         1.786774217036431E-014
   10.3550000000000         1.571693538445735E-014
   10.5450000000000         1.401858238294505E-014
   10.7350000000000         1.373348844604176E-014
   10.9250000000000         1.358615062122179E-014
   11.1150000000000         1.333664050444502E-014
   11.3050000000000         1.302159516017894E-014
   11.4950000000000         1.297662852955412E-014
   11.6850000000000         1.376140471460803E-014
   11.8750000000000         1.572115484820072E-014
   12.0650000000000         1.860880573970495E-014
   12.2550000000000         2.200748143933237E-014
   12.4450000000000         2.658186888791586E-014
   12.6350000000000         2.769445254624725E-014
   12.8250000000000         3.177454757356106E-014
   13.0150000000000         3.516463532218770E-014
   13.2050000000000         3.811547654319840E-014
   13.3950000000000         4.143014013861047E-014
   13.5850000000000         4.407613863090642E-014
   13.7750000000000         4.560033968569400E-014
   13.9650000000000         4.642714730736631E-014
   14.1550000000000         4.654031317812042E-014
   14.3450000000000         4.701471685937167E-014
   14.5350000000000         4.715981969952458E-014
   14.7250000000000         4.760632769033043E-014
   14.9150000000000         4.904110186343760E-014
   15.1050000000000         5.273527255480745E-014
   15.2950000000000         5.900485803531868E-014
   15.4850000000000         6.682632583446705E-014
   15.6750000000000         7.338917669147302E-014
   15.8650000000000         7.959278589162026E-014
   16.0550000000000         8.576066656472103E-014
   16.2450000000000         9.025641505922728E-014
   16.4350000000000         9.307923574659069E-014
   16.6250000000000         9.474216329730114E-014
   16.8150000000000         9.551252797603012E-014
   17.0050000000000         9.564452713933598E-014
   17.1950000000000         9.541635776939860E-014
   17.3850000000000         9.525889060692425E-014
   17.5750000000000         9.416025379330710E-014
   17.7650000000000         9.366373261533265E-014
   17.9550000000000         9.283057087333986E-014
   18.1450000000000         9.213361074587949E-014
   18.3350000000000         9.137177520093324E-014
   18.5250000000000         9.031001317835866E-014
   18.7150000000000         8.782579734142749E-014
   18.9050000000000         8.378883059288887E-014
   19.0950000000000         7.831085693421069E-014
   19.2850000000000         7.200501776144007E-014
   19.4750000000000         6.589320728598538E-014
   19.6650000000000         6.047600458946042E-014
   19.8550000000000         5.541824626398641E-014
   20.0450000000000         5.097743087528215E-014
   20.2350000000000         4.710357343747580E-014
   20.4250000000000         4.341931609772131E-014
   20.6150000000000         3.930497014783171E-014
   20.8050000000000         3.493075579164490E-014
   20.9950000000000         3.057346007605796E-014
   21.1850000000000         2.953360694453404E-014
   21.3750000000000         2.456235894832752E-014
   21.5650000000000         2.370559833545011E-014
   21.7550000000000         2.147524555762875E-014
   21.9450000000000         1.774831700862473E-014
   22.1350000000000         1.336153617944386E-014
   22.3250000000000         8.867320374834151E-015
   22.5150000000000         8.128429650599122E-015
   22.7050000000000         1.095502802762964E-014
   22.8950000000000         1.660045217998905E-014
   23.0850000000000         2.385433777510533E-014
   23.2750000000000         3.162457363175489E-014
   23.4650000000000         3.828319724208611E-014
   23.6550000000000         4.673810047324536E-014
   23.8450000000000         5.650278715410153E-014
   24.0350000000000         6.553159250250217E-014
   24.2250000000000         7.407859660646527E-014
   24.4150000000000         8.170149768080294E-014
   24.6050000000000         8.921508149874479E-014
   24.7950000000000         9.282052469956632E-014
   24.9850000000000         9.550612796581606E-014
   25.1750000000000         9.604693352554091E-014
   25.3650000000000         9.550881975453006E-014
   25.5550000000000         9.407244778849772E-014
   25.7450000000000         9.114278917267355E-014
   25.9350000000000         8.751964164093001E-014
   26.1250000000000         8.465163993957018E-014
   26.3150000000000         8.232332611426555E-014
   26.5050000000000         7.995546745918805E-014
   26.6950000000000         7.795941858521238E-014
   26.8850000000000         7.597894390222738E-014
   27.0750000000000         7.373349737676559E-014
   27.2650000000000         7.172094752657853E-014
   27.4550000000000         7.091911344122122E-014
   27.6450000000000         7.112104876168962E-014
   27.8350000000000         7.132015608496884E-014
   28.0250000000000         7.257990231154751E-014
   28.2150000000000         7.384115575888585E-014
   28.4050000000000         7.576120623490681E-014
   28.5950000000000         7.766437966840340E-014
   28.7850000000000         7.787299315123134E-014
   28.9750000000000         7.556836045293659E-014
   29.1650000000000         7.019580809467860E-014
   29.3550000000000         6.134405771867936E-014
   29.5450000000000         5.088332335950546E-014
   29.7350000000000         4.078631057901538E-014
   29.9250000000000         3.047221582542386E-014
   30.1150000000000         2.136635738607644E-014
   30.3050000000000         1.364948339435862E-014
   30.4950000000000         8.177295782933932E-015
   30.6850000000000         5.049002686930924E-015
   30.8750000000000         7.811149717503323E-016
   31.0650000000000        -5.898784591354464E-015
   31.2550000000000        -8.962650047973656E-015
   31.4450000000000        -7.802002066587495E-015
   31.6350000000000        -4.398784407256921E-015
   31.8250000000000        -8.685239412241719E-017
   32.0150000000000         4.429510527412445E-015
   32.2050000000000         9.107869298181007E-015
   32.3950000000000         1.434788045612625E-014
   32.5850000000000         1.925109794887153E-014
   32.7750000000000         2.249921985143887E-014
   32.9650000000000         2.519633921978887E-014
   33.1550000000000         2.648616459943811E-014
   33.3450000000000         2.838619730780313E-014
   33.5350000000000         3.132282193520631E-014
   33.7250000000000         3.580638091972290E-014
   33.9150000000000         4.240879152834010E-014
   34.1050000000000         5.015864191581797E-014
   34.2950000000000         5.730146488606320E-014
   34.4850000000000         6.192189268519752E-014
   34.6750000000000         6.654193752759267E-014
   34.8650000000000         7.075839079187653E-014
   35.0550000000000         7.458544503294945E-014
   35.2450000000000         7.855020876898269E-014
   35.4350000000000         8.170111427841894E-014
   35.6250000000000         8.350314476707308E-014
   35.8150000000000         8.412445488582484E-014
   36.0050000000000         8.374128383168017E-014
   36.1950000000000         8.273372508600339E-014
   36.3850000000000         8.229704527000635E-014
   36.5750000000000         8.132316589441642E-014
   36.7650000000000         8.111713001795114E-014
   36.9550000000000         8.013159842329375E-014
   37.1450000000000         7.877887816514250E-014
   37.3350000000000         7.730192680693393E-014
   37.5250000000000         7.584851960280643E-014
   37.7150000000000         7.430420182276297E-014
   37.9050000000000         7.275773604013680E-014
   38.0950000000000         7.160417487257042E-014
   38.2850000000000         6.995497737561651E-014
   38.4750000000000         6.778163759110309E-014
   38.6650000000000         6.598425126368574E-014
   38.8550000000000         6.504662173323978E-014
   39.0450000000000         6.434329026132466E-014
   39.2350000000000         6.337071969505060E-014
   39.4250000000000         6.190057328334205E-014
   39.6150000000000         5.998720108499365E-014
   39.8050000000000         5.713809340922123E-014
   39.9950000000000         5.490429496830144E-014
   40.1850000000000         5.251080375280553E-014
   40.3750000000000         5.171488559739450E-014
   40.5650000000000         5.039663691398471E-014
   40.7550000000000         4.798352130716998E-014
   40.9450000000000         4.319653379350779E-014
   41.1350000000000         3.442051158237864E-014
   41.3250000000000         2.315711813136392E-014
   41.5150000000000         1.442789838560026E-014
   41.7050000000000         9.468008450355518E-015
   41.8950000000000         7.118896963456975E-015
   42.0850000000000         7.288582314823723E-015
   42.2750000000000         9.383398296011594E-015
   42.4650000000000         1.293404132406848E-014
   42.6550000000000         1.742076053255798E-014
   42.8450000000000         2.281959366551174E-014
   43.0350000000000         2.812319242400456E-014
   43.2250000000000         3.196882201171550E-014
   43.4150000000000         3.761579078221163E-014
   43.6050000000000         3.914323846274514E-014
   43.7950000000000         4.152218658763197E-014
   43.9850000000000         4.364257441885497E-014
   44.1750000000000         4.683803778845611E-014
   44.3650000000000         5.194538521116490E-014
   44.5550000000000         5.939765162704772E-014
   44.7450000000000         6.763384932368885E-014
   44.9350000000000         7.276435848334564E-014
   45.1250000000000         7.338677250260963E-014
   45.3150000000000         7.132174587275588E-014
   45.5050000000000         6.853169988781080E-014
   45.6950000000000         6.611136298417767E-014
   45.8850000000000         6.425832726973804E-014
   46.0750000000000         6.343906559242981E-014
   46.2650000000000         6.294881669167426E-014
   46.4550000000000         6.272404104420468E-014
   46.6450000000000         6.257338725154589E-014
   46.8350000000000         6.309642494911842E-014
   47.0250000000000         6.508713768697863E-014
   47.2150000000000         6.788126132890752E-014
   47.4050000000000         7.010209111340341E-014
   47.5950000000000         7.127452777108268E-014
   47.7850000000000         7.109219464580786E-014
   47.9750000000000         6.977027988965991E-014
   48.1650000000000         6.750544836858873E-014
   48.3550000000000         6.473778267113477E-014
   48.5450000000000         6.235915792865000E-014
   48.7350000000000         5.997273956571542E-014
   48.9250000000000         5.815854953585904E-014
   49.1150000000000         5.650775389272775E-014
   49.3050000000000         5.317759135776345E-014
   49.4950000000000         4.802286774124327E-014
   49.6850000000000         4.431292601459128E-014
   49.8750000000000         4.345555107742855E-014
   50.0650000000000         4.525886045502903E-014
   50.2550000000000         4.876728848375744E-014
   50.4450000000000         5.294016632285705E-014
   50.6350000000000         5.526405992039707E-014
   50.8250000000000         5.916801889828944E-014
   51.0150000000000         6.005617216950618E-014
   51.2050000000000         6.152671603327639E-014
   51.3950000000000         6.374405969920909E-014
   51.5850000000000         6.634847200500113E-014
   51.7750000000000         6.602146161524897E-014
   51.9650000000000         6.090663712532000E-014
   52.1550000000000         5.232415526869019E-014
   52.3450000000000         4.243671823619164E-014
   52.5350000000000         3.176207890159449E-014
   52.7250000000000         2.172780207936889E-014
   52.9150000000000         1.500653512646485E-014
   53.1050000000000         8.241284369700177E-015
   53.2950000000000         2.396295389529906E-015
   53.4850000000000        -3.437944311719328E-015
   53.6750000000000        -8.702199127755385E-015
   53.8650000000000        -9.011836105947872E-015
   54.0550000000000        -5.005598999864912E-015
   54.2450000000000         2.497769787921644E-015
   54.4350000000000         1.287819024543885E-014
   54.6250000000000         2.458551887029267E-014
   54.8150000000000         3.656288136813399E-014
   55.0050000000000         4.788839299957187E-014
   55.1950000000000         5.594400428047949E-014
   55.3850000000000         6.506310751089842E-014
   55.5750000000000         7.040775389286881E-014
   55.7650000000000         7.574410432879606E-014
   55.9550000000000         8.173085209536001E-014
   56.1450000000000         8.919029536504830E-014
   56.3350000000000         9.471354792267762E-014
   56.5250000000000         9.542446470999423E-014
   56.7150000000000         9.309359470840389E-014
   56.9050000000000         8.849605833437304E-014
   57.0950000000000         8.331730504100320E-014
   57.2850000000000         7.927471373651838E-014
   57.4750000000000         7.493227692748576E-014
   57.6650000000000         7.009479281451832E-014
   57.8550000000000         6.643021523432065E-014
   58.0450000000000         6.458098098785112E-014
   58.2350000000000         6.296490190968518E-014
   58.4250000000000         6.127555643481527E-014
   58.6150000000000         6.012931838131894E-014
   58.8050000000000         5.935950316941418E-014
   58.9950000000000         5.871657072038941E-014
   59.1850000000000         5.843742793715426E-014
   59.3750000000000         5.830490535468669E-014
   59.5650000000000         5.821093776738478E-014
   59.7550000000000         5.806165205064628E-014
   59.9450000000000         5.786826123512524E-014
   60.1350000000000         5.766493195917460E-014
   60.3250000000000         5.736278329584142E-014
   60.5150000000000         5.640344098328593E-014
   60.7050000000000         5.434191241341654E-014
   60.8950000000000         5.071555648707990E-014
   61.0850000000000         4.671096453074346E-014
   61.2750000000000         4.266846752425513E-014
   61.4650000000000         3.862622950276850E-014
   61.6550000000000         3.494082758577379E-014
   61.8450000000000         3.113586612313846E-014
   62.0350000000000         2.762341153420330E-014
   62.2250000000000         2.487531942717999E-014
   62.4150000000000         2.195649697543527E-014
   62.6050000000000         1.936188463906690E-014
   62.7950000000000         1.849810381950202E-014
   62.9850000000000         1.738916435380916E-014
   63.1750000000000         1.591809833884465E-014
   63.3650000000000         1.395131002861528E-014
   63.5550000000000         1.103959254389816E-014
   63.7450000000000         7.471334538021305E-015
   63.9350000000000         4.325535434518224E-015
   64.1250000000000         1.940124757826858E-015
   64.3150000000000         6.686456893207124E-016
   64.5050000000000         5.641398073209518E-016
   64.6950000000000         2.292866035261328E-015
   64.8850000000000         4.352208839865873E-015
   65.0750000000000         7.793069010443511E-015
   65.2650000000000         1.323035135809006E-014
   65.4550000000000         1.929630225193942E-014
   65.6450000000000         2.619434495422909E-014
   65.8350000000000         3.396410174083099E-014
   66.0250000000000         4.107938916913615E-014
   66.2150000000000         4.744744830618347E-014
   66.4050000000000         5.341412204147035E-014
   66.5950000000000         5.514907179956796E-014
   66.7850000000000         5.910047328315042E-014
   66.9750000000000         6.067059587952882E-014
   67.1650000000000         6.259956027165065E-014
   67.3550000000000         6.506724988219260E-014
   67.5450000000000         6.847036603631877E-014
   67.7350000000000         7.264679910689709E-014
   67.9250000000000         7.670502011711533E-014
   68.1150000000000         7.931551627676309E-014
   68.3050000000000         8.004146216959415E-014
   68.4950000000000         7.861704942837435E-014
   68.6850000000000         7.588155528712489E-014
   68.8750000000000         7.252605380658056E-014
   69.0650000000000         6.899971680100344E-014
   69.2550000000000         6.556619835470351E-014
   69.4450000000000         6.266334122200343E-014
   69.6350000000000         6.064326943162652E-014
   69.8250000000000         5.962382554811501E-014
   70.0150000000000         5.891859659774923E-014
   70.2050000000000         5.877454315817882E-014
   70.3950000000000         5.918437485174836E-014
   70.5850000000000         5.997517551492430E-014
   70.7750000000000         6.094561892512972E-014
   70.9650000000000         6.158873026816442E-014
   71.1550000000000         6.142613571216383E-014
   71.3450000000000         6.072600603638058E-014
   71.5350000000000         5.869567715402040E-014
   71.7250000000000         5.770434043582831E-014
   71.9150000000000         5.495506500410180E-014
   72.1050000000000         5.373405076678813E-014
   72.2950000000000         5.225081159441032E-014
   72.4850000000000         5.087537236021515E-014
   72.6750000000000         4.989698080947989E-014
   72.8650000000000         4.799837874253156E-014
   73.0550000000000         4.575592624640451E-014
   73.2450000000000         4.253627861514002E-014
   73.4350000000000         3.672829311573600E-014
   73.6250000000000         2.849749505562204E-014
   73.8150000000000         2.016632632577632E-014
   74.0050000000000         1.303642120174896E-014
   74.1950000000000         9.010550804802992E-015
   74.3850000000000         7.264826467359753E-015
   74.5750000000000         7.430076752175508E-015
   74.7650000000000         8.900597044787346E-015
   74.9550000000000         1.119841045274002E-014
   75.1450000000000         1.392181045501102E-014
   75.3350000000000         1.463854170958967E-014
   75.5250000000000         1.867274571190257E-014
   75.7150000000000         1.990070690554626E-014
   75.9050000000000         2.220752391792830E-014
   76.0950000000000         2.615693040263847E-014
   76.2850000000000         3.236302597217532E-014
   76.4750000000000         4.094103444899532E-014
   76.6650000000000         4.887817588922451E-014
   76.8550000000000         5.329485434018267E-014
   77.0450000000000         5.729521743259441E-014
   77.2350000000000         6.325557197756311E-014
   77.4250000000000         7.137727023816057E-014
   77.6150000000000         7.959327230732007E-014
   77.8050000000000         8.409665001064365E-014
   77.9950000000000         8.536871844275625E-014
   78.1850000000000         8.443711179784721E-014
   78.3750000000000         8.237248275234154E-014
   78.5650000000000         8.032073298515865E-014
   78.7550000000000         7.798868556069500E-014
   78.9450000000000         7.724660822285950E-014
   79.1350000000000         7.520737820791221E-014
   79.3250000000000         7.367329536212726E-014
   79.5150000000000         7.099079559042192E-014
   79.7050000000000         6.657054626693674E-014
   79.8950000000000         5.976940210283727E-014
   80.0850000000000         5.124823165455977E-014
   80.2750000000000         4.374461192707902E-014
   80.4650000000000         3.895913168558771E-014
   80.6550000000000         3.581609041910205E-014
   80.8450000000000         3.400299026593029E-014
   81.0350000000000         3.268948822013353E-014
   81.2250000000000         3.173802380604336E-014
   81.4150000000000         3.078020498343078E-014
   81.6050000000000         2.979006820057544E-014
   81.7950000000000         2.916340451586995E-014
   81.9850000000000         2.828365734542919E-014
   82.1750000000000         2.747995203385075E-014
   82.3650000000000         2.631177954742423E-014
   82.5550000000000         2.416865540362834E-014
   82.7450000000000         2.092437042122688E-014
   82.9350000000000         1.786878935780631E-014
   83.1250000000000         1.541648898422004E-014
   83.3150000000000         1.381184539560140E-014
   83.5050000000000         1.281705153642291E-014
   83.6950000000000         1.262717196673703E-014
   83.8850000000000         1.251383761796170E-014
   84.0750000000000         1.272798358450330E-014
   84.2650000000000         1.292199644950053E-014
   84.4550000000000         1.285513869180850E-014
   84.6450000000000         1.262757867984137E-014
   84.8350000000000         1.235249566196317E-014
   85.0250000000000         1.252044825582997E-014
   85.2150000000000         1.368078009164786E-014
   85.4050000000000         1.655672340021538E-014
   85.5950000000000         2.154426936662785E-014
   85.7850000000000         2.733134061433787E-014
   85.9750000000000         3.244151196375558E-014
   86.1650000000000         3.667147664672130E-014
   86.3550000000000         4.013874905453305E-014
   86.5450000000000         4.355684207163264E-014
   86.7350000000000         4.714096131866790E-014
   86.9250000000000         5.077175115445776E-014
   87.1150000000000         5.424180215173532E-014
   87.3050000000000         5.784084964284206E-014
   87.4950000000000         6.157803259685119E-014
   87.6850000000000         6.511805985787627E-014
   87.8750000000000         6.750869933742259E-014
   88.0650000000000         6.990806688746714E-014
   88.2550000000000         7.132549408246020E-014
   88.4450000000000         7.296164330887825E-014
   88.6350000000000         7.452338305841468E-014
   88.8250000000000         7.670470660961519E-014
   89.0150000000000         7.906897628280966E-014
   89.2050000000000         8.092603120320814E-014
   89.3950000000000         7.994267975358465E-014
   89.5850000000000         7.509590405000676E-014
   89.7750000000000         6.934507366017105E-014
   89.9650000000000         6.351019589767688E-014
   90.1550000000000         5.710052314357538E-014
   90.3450000000000         5.122967920894288E-014
   90.5350000000000         4.544927347370455E-014
   90.7250000000000         4.024336763926632E-014
   90.9150000000000         3.585721963114562E-014
   91.1050000000000         3.259235347195542E-014
   91.2950000000000         3.044840147091541E-014
   91.4850000000000         2.934647757247142E-014
   91.6750000000000         2.949263202831542E-014
   91.8650000000000         3.079095820986310E-014
   92.0550000000000         3.267472591369940E-014
   92.2450000000000         3.428693560198816E-014
   92.4350000000000         3.556535426643875E-014
   92.6250000000000         3.665675100803975E-014
   92.8150000000000         3.722072624188646E-014
   93.0050000000000         3.766805665667669E-014
   93.1950000000000         3.803559498179325E-014
   93.3850000000000         3.743842874810974E-014
   93.5750000000000         3.415162908998221E-014
   93.7650000000000         2.867709048686916E-014
   93.9550000000000         2.275294761070996E-014
   94.1450000000000         1.682407588478482E-014
   94.3350000000000         1.105565572059633E-014
   94.5250000000000         5.793763187770347E-015
   94.7150000000000         1.610390501975196E-015
   94.9050000000000        -2.146108404090525E-015
   95.0950000000000        -4.255490829411058E-015
   95.2850000000000        -6.224750052040935E-015
   95.4750000000000        -7.077190228830971E-015
   95.6650000000000        -7.536496368773651E-015
   95.8550000000000        -7.563470354478693E-015
   96.0450000000000        -6.807971404721343E-015
   96.2350000000000        -4.604402739025576E-015
   96.4250000000000        -8.255993460938132E-016
   96.6150000000000         5.378275140634876E-015
   96.8050000000000         1.399163764478423E-014
   96.9950000000000         2.349279872904850E-014
   97.1850000000000         3.214256525848624E-014
   97.3750000000000         3.731120617506799E-014
   97.5650000000000         4.297269943027175E-014
   97.7550000000000         4.798327239787250E-014
   97.9450000000000         5.312505298423350E-014
   98.1350000000000         5.848985021024805E-014
   98.3250000000000         6.311069426222087E-014
   98.5150000000000         6.641325124751467E-014
   98.7050000000000         6.819766396308334E-014
   98.8950000000000         6.859602661588653E-014
   99.0850000000000         6.781232014901647E-014
   99.2750000000000         6.544524954093080E-014
   99.4650000000000         6.037753833786844E-014
   99.6550000000000         5.441378556232114E-014
   99.8450000000000         4.782144584508061E-014
   100.035000000000         4.150711813679872E-014
   100.225000000000         3.571455115047672E-014
   100.415000000000         3.097884257175172E-014
   100.605000000000         2.722990455909925E-014
   100.795000000000         2.480510261431874E-014
   100.985000000000         2.311556072900997E-014
   101.175000000000         2.318483261329709E-014
   101.365000000000         2.249177781970593E-014
   101.555000000000         2.248370450731106E-014
   101.745000000000         2.191754960975332E-014
   101.935000000000         2.075437641121931E-014
   102.125000000000         1.961242524681889E-014
   102.315000000000         1.952280412947119E-014
   102.505000000000         1.997893373851567E-014
   102.695000000000         2.099803567711695E-014
   102.885000000000         2.200029610685360E-014
   103.075000000000         2.286143728871186E-014
   103.265000000000         2.362292777420649E-014
   103.455000000000         2.393406196313997E-014
   103.645000000000         2.389797433537541E-014
   103.835000000000         2.340398398611528E-014
   104.025000000000         2.261929391699329E-014
   104.215000000000         2.205779812287778E-014
   104.405000000000         2.151356669914096E-014
   104.595000000000         2.087671364135825E-014
   104.785000000000         1.982671790325691E-014
   104.975000000000         1.769180945819169E-014
   105.165000000000         1.453238254222337E-014
   105.355000000000         1.113018923402601E-014
   105.545000000000         7.840708991029369E-015
   105.735000000000         4.944617148589779E-015
   105.925000000000         2.969475844608468E-015
   106.115000000000         2.025245201597222E-015
   106.305000000000         1.489181129691601E-015
   106.495000000000         1.687108277202614E-015
   106.685000000000         2.219635378321651E-015
   106.875000000000         2.706455541134835E-015
   107.065000000000         3.759756814911142E-015
   107.255000000000         5.275841112976315E-015
   107.445000000000         7.219452154481879E-015
   107.635000000000         9.643500453241279E-015
   107.825000000000         1.221982843787851E-014
   108.015000000000         1.475714445762666E-014
   108.205000000000         1.779214734842979E-014
   108.395000000000         2.278420731448935E-014
   108.585000000000         3.004840923982446E-014
   108.775000000000         3.732108329049288E-014
   108.965000000000         4.514883547776171E-014
   109.155000000000         4.718315670779882E-014
   109.345000000000         5.262506570278821E-014
   109.535000000000         5.360964333846758E-014
   109.725000000000         5.474361092131702E-014
   109.915000000000         5.587847504630795E-014
   110.105000000000         5.755605476143267E-014