  -1.42500000000000         1.399036745910092E-020
  -1.23500000000000         8.142544933171590E-020
  -1.04500000000000         4.253810995593956E-019
 -0.855000000000000         2.070295106191593E-018
 -0.665000000000000         8.599650650599288E-018
 -0.475000000000000         3.110832482847118E-017
 -0.285000000000000         9.500839848143390E-017
 -9.499999999999975E-002    2.539545162107173E-016
  9.500000000000020E-002    5.979792851495441E-016
  0.285000000000000         1.252815026908329E-015
  0.475000000000000         2.359808396104908E-015
  0.665000000000000         4.055711640058579E-015
  0.855000000000000         6.447410595329309E-015
   1.04500000000000         9.638402274486684E-015
   1.23500000000000         1.373015918849592E-014
   1.42500000000000         1.861479757121647E-014
   1.61500000000000         2.418393997418983E-014
   1.80500000000000         3.057195944697058E-014
   1.99500000000000         3.786721017893265E-014
   2.18500000000000         4.608636528643171E-014
   2.37500000000000         5.525338587148884E-014
   2.56500000000000         6.531332424530878E-014
   2.75500000000000         7.615689832441561E-014
   2.94500000000000         8.766271964581700E-014
   3.13500000000000         9.965386716714164E-014
   3.32500000000000         1.118927719373322E-013
   3.51500000000000         1.243095753276939E-013
   3.70500000000000         1.368815324979751E-013
   3.89500000000000         1.495284377245016E-013
   4.08500000000000         1.622374112775548E-013
   4.27500000000000         1.749913590047111E-013
   4.46500000000000         1.877772010678231E-013
   4.65500000000000         2.005630511722442E-013
   4.84500000000000         2.132767532924856E-013
   5.03500000000000         2.258160301358242E-013
   5.22500000000000         2.382093861947859E-013
   5.41500000000000         2.504125246070708E-013
   5.60500000000000         2.623072822850454E-013
   5.79500000000000         2.739328466715740E-013
   5.98500000000000         2.853991831442914E-013
   6.17500000000000         2.969031964425517E-013
   6.36500000000000         3.087075843244839E-013
   6.55500000000000         3.210183090408474E-013
   6.74500000000000         3.339074267859147E-013
   6.93500000000000         3.474589133980799E-013
   7.12500000000000         3.618904376055430E-013
   7.31500000000000         3.772645398073572E-013
   7.50500000000000         3.933780194078982E-013
   7.69500000000000         4.099821415695355E-013
   7.88500000000000         4.267964502927837E-013
   8.07500000000000         4.435481819648444E-013
   8.26500000000000         4.600721215747993E-013
   8.45500000000000         4.762858023604548E-013
   8.64500000000000         4.920532557502355E-013
   8.83500000000000         5.072185034300903E-013
   9.02500000000000         5.213698436852261E-013
   9.21500000000000         5.337277327371233E-013
   9.40500000000000         5.437875465022773E-013
   9.59500000000000         5.516249206264669E-013
   9.78500000000000         5.577201914694936E-013
   9.97500000000000         5.625201115227301E-013
   10.1650000000000         5.663237858077989E-013
   10.3550000000000         5.695143301755069E-013
   10.5450000000000         5.723392043634100E-013
   10.7350000000000         5.749756510921638E-013
   10.9250000000000         5.775710168035538E-013
   11.1150000000000         5.801286819604921E-013
   11.3050000000000         5.826327143486315E-013
   11.4950000000000         5.851025455991561E-013
   11.6850000000000         5.876426587573516E-013
   11.8750000000000         5.904435019158184E-013
   12.0650000000000         5.937048481716694E-013
   12.2550000000000         5.975633954536778E-013
   12.4450000000000         6.021793837347666E-013
   12.6350000000000         6.073356342710119E-013
   12.8250000000000         6.129851892823937E-013
   13.0150000000000         6.193444116574898E-013
   13.2050000000000         6.263060222847015E-013
   13.3950000000000         6.338628558694732E-013
   13.5850000000000         6.419859523525775E-013
   13.7750000000000         6.505052177926545E-013
   13.9650000000000         6.592478290569953E-013
   14.1550000000000         6.680797378031164E-013
   14.3450000000000         6.769674656566781E-013
   14.5350000000000         6.859140466297733E-013
   14.7250000000000         6.949168306318096E-013
   14.9150000000000         7.040983364394176E-013
   15.1050000000000         7.137670920091509E-013
   15.2950000000000         7.243824044152129E-013
   15.4850000000000         7.363363668828424E-013
   15.6750000000000         7.496568396228068E-013
   15.8650000000000         7.641901260682006E-013
   16.0550000000000         7.798987040515530E-013
   16.2450000000000         7.966203268058282E-013
   16.4350000000000         8.140372136323807E-013
   16.6250000000000         8.318802465415504E-013
   16.8150000000000         8.499544422125167E-013
   17.0050000000000         8.681143624484764E-013
   17.1950000000000         8.862651465148063E-013
   17.3850000000000         9.043792951105569E-013
   17.5750000000000         9.223741138285789E-013
   17.7650000000000         9.402173925373998E-013
   17.9550000000000         9.579343513688238E-013
   18.1450000000000         9.755059486226498E-013
   18.3350000000000         9.929389602875970E-013
   18.5250000000000         1.010198730183630E-012
   18.7150000000000         1.027121632183009E-012
   18.9050000000000         1.043425021836769E-012
   19.0950000000000         1.058824492151844E-012
   19.2850000000000         1.073104500247931E-012
   19.4750000000000         1.086204831627436E-012
   19.6650000000000         1.098209906755603E-012
   19.8550000000000         1.109219860586681E-012
   20.0450000000000         1.119327449914911E-012
   20.2350000000000         1.128645145324623E-012
   20.4250000000000         1.137244819830467E-012
   20.6150000000000         1.145103627023795E-012
   20.8050000000000         1.152156020988045E-012
   20.9950000000000         1.158378921495477E-012
   21.1850000000000         1.164089092862433E-012
   21.3750000000000         1.169228209622255E-012
   21.5650000000000         1.173813665564214E-012
   21.7550000000000         1.178105845734056E-012
   21.9450000000000         1.181832084177850E-012
   22.1350000000000         1.184787520230717E-012
   22.3250000000000         1.186899261603373E-012
   22.5150000000000         1.188513857855790E-012
   22.7050000000000         1.190326786335221E-012
   22.8950000000000         1.192944556954945E-012
   23.0850000000000         1.196787762000679E-012
   23.2750000000000         1.202058258584331E-012
   23.4650000000000         1.208699496817346E-012
   23.6550000000000         1.216776520100302E-012
   23.8450000000000         1.226584404424900E-012
   24.0350000000000         1.238177670492277E-012
   24.2250000000000         1.251440638457629E-012
   24.4150000000000         1.266239747414920E-012
   24.6050000000000         1.282476822436976E-012
   24.7950000000000         1.299770205025816E-012
   24.9850000000000         1.317661237029027E-012
   25.1750000000000         1.335858777870706E-012
   25.3650000000000         1.354056574432313E-012
   25.5550000000000         1.372066794848900E-012
   25.7450000000000         1.389662242360212E-012
   25.9350000000000         1.406635173287504E-012
   26.1250000000000         1.422991445037652E-012
   26.3150000000000         1.438854066812766E-012
   26.5050000000000         1.454270552202244E-012
   26.6950000000000         1.469272466376462E-012
   26.8850000000000         1.483896610812769E-012
   27.0750000000000         1.498119292734273E-012
   27.2650000000000         1.511937465000091E-012
   27.4550000000000         1.525488270792032E-012
   27.6450000000000         1.538982086201308E-012
   27.8350000000000         1.552514000661741E-012
   28.0250000000000         1.566184506209410E-012
   28.2150000000000         1.580094506726101E-012
   28.4050000000000         1.594306731115511E-012
   28.5950000000000         1.608882161776326E-012
   28.7850000000000         1.623658212194191E-012
   28.9750000000000         1.638235140786587E-012
   29.1650000000000         1.652082736798611E-012
   29.3550000000000         1.664579024050879E-012
   29.5450000000000         1.675240625253307E-012
   29.7350000000000         1.683949240477467E-012
   29.9250000000000         1.690718800485888E-012
   30.1150000000000         1.695643464940981E-012
   30.3050000000000         1.698969969815122E-012
   30.4950000000000         1.701043513836965E-012
   30.6850000000000         1.702300012191603E-012
   30.8750000000000         1.702853873369178E-012
   31.0650000000000         1.702367694755315E-012
   31.2550000000000         1.700955858464579E-012
   31.4450000000000         1.699363216513696E-012
   31.6350000000000         1.698204141798681E-012
   31.8250000000000         1.697778006302549E-012
   32.0150000000000         1.698190558825211E-012
   32.2050000000000         1.699476609908643E-012
   32.3950000000000         1.701704906135303E-012
   32.5850000000000         1.704896809083777E-012
   32.7750000000000         1.708863089274807E-012
   32.9650000000000         1.713394167386574E-012
   33.1550000000000         1.718304005249400E-012
   33.3450000000000         1.723516879630588E-012
   33.5350000000000         1.729189236458674E-012
   33.7250000000000         1.735566510729893E-012
   33.9150000000000         1.742996952112458E-012
   34.1050000000000         1.751790858289653E-012
   34.2950000000000         1.761999568435832E-012
   34.4850000000000         1.773325787405102E-012
   34.6750000000000         1.785529851275317E-012
   34.8650000000000         1.798573382465666E-012
   35.0550000000000         1.812381046869025E-012
   35.2450000000000         1.826928933980208E-012
   35.4350000000000         1.842152809669711E-012
   35.6250000000000         1.857847214279033E-012
   35.8150000000000         1.873771836246059E-012
   36.0050000000000         1.889719081424222E-012
   36.1950000000000         1.905534207271401E-012
   36.3850000000000         1.921212130455223E-012
   36.5750000000000         1.936756050515843E-012
   36.7650000000000         1.952187878627517E-012
   36.9550000000000         1.967506507829436E-012
   37.1450000000000         1.982603003105338E-012
   37.3350000000000         1.997430679577684E-012
   37.5250000000000         2.011979971986609E-012
   37.7150000000000         2.026244480522039E-012
   37.9050000000000         2.040215364619014E-012
   38.0950000000000         2.053929746155721E-012
   38.2850000000000         2.067377865619299E-012
   38.4750000000000         2.080462844041137E-012
   38.6650000000000         2.093170603482342E-012
   38.8550000000000         2.105618536417050E-012
   39.0450000000000         2.117910578056533E-012
   39.2350000000000         2.130043409002390E-012
   39.4250000000000         2.141944181835337E-012
   39.6150000000000         2.153523520400328E-012
   39.8050000000000         2.164650423377279E-012
   39.9950000000000         2.175294450273144E-012
   40.1850000000000         2.185498884651649E-012
   40.3750000000000         2.195400325139917E-012
   40.5650000000000         2.205100919778499E-012
   40.7550000000000         2.214447034809509E-012
   40.9450000000000         2.223109140044073E-012
   41.1350000000000         2.230482759354782E-012
   41.3250000000000         2.235952634177588E-012
   41.5150000000000         2.239523210746699E-012
   41.7050000000000         2.241793321896115E-012
   41.8950000000000         2.243369077910428E-012
   42.0850000000000         2.244737788441864E-012
   42.2750000000000         2.246321626599893E-012
   42.4650000000000         2.248441783363801E-012
   42.6550000000000         2.251325489540180E-012
   42.8450000000000         2.255148323188997E-012
   43.0350000000000         2.259987887867501E-012
   43.2250000000000         2.265696629238895E-012
   43.4150000000000         2.272307167454318E-012
   43.6050000000000         2.279599275232589E-012
   43.7950000000000         2.287262490612374E-012
   43.9850000000000         2.295353142907991E-012
   44.1750000000000         2.303948801067685E-012
   44.3650000000000         2.313333226252650E-012
   44.5550000000000         2.323910814752280E-012
   44.7450000000000         2.335978807342600E-012
   44.9350000000000         2.349316637084268E-012
   45.1250000000000         2.363200994527933E-012
   45.3150000000000         2.376948303773594E-012
   45.5050000000000         2.390234381120847E-012
   45.6950000000000         2.403025472093685E-012
   45.8850000000000         2.415410592667808E-012
   46.0750000000000         2.427541844989714E-012
   46.2650000000000         2.439548693806703E-012
   46.4550000000000         2.451487615291612E-012
   46.6450000000000         2.463390870979709E-012
   46.8350000000000         2.475329503138771E-012
   47.0250000000000         2.487506941589201E-012
   47.2150000000000         2.500138939495710E-012
   47.4050000000000         2.513247357977730E-012
   47.5950000000000         2.526678136771756E-012
   47.7850000000000         2.540202975401360E-012
   47.9750000000000         2.553584910482230E-012
   48.1650000000000         2.566626104666764E-012
   48.3550000000000         2.579189211615537E-012
   48.5450000000000         2.591263420972517E-012
   48.7350000000000         2.602884951234482E-012
   48.9250000000000         2.614107423699131E-012
   49.1150000000000         2.625000722524847E-012
   49.3050000000000         2.635420830323644E-012
   49.4950000000000         2.645034873938049E-012
   49.6850000000000         2.653806774344853E-012
   49.8750000000000         2.662144779668595E-012
   50.0650000000000         2.670572648764178E-012
   50.2550000000000         2.679505132913363E-012
   50.4450000000000         2.689167341119991E-012
   50.6350000000000         2.699446742613101E-012
   50.8250000000000         2.710317790100875E-012
   51.0150000000000         2.721644088252316E-012
   51.2050000000000         2.733194462631580E-012
   51.3950000000000         2.745095186326167E-012
   51.5850000000000         2.757453976838067E-012
   51.7750000000000         2.770029120531990E-012
   51.9650000000000         2.782087289912345E-012
   52.1550000000000         2.792844215189776E-012
   52.3450000000000         2.801846498172738E-012
   52.5350000000000         2.808895383900828E-012
   52.7250000000000         2.813976922594020E-012
   52.9150000000000         2.817466684628574E-012
   53.1050000000000         2.819675227480709E-012
   53.2950000000000         2.820685797557836E-012
   53.4850000000000         2.820586840910228E-012
   53.6750000000000         2.819433527283478E-012
   53.8650000000000         2.817750693936276E-012
   54.0550000000000         2.816419037601223E-012
   54.2450000000000         2.816180793826089E-012
   54.4350000000000         2.817641510029258E-012
   54.6250000000000         2.821200562395252E-012
   54.8150000000000         2.827009660417903E-012
   55.0050000000000         2.835032531482836E-012
   55.1950000000000         2.844896609224440E-012
   55.3850000000000         2.856392284844621E-012
   55.5750000000000         2.869262016677978E-012
   55.7650000000000         2.883146443209038E-012
   55.9550000000000         2.898106564069333E-012
   56.1450000000000         2.914344073078071E-012
   56.3350000000000         2.931814938190404E-012
   56.5250000000000         2.949878049390508E-012
   56.7150000000000         2.967787265035256E-012
   56.9050000000000         2.985038282074320E-012
   57.0950000000000         3.001360551594981E-012
   57.2850000000000         3.016806793378845E-012
   57.4750000000000         3.031456457491926E-012
   57.6650000000000         3.045234029117417E-012
   57.8550000000000         3.058203904882056E-012
   58.0450000000000         3.070649968523163E-012
   58.2350000000000         3.082766827398428E-012
   58.4250000000000         3.094569670941156E-012
   58.6150000000000         3.106103134048689E-012
   58.8050000000000         3.117454572096009E-012
   58.9950000000000         3.128671799115540E-012
   59.1850000000000         3.139801428988006E-012
   59.3750000000000         3.150891950650731E-012
   59.5650000000000         3.161960955747328E-012
   59.7550000000000         3.173006851780041E-012
   59.9450000000000         3.184020193542190E-012
   60.1350000000000         3.194995846895648E-012
   60.3250000000000         3.205923479844874E-012
   60.5150000000000         3.216731271151391E-012
   60.7050000000000         3.227252079724077E-012
   60.8950000000000         3.237232539269625E-012
   61.0850000000000         3.246488058766319E-012
   61.2750000000000         3.254979104811543E-012
   61.4650000000000         3.262702101029110E-012
   61.6550000000000         3.269690971452522E-012
   61.8450000000000         3.275968257354868E-012
   62.0350000000000         3.281550388732317E-012
   62.2250000000000         3.286537768173649E-012
   62.4150000000000         3.290986790731896E-012
   62.6050000000000         3.294912036985274E-012
   62.7950000000000         3.298508735888838E-012
   62.9850000000000         3.301918026365303E-012
   63.1750000000000         3.305082216321105E-012
   63.3650000000000         3.307919810116014E-012
   63.5550000000000         3.310293945860402E-012
   63.7450000000000         3.312052483933185E-012
   63.9350000000000         3.313173186580576E-012
   64.1250000000000         3.313768424298848E-012
   64.3150000000000         3.314016257491327E-012
   64.5050000000000         3.314133372113507E-012
   64.6950000000000         3.314404787668553E-012
   64.8850000000000         3.315036069781690E-012
   65.0750000000000         3.316189871177470E-012
   65.2650000000000         3.318187096112480E-012
   65.4550000000000         3.321277128205433E-012
   65.6450000000000         3.325598739690019E-012
   65.8350000000000         3.331313792126050E-012
   66.0250000000000         3.338442923762497E-012
   66.2150000000000         3.346852973322652E-012
   66.4050000000000         3.356434822505679E-012
   66.5950000000000         3.366748325920578E-012
   66.7850000000000         3.377602032703436E-012
   66.9750000000000         3.388980284273890E-012
   67.1650000000000         3.400690949108253E-012
   67.3550000000000         3.412819296072868E-012
   67.5450000000000         3.425505369585126E-012
   67.7350000000000         3.438911500273732E-012
   67.9250000000000         3.453099923100014E-012
   68.1150000000000         3.467921874057432E-012
   68.3050000000000         3.483060787009835E-012
   68.4950000000000         3.498133345611643E-012
   68.6850000000000         3.512810713059615E-012
   68.8750000000000         3.526909435923517E-012
   69.0650000000000         3.540354384131238E-012
   69.2550000000000         3.553138146071031E-012
   69.4450000000000         3.565319952330818E-012
   69.6350000000000         3.577034080342913E-012
   69.8250000000000         3.588459454365989E-012
   70.0150000000000         3.599720984469846E-012
   70.2050000000000         3.610901832746660E-012
   70.3950000000000         3.622107929957603E-012
   70.5850000000000         3.633428087242437E-012
   70.7750000000000         3.644915562714241E-012
   70.9650000000000         3.656556325887605E-012
   71.1550000000000         3.668242738155737E-012
   71.3450000000000         3.679847191621849E-012
   71.5350000000000         3.691192251524936E-012
   71.7250000000000         3.702250253195971E-012
   71.9150000000000         3.712952896712766E-012
   72.1050000000000         3.723278362711000E-012
   72.2950000000000         3.733346924635314E-012
   72.4850000000000         3.743143912111004E-012
   72.6750000000000         3.752717285662124E-012
   72.8650000000000         3.762017344819566E-012
   73.0550000000000         3.770924003793515E-012
   73.2450000000000         3.779311763255361E-012
   73.4350000000000         3.786841897569796E-012
   73.6250000000000         3.793038347446073E-012
   73.8150000000000         3.797661410477307E-012
   74.0050000000000         3.800815671492421E-012
   74.1950000000000         3.802910133833045E-012
   74.3850000000000         3.804456294673899E-012
   74.5750000000000         3.805852310479756E-012
   74.7650000000000         3.807403724490466E-012
   74.9550000000000         3.809313130202730E-012
   75.1450000000000         3.811699551188968E-012
   75.3350000000000         3.814412784644605E-012
   75.5250000000000         3.817577356949647E-012
   75.7150000000000         3.821241834948305E-012
   75.9050000000000         3.825242116876534E-012
   76.0950000000000         3.829836740036987E-012
   76.2850000000000         3.835396135892596E-012
   76.4750000000000         3.842360021632609E-012
   76.6650000000000         3.850892846614738E-012
   76.8550000000000         3.860599284486532E-012
   77.0450000000000         3.871105341304947E-012
   77.2350000000000         3.882557666298913E-012
   77.4250000000000         3.895347786309407E-012
   77.6150000000000         3.909689987851228E-012
   77.8050000000000         3.925240530471434E-012
   77.9950000000000         3.941339740474507E-012
   78.1850000000000         3.957471294347364E-012
   78.3750000000000         3.973318205829632E-012
   78.5650000000000         3.988774061324694E-012
   78.7550000000000         4.003813456086552E-012
   78.9450000000000         4.018560808995988E-012
   79.1350000000000         4.033043937706911E-012
   79.3250000000000         4.047187601696066E-012
   79.5150000000000         4.060930690336557E-012
   79.7050000000000         4.073999017813007E-012
   79.8950000000000         4.086001312908135E-012
   80.0850000000000         4.096547988115088E-012
   80.2750000000000         4.105572308255343E-012
   80.4650000000000         4.113429163898547E-012
   80.6550000000000         4.120532809998492E-012
   80.8450000000000         4.127165622663570E-012
   81.0350000000000         4.133501408119746E-012
   81.2250000000000         4.139622021762233E-012
   81.4150000000000         4.145561253497232E-012
   81.6050000000000         4.151315429449715E-012
   81.7950000000000         4.156916009357776E-012
   81.9850000000000         4.162373480234601E-012
   82.1750000000000         4.167671023125631E-012
   82.3650000000000         4.172781237625854E-012
   82.5550000000000         4.177576878946204E-012
   82.7450000000000         4.181860716399564E-012
   82.9350000000000         4.185546066578573E-012
   83.1250000000000         4.188708168021065E-012
   83.3150000000000         4.191484859787148E-012
   83.5050000000000         4.194014604995690E-012
   83.6950000000000         4.196431806228490E-012
   83.8850000000000         4.198820202139037E-012
   84.0750000000000         4.201218175153270E-012
   84.2650000000000         4.203654923256500E-012
   84.4550000000000         4.206103751094925E-012
   84.6450000000000         4.208524609245231E-012
   84.8350000000000         4.210897716307701E-012
   85.0250000000000         4.213260645979892E-012
   85.2150000000000         4.215749762672902E-012
   85.4050000000000         4.218622325504629E-012
   85.5950000000000         4.222241919817479E-012
   85.7850000000000         4.226885102765671E-012
   85.9750000000000         4.232563523760590E-012
   86.1650000000000         4.239129257678585E-012
   86.3550000000000         4.246426229120205E-012
   86.5450000000000         4.254377310277191E-012
   86.7350000000000         4.262993601599269E-012
   86.9250000000000         4.272295309284216E-012
   87.1150000000000         4.282271596848304E-012
   87.3050000000000         4.292919448768788E-012
   87.4950000000000         4.304264242581560E-012
   87.6850000000000         4.316300371364760E-012
   87.8750000000000         4.328899913488313E-012
   88.0650000000000         4.341954506279677E-012
   88.2550000000000         4.355371694571820E-012
   88.4450000000000         4.369078972623997E-012
   88.6350000000000         4.383090050128891E-012
   88.8250000000000         4.397456718647353E-012
   89.0150000000000         4.412255218522133E-012
   89.2050000000000         4.427454744233306E-012
   89.3950000000000         4.442737271774201E-012
   89.5850000000000         4.457465937235541E-012
   89.7750000000000         4.471187830118008E-012
   89.9650000000000         4.483809080726004E-012
   90.1550000000000         4.495267099034921E-012
   90.3450000000000         4.505558468258411E-012
   90.5350000000000         4.514742968763263E-012
   90.7250000000000         4.522883769668994E-012
   90.9150000000000         4.530113325459683E-012
   91.1050000000000         4.536616034904478E-012
   91.2950000000000         4.542604906624051E-012
   91.4850000000000         4.548285420133171E-012
   91.6750000000000         4.553875135545247E-012
   91.8650000000000         4.559602076617874E-012
   92.0550000000000         4.565631316609612E-012
   92.2450000000000         4.571992674453603E-012
   92.4350000000000         4.578628641991103E-012
   92.6250000000000         4.585489741992179E-012
   92.8150000000000         4.592508102330923E-012
   93.0050000000000         4.599622536706287E-012
   93.1950000000000         4.606814383611941E-012
   93.3850000000000         4.613984415866282E-012
   93.5750000000000         4.620785471360901E-012
   93.7650000000000         4.626754199720702E-012
   93.9550000000000         4.631640053339971E-012
   94.1450000000000         4.635399870572044E-012
   94.3350000000000         4.638048445074555E-012
   94.5250000000000         4.639649139870850E-012
   94.7150000000000         4.640352534471378E-012
   94.9050000000000         4.640301641270676E-012
   95.0950000000000         4.639693489343493E-012
   95.2850000000000         4.638697866459754E-012
   95.4750000000000         4.637434182133071E-012
   95.6650000000000         4.636045881906298E-012
   95.8550000000000         4.634611385067590E-012
   96.0450000000000         4.633246098100466E-012
   96.2350000000000         4.632161922556809E-012
   96.4250000000000         4.631646072358724E-012
   96.6150000000000         4.632078576559205E-012
   96.8050000000000         4.633918718273820E-012
   96.9950000000000         4.637479739729334E-012
   97.1850000000000         4.642765099308149E-012
   97.3750000000000         4.649363207594337E-012
   97.5650000000000         4.656990178626845E-012
   97.7550000000000         4.665630995950519E-012
   97.9450000000000         4.675236286861818E-012
   98.1350000000000         4.685839702665293E-012
   98.3250000000000         4.697391754390178E-012
   98.5150000000000         4.709696529213603E-012
   98.7050000000000         4.722484566158609E-012
   98.8950000000000         4.735479966763611E-012
   99.0850000000000         4.748438759706278E-012
   99.2750000000000         4.761098228826822E-012
   99.4650000000000         4.773051393675308E-012
   99.6550000000000         4.783956569445826E-012
   99.8450000000000         4.793668916429529E-012
   100.035000000000         4.802155130007808E-012
   100.225000000000         4.809491188590099E-012
   100.415000000000         4.815827060993712E-012
   100.605000000000         4.821356891971143E-012
   100.795000000000         4.826300217652617E-012
   100.985000000000         4.830852680670234E-012
   101.175000000000         4.835251218037753E-012
   101.365000000000         4.839590496028888E-012
   101.555000000000         4.843863166849956E-012
   101.745000000000         4.848081285991077E-012
   101.935000000000         4.852135118963070E-012
   102.125000000000         4.855969965120583E-012
   102.315000000000         4.859687811911330E-012
   102.505000000000         4.863440477008788E-012
   102.695000000000         4.867333289103273E-012
   102.885000000000         4.871418130622750E-012
   103.075000000000         4.875679995295330E-012
   103.265000000000         4.880096009976306E-012
   103.455000000000         4.884613924001354E-012
   103.645000000000         4.889157967449715E-012
   103.835000000000         4.893651653490255E-012
   104.025000000000         4.898023864891051E-012
   104.215000000000         4.902268188634839E-012
   104.405000000000         4.906407468292931E-012
   104.595000000000         4.910434544925277E-012
   104.785000000000         4.914301370922016E-012
   104.975000000000         4.917865631021354E-012
   105.165000000000         4.920926929261392E-012
   105.355000000000         4.923364873580135E-012
   105.545000000000         4.925167108911516E-012
   105.735000000000         4.926381714894779E-012
   105.925000000000         4.927133553729133E-012
   106.115000000000         4.927608052228521E-012
   106.305000000000         4.927941922729995E-012
   106.495000000000         4.928243670223650E-012
   106.685000000000         4.928614810870924E-012
   106.875000000000         4.929082789508273E-012
   107.065000000000         4.929697079682097E-012
   107.255000000000         4.930555461485245E-012
   107.445000000000         4.931742514345654E-012
   107.635000000000         4.933344494843388E-012
   107.825000000000         4.935421511088044E-012
   108.015000000000         4.937984323513117E-012
   108.205000000000         4.941076506234694E-012
   108.395000000000         4.944931259927671E-012
   108.585000000000         4.949950358500331E-012
   108.775000000000         4.956350460290711E-012
   108.965000000000         4.964185102573695E-012
   109.155000000000         4.972956641831322E-012
   109.345000000000         4.982438422960328E-012
   109.535000000000         4.992530720319247E-012
   109.725000000000         5.002824279473925E-012
   109.915000000000         5.013333377640850E-012
   110.105000000000         5.024109657972586E-012