  -1.42500000000000        -2.410267737410485E-019
  -1.23500000000000         5.463573013124535E-018
  -1.04500000000000         4.387242486782992E-017
 -0.855000000000000         2.238508107990782E-016
 -0.665000000000000         1.045117199840075E-015
 -0.475000000000000         3.130652198591910E-015
 -0.285000000000000         8.712919684185926E-015
 -9.499999999999975E-002    1.964289256509441E-014
  9.500000000000020E-002    4.098206981118451E-014
  0.285000000000000         6.365135342369607E-014
  0.475000000000000         9.994113233884370E-014
  0.665000000000000         1.336473899819611E-013
  0.855000000000000         1.520231437112338E-013
   1.04500000000000         2.429583825550841E-013
   1.23500000000000         3.374364861766958E-013
   1.42500000000000         3.969067689644841E-013
   1.61500000000000         4.761121575378283E-013
   1.80500000000000         5.687468337867940E-013
   1.99500000000000         6.086856040184234E-013
   2.18500000000000         6.939772839499372E-013
   2.37500000000000         7.516147764564324E-013
   2.56500000000000         7.602081289799448E-013
   2.75500000000000         8.071661567105675E-013
   2.94500000000000         8.334010539663252E-013
   3.13500000000000         8.805107717417616E-013
   3.32500000000000         9.000236141131219E-013
   3.51500000000000         9.176098235571873E-013
   3.70500000000000         9.264539960075914E-013
   3.89500000000000         9.333475918952554E-013
   4.08500000000000         9.361782525034885E-013
   4.27500000000000         9.349073661388655E-013
   4.46500000000000         9.252783555891384E-013
   4.65500000000000         9.018422646178595E-013
   4.84500000000000         8.739076670475969E-013
   5.03500000000000         8.496674374906090E-013
   5.22500000000000         8.442768025017373E-013
   5.41500000000000         8.158170591839814E-013
   5.60500000000000         7.787763048614220E-013
   5.79500000000000         7.156354477298118E-013
   5.98500000000000         6.168576697750201E-013
   6.17500000000000         5.257518979669408E-013
   6.36500000000000         4.302568270254017E-013
   6.55500000000000         3.821073030940524E-013
   6.74500000000000         3.500563776893619E-013
   6.93500000000000         3.058528976516580E-013
   7.12500000000000         3.066851894444278E-013
   7.31500000000000         2.832180882825514E-013
   7.50500000000000         2.789860685769021E-013
   7.69500000000000         2.890355995782311E-013
   7.88500000000000         3.216039396851979E-013
   8.07500000000000         3.713134455409007E-013
   8.26500000000000         3.958120908602123E-013
   8.45500000000000         4.281062051818107E-013
   8.64500000000000         4.552601554056346E-013
   8.83500000000000         4.882630289196092E-013
   9.02500000000000         5.679275444202403E-013
   9.21500000000000         5.588903371826727E-013
   9.40500000000000         5.790584103740153E-013
   9.59500000000000         5.756452546331782E-013
   9.78500000000000         5.956564835480125E-013
   9.97500000000000         6.233573653210179E-013
   10.1650000000000         6.150021752508840E-013
   10.3550000000000         6.139464425554323E-013
   10.5450000000000         6.195133624681497E-013
   10.7350000000000         6.199654806499859E-013
   10.9250000000000         6.229060318447338E-013
   11.1150000000000         6.256420061281913E-013
   11.3050000000000         6.289232202007512E-013
   11.4950000000000         6.366918361057157E-013
   11.6850000000000         6.473441909968044E-013
   11.8750000000000         6.620316031018503E-013
   12.0650000000000         6.782507149516623E-013
   12.2550000000000         6.902342876122990E-013
   12.4450000000000         6.961486009333476E-013
   12.6350000000000         6.863660650797910E-013
   12.8250000000000         6.741384877881262E-013
   13.0150000000000         6.370193417078296E-013
   13.2050000000000         5.991935563959945E-013
   13.3950000000000         5.461995481827830E-013
   13.5850000000000         4.536618266556674E-013
   13.7750000000000         3.869078464150123E-013
   13.9650000000000         3.344237911435420E-013
   14.1550000000000         3.022466638222154E-013
   14.3450000000000         2.758389204463618E-013
   14.5350000000000         2.635869612324565E-013
   14.7250000000000         2.611723058271022E-013
   14.9150000000000         2.728123380624977E-013
   15.1050000000000         3.353436293974879E-013
   15.2950000000000         4.024228963349403E-013
   15.4850000000000         4.710757577556101E-013
   15.6750000000000         5.136619736055000E-013
   15.8650000000000         5.642195212791178E-013
   16.0550000000000         6.282348256426498E-013
   16.2450000000000         6.465911727496596E-013
   16.4350000000000         6.589577013496984E-013
   16.6250000000000         6.760658895178199E-013
   16.8150000000000         7.178352659793431E-013
   17.0050000000000         7.429472097421343E-013
   17.1950000000000         7.652804578905998E-013
   17.3850000000000         7.832134940582303E-013
   17.5750000000000         8.050040216103752E-013
   17.7650000000000         8.169619791715696E-013
   17.9550000000000         8.291002936059390E-013
   18.1450000000000         8.359862143998997E-013
   18.3350000000000         8.410868316390173E-013
   18.5250000000000         8.452418673426877E-013
   18.7150000000000         8.419859088917581E-013
   18.9050000000000         8.171125782147922E-013
   19.0950000000000         7.890859674123557E-013
   19.2850000000000         7.560883936358056E-013
   19.4750000000000         7.162470045069033E-013
   19.6650000000000         6.658713264532103E-013
   19.8550000000000         5.686545437386200E-013
   20.0450000000000         4.704606697816956E-013
   20.2350000000000         4.174655161758525E-013
   20.4250000000000         3.670549882963868E-013
   20.6150000000000         2.910785626198680E-013
   20.8050000000000         2.452852143249444E-013
   20.9950000000000         2.190980948318300E-013
   21.1850000000000         1.933484140042957E-013
   21.3750000000000         1.494518863129242E-013
   21.5650000000000         1.380025768503155E-013
   21.7550000000000         1.305328799722949E-013
   21.9450000000000         1.166601478325983E-013
   22.1350000000000         1.177790997943976E-013
   22.3250000000000         1.783760551251037E-013
   22.5150000000000         2.424061278044560E-013
   22.7050000000000         2.694761535253094E-013
   22.8950000000000         3.496235077737755E-013
   23.0850000000000         4.032389022058730E-013
   23.2750000000000         4.602268191535933E-013
   23.4650000000000         4.939433423961482E-013
   23.6550000000000         5.991661762941036E-013
   23.8450000000000         6.865573295688175E-013
   24.0350000000000         7.577826770478154E-013
   24.2250000000000         8.313469416456892E-013
   24.4150000000000         8.981869218257388E-013
   24.6050000000000         9.520081264836979E-013
   24.7950000000000         9.687717547514738E-013
   24.9850000000000         1.002929266615093E-012
   25.1750000000000         1.001381409996593E-012
   25.3650000000000         9.946912681826048E-013
   25.5550000000000         9.865261431888537E-013
   25.7450000000000         9.414199793963497E-013
   25.9350000000000         9.233872477450107E-013
   26.1250000000000         9.081013005989625E-013
   26.3150000000000         8.744774114450803E-013
   26.5050000000000         8.447916068334089E-013
   26.6950000000000         8.157812820003205E-013
   26.8850000000000         7.858184192712857E-013
   27.0750000000000         7.537336100870872E-013
   27.2650000000000         7.342131470313573E-013
   27.4550000000000         7.102669643069362E-013
   27.6450000000000         6.759823337236701E-013
   27.8350000000000         6.342986308361251E-013
   28.0250000000000         5.662142508172015E-013
   28.2150000000000         5.403893102477109E-013
   28.4050000000000         4.590057598551528E-013
   28.5950000000000         3.308128341101241E-013
   28.7850000000000         2.664820931588915E-013
   28.9750000000000         1.702710692108215E-013
   29.1650000000000         1.571463786361215E-013
   29.3550000000000         8.443724871191387E-014
   29.5450000000000         1.248519757809941E-014
   29.7350000000000        -2.417327987836862E-014
   29.9250000000000        -6.112885504344026E-014
   30.1150000000000        -6.616622649354897E-014
   30.3050000000000        -6.490132220833406E-014
   30.4950000000000        -3.099080622816715E-014
   30.6850000000000        -1.849252352191147E-014
   30.8750000000000         6.304704817579482E-014
   31.0650000000000         1.049852525310687E-013
   31.2550000000000         2.484073522584356E-013
   31.4450000000000         3.688295394812888E-013
   31.6350000000000         5.070236547932607E-013
   31.8250000000000         6.216859011806689E-013
   32.0150000000000         6.861239784029720E-013
   32.2050000000000         7.468024793228080E-013
   32.3950000000000         8.895163312989037E-013
   32.5850000000000         1.003022475415937E-012
   32.7750000000000         1.037632152111030E-012
   32.9650000000000         1.022750811737153E-012
   33.1550000000000         1.067954059307786E-012
   33.3450000000000         1.089584730748436E-012
   33.5350000000000         1.112685045976298E-012
   33.7250000000000         1.110594285049750E-012
   33.9150000000000         1.070823123341172E-012
   34.1050000000000         1.006303173160759E-012
   34.2950000000000         9.378533350696904E-013
   34.4850000000000         9.100285312290936E-013
   34.6750000000000         8.515561482031517E-013
   34.8650000000000         7.935517895822634E-013
   35.0550000000000         7.080680895713325E-013
   35.2450000000000         6.182587730156605E-013
   35.4350000000000         5.431676252384730E-013
   35.6250000000000         5.097903585120091E-013
   35.8150000000000         4.835051226296789E-013
   36.0050000000000         4.674031076922286E-013
   36.1950000000000         4.617656391593767E-013
   36.3850000000000         4.437127110552850E-013
   36.5750000000000         4.218378671523582E-013
   36.7650000000000         3.994492200350365E-013
   36.9550000000000         3.804578116178641E-013
   37.1450000000000         3.467265292047688E-013
   37.3350000000000         3.124492288489453E-013
   37.5250000000000         2.778765107120256E-013
   37.7150000000000         2.506653775330004E-013
   37.9050000000000         2.384859002918901E-013
   38.0950000000000         2.421851359384640E-013
   38.2850000000000         2.729342394383957E-013
   38.4750000000000         3.631496410586661E-013
   38.6650000000000         4.005051164803157E-013
   38.8550000000000         5.006795896721095E-013
   39.0450000000000         5.864717353665439E-013
   39.2350000000000         7.085618793234501E-013
   39.4250000000000         7.452777042807807E-013
   39.6150000000000         8.463224317058840E-013
   39.8050000000000         9.036054289591292E-013
   39.9950000000000         9.463085448711226E-013
   40.1850000000000         9.570636280534397E-013
   40.3750000000000         9.934717270617788E-013
   40.5650000000000         1.016449243040963E-012
   40.7550000000000         1.021014992848183E-012
   40.9450000000000         9.924022913396837E-013
   41.1350000000000         9.095516716744545E-013
   41.3250000000000         8.095734080475148E-013
   41.5150000000000         8.009551273358648E-013
   41.7050000000000         7.624009691396168E-013
   41.8950000000000         7.064766291241789E-013
   42.0850000000000         6.776601037749684E-013
   42.2750000000000         6.291878593398318E-013
   42.4650000000000         5.717754395698032E-013
   42.6550000000000         5.315757120725521E-013
   42.8450000000000         4.979610883691644E-013
   43.0350000000000         4.661873689724924E-013
   43.2250000000000         4.538092660458797E-013
   43.4150000000000         4.066863259670759E-013
   43.6050000000000         4.081154044489700E-013
   43.7950000000000         4.046641423576986E-013
   43.9850000000000         3.983651415218601E-013
   44.1750000000000         3.877356972310273E-013
   44.3650000000000         3.722846322580387E-013
   44.5550000000000         3.783353405875345E-013
   44.7450000000000         4.505985479049346E-013
   44.9350000000000         5.321876956974372E-013
   45.1250000000000         5.444864311671977E-013
   45.3150000000000         6.063213178339868E-013
   45.5050000000000         6.575433669102690E-013
   45.6950000000000         6.997169677791402E-013
   45.8850000000000         7.887921243804005E-013
   46.0750000000000         8.186952322541163E-013
   46.2650000000000         8.243406440120689E-013
   46.4550000000000         8.664255419382365E-013
   46.6450000000000         8.802858988409668E-013
   46.8350000000000         8.431332105778950E-013
   47.0250000000000         7.689661569553694E-013
   47.2150000000000         7.758984964396247E-013
   47.4050000000000         7.539896096110325E-013
   47.5950000000000         6.984418236598521E-013
   47.7850000000000         6.178621562280988E-013
   47.9750000000000         5.666417484629351E-013
   48.1650000000000         4.776013561037752E-013
   48.3550000000000         4.017140613438880E-013
   48.5450000000000         3.990111621058777E-013
   48.7350000000000         3.990837636439601E-013
   48.9250000000000         3.739104811934463E-013
   49.1150000000000         3.390347027371595E-013
   49.3050000000000         2.910392975341269E-013
   49.4950000000000         2.622159360553968E-013
   49.6850000000000         2.920491883319934E-013
   49.8750000000000         3.079383059155225E-013
   50.0650000000000         3.096869066444550E-013
   50.2550000000000         3.003899488743675E-013
   50.4450000000000         2.631496347804927E-013
   50.6350000000000         2.486291273323613E-013
   50.8250000000000         2.929675028466100E-013
   51.0150000000000         2.965764678410019E-013
   51.2050000000000         3.135072748364909E-013
   51.3950000000000         3.562378643777927E-013
   51.5850000000000         4.402968889749121E-013
   51.7750000000000         4.570080519256418E-013
   51.9650000000000         4.494557352895001E-013
   52.1550000000000         5.090320547719323E-013
   52.3450000000000         5.668764489661445E-013
   52.5350000000000         5.987680262646531E-013
   52.7250000000000         6.982037557924172E-013
   52.9150000000000         7.763621925715550E-013
   53.1050000000000         8.373955460272435E-013
   53.2950000000000         8.684713835781940E-013
   53.4850000000000         9.553890783019191E-013
   53.6750000000000         1.027918977092726E-012
   53.8650000000000         1.066375758431111E-012
   54.0550000000000         1.100309301374528E-012
   54.2450000000000         1.122844460715860E-012
   54.4350000000000         1.147200778230387E-012
   54.6250000000000         1.172476665564903E-012
   54.8150000000000         1.166182800990202E-012
   55.0050000000000         1.151962205949892E-012
   55.1950000000000         1.149477588619574E-012
   55.3850000000000         1.118842612134433E-012
   55.5750000000000         1.115138493750657E-012
   55.7650000000000         1.093306408680984E-012
   55.9550000000000         1.047726361272474E-012
   56.1450000000000         9.085151118095911E-013
   56.3350000000000         8.073256166827528E-013
   56.5250000000000         6.925963960854476E-013
   56.7150000000000         6.174695728065959E-013
   56.9050000000000         5.609881998246387E-013
   57.0950000000000         4.175689783222612E-013
   57.2850000000000         3.596244819943729E-013
   57.4750000000000         2.968213348774770E-013
   57.6650000000000         1.932208920371970E-013
   57.8550000000000         2.130771183881080E-013
   58.0450000000000         1.799314300701552E-013
   58.2350000000000         1.391400190550689E-013
   58.4250000000000         1.031279695582899E-013
   58.6150000000000         7.580496820975801E-014
   58.8050000000000         6.304926468569725E-014
   58.9950000000000         6.581966867477373E-014
   59.1850000000000         7.724153266553025E-014
   59.3750000000000         8.432651663550524E-014
   59.5650000000000         8.160482162896737E-014
   59.7550000000000         7.432855613069593E-014
   59.9450000000000         7.327710449829002E-014
   60.1350000000000         8.981312648885080E-014
   60.3250000000000         1.257414928442447E-013
   60.5150000000000         1.757449055180909E-013
   60.7050000000000         2.389231282596698E-013
   60.8950000000000         3.055884709518442E-013
   61.0850000000000         4.520172171654619E-013
   61.2750000000000         4.271667452845692E-013
   61.4650000000000         5.300328579862891E-013
   61.6550000000000         6.095566438818485E-013
   61.8450000000000         7.246989473972079E-013
   62.0350000000000         8.171187500332112E-013
   62.2250000000000         8.581373477491093E-013
   62.4150000000000         8.794375813084228E-013
   62.6050000000000         8.697301880281230E-013
   62.7950000000000         9.011448976493399E-013
   62.9850000000000         9.063172263509385E-013
   63.1750000000000         9.181800457826845E-013
   63.3650000000000         9.194715699601311E-013
   63.5550000000000         9.227536344434741E-013
   63.7450000000000         9.015314117563706E-013
   63.9350000000000         8.607561297027497E-013
   64.1250000000000         8.339531697158050E-013
   64.3150000000000         7.776033627025050E-013
   64.5050000000000         7.116976602104495E-013
   64.6950000000000         6.476045712468482E-013
   64.8850000000000         5.955733439379986E-013
   65.0750000000000         5.394002038338018E-013
   65.2650000000000         4.813355235226470E-013
   65.4550000000000         4.377745176748485E-013
   65.6450000000000         3.797839731915699E-013
   65.8350000000000         3.515488841605497E-013
   66.0250000000000         3.666865337154843E-013
   66.2150000000000         3.524258395637722E-013
   66.4050000000000         3.300488820837484E-013
   66.5950000000000         3.183016085451122E-013
   66.7850000000000         2.966907307389795E-013
   66.9750000000000         2.764917520512887E-013
   67.1650000000000         2.618214504790224E-013
   67.3550000000000         2.512673365389011E-013
   67.5450000000000         2.433425885889813E-013
   67.7350000000000         2.367490791389654E-013
   67.9250000000000         2.375127940525448E-013
   68.1150000000000         2.784966428992699E-013
   68.3050000000000         3.799331203695400E-013
   68.4950000000000         4.516729316251662E-013
   68.6850000000000         5.352270264756778E-013
   68.8750000000000         6.057077268272049E-013
   69.0650000000000         6.607520366105315E-013
   69.2550000000000         7.165133543754296E-013
   69.4450000000000         7.722557478321655E-013
   69.6350000000000         8.074049414968897E-013
   69.8250000000000         8.321717437390767E-013
   70.0150000000000         8.608744056027213E-013
   70.2050000000000         8.706576966473394E-013
   70.3950000000000         8.726844158351275E-013
   70.5850000000000         8.788202204350121E-013
   70.7750000000000         8.760656794019673E-013
   70.9650000000000         9.019983885862835E-013
   71.1550000000000         9.305930501311293E-013
   71.3450000000000         9.349296626174537E-013
   71.5350000000000         9.450096915768399E-013
   71.7250000000000         9.441059988304666E-013
   71.9150000000000         9.321921522205782E-013
   72.1050000000000         9.403913497011979E-013
   72.2950000000000         9.365719289215163E-013
   72.4850000000000         9.211375431044563E-013
   72.6750000000000         8.991577668035698E-013
   72.8650000000000         8.743120971790838E-013
   73.0550000000000         8.555494852703937E-013
   73.2450000000000         8.455237404512732E-013
   73.4350000000000         8.329155369384723E-013
   73.6250000000000         8.123946374125051E-013
   73.8150000000000         7.917181019399179E-013
   74.0050000000000         7.665111236330166E-013
   74.1950000000000         7.462620358449559E-013
   74.3850000000000         7.473721885982213E-013
   74.5750000000000         7.242013106450921E-013
   74.7650000000000         6.976189808876468E-013
   74.9550000000000         6.585914357825738E-013
   75.1450000000000         6.387986320752577E-013
   75.3350000000000         6.504027207953882E-013
   75.5250000000000         6.394953581345304E-013
   75.7150000000000         6.300924778351732E-013
   75.9050000000000         6.258382795329684E-013
   76.0950000000000         6.157269023753933E-013
   76.2850000000000         6.238931619025574E-013
   76.4750000000000         6.424063213651312E-013
   76.6650000000000         6.630968578307912E-013
   76.8550000000000         6.576374921276302E-013
   77.0450000000000         6.270356092432984E-013
   77.2350000000000         5.694248680494106E-013
   77.4250000000000         4.709713020186502E-013
   77.6150000000000         3.904165824026584E-013
   77.8050000000000         3.563789824522058E-013
   77.9950000000000         3.305107955697450E-013
   78.1850000000000         3.160957704252405E-013
   78.3750000000000         2.494964304145149E-013
   78.5650000000000         2.324121731796686E-013
   78.7550000000000         2.302955949491074E-013
   78.9450000000000         2.477414575046445E-013
   79.1350000000000         2.502002205083901E-013
   79.3250000000000         2.442931911313243E-013
   79.5150000000000         2.275836380868824E-013
   79.7050000000000         2.082635633546876E-013
   79.8950000000000         2.297176081845719E-013
   80.0850000000000         3.064135500368611E-013
   80.2750000000000         3.719871411033648E-013
   80.4650000000000         4.347071683409094E-013
   80.6550000000000         4.780062684810027E-013
   80.8450000000000         5.327438568666378E-013
   81.0350000000000         5.895467086271771E-013
   81.2250000000000         6.523550838754724E-013
   81.4150000000000         7.836086124313824E-013
   81.6050000000000         8.314038724720609E-013
   81.7950000000000         8.581154983797731E-013
   81.9850000000000         8.621124001622504E-013
   82.1750000000000         8.985348269468048E-013
   82.3650000000000         9.419645793478026E-013
   82.5550000000000         9.961622434639911E-013
   82.7450000000000         1.012444973568469E-012
   82.9350000000000         9.815419108470372E-013
   83.1250000000000         9.720492291868155E-013
   83.3150000000000         9.612013675109490E-013
   83.5050000000000         9.767808794909325E-013
   83.6950000000000         1.005034928407530E-012
   83.8850000000000         1.002846868113556E-012
   84.0750000000000         1.010737345285873E-012
   84.2650000000000         1.005104799804813E-012
   84.4550000000000         9.981385525392478E-013
   84.6450000000000         9.964407390177726E-013
   84.8350000000000         9.980734498580565E-013
   85.0250000000000         9.867647548140692E-013
   85.2150000000000         9.508394528859779E-013
   85.4050000000000         9.126427382058312E-013
   85.5950000000000         8.384425476816684E-013
   85.7850000000000         7.827165487282336E-013
   85.9750000000000         7.491219127740124E-013
   86.1650000000000         6.982382215007022E-013
   86.3550000000000         6.308523261277769E-013
   86.5450000000000         5.474363048193505E-013
   86.7350000000000         4.635451226000056E-013
   86.9250000000000         3.896528403948588E-013
   87.1150000000000         3.422536213602502E-013
   87.3050000000000         2.862433882385735E-013
   87.4950000000000         2.579368193727276E-013
   87.6850000000000         2.343248442467847E-013
   87.8750000000000         2.358085283242980E-013
   88.0650000000000         2.151499044059267E-013
   88.2550000000000         2.240430854999631E-013
   88.4450000000000         2.409246290264107E-013
   88.6350000000000         2.480687447730457E-013
   88.8250000000000         2.527631660470917E-013
   89.0150000000000         2.750139963979138E-013
   89.2050000000000         3.256200919025049E-013
   89.3950000000000         4.490159679307575E-013
   89.5850000000000         5.338791786975811E-013
   89.7750000000000         5.924408306208865E-013
   89.9650000000000         6.298502614078907E-013
   90.1550000000000         6.825494553070351E-013
   90.3450000000000         7.444564234613536E-013
   90.5350000000000         8.179952652539692E-013
   90.7250000000000         8.931213038293918E-013
   90.9150000000000         9.510493125186240E-013
   91.1050000000000         1.006631149236913E-012
   91.2950000000000         1.020320372968913E-012
   91.4850000000000         1.059357961554211E-012
   91.6750000000000         1.093169226004114E-012
   91.8650000000000         1.127462116837673E-012
   92.0550000000000         1.141525385689092E-012
   92.2450000000000         1.132920063509275E-012
   92.4350000000000         1.127406543507026E-012
   92.6250000000000         1.110324403296731E-012
   92.8150000000000         1.093779538891753E-012
   93.0050000000000         1.078707169596139E-012
   93.1950000000000         1.037245141355704E-012
   93.3850000000000         9.185953000268006E-013
   93.5750000000000         8.038029905981317E-013
   93.7650000000000         7.619904697821207E-013
   93.9550000000000         6.973938259616560E-013
   94.1450000000000         6.063180856987768E-013
   94.3350000000000         5.660484437329164E-013
   94.5250000000000         4.945934508172448E-013
   94.7150000000000         4.023214181564478E-013
   94.9050000000000         3.238874036898282E-013
   95.0950000000000         3.266928435036211E-013
   95.2850000000000         2.849355544488469E-013
   95.4750000000000         2.914276301376740E-013
   95.6650000000000         2.463985281737570E-013
   95.8550000000000         2.282781508404445E-013
   96.0450000000000         2.172454435134605E-013
   96.2350000000000         1.934451413929166E-013
   96.4250000000000         1.856375810354383E-013
   96.6150000000000         1.786309387778123E-013
   96.8050000000000         1.686455342940702E-013
   96.9950000000000         1.538984181693719E-013
   97.1850000000000         1.496160711596246E-013
   97.3750000000000         1.577974702993931E-013
   97.5650000000000         1.922995290618643E-013
   97.7550000000000         2.402615811778141E-013
   97.9450000000000         3.134857223423475E-013
   98.1350000000000         4.141299302766209E-013
   98.3250000000000         4.794177514703998E-013
   98.5150000000000         5.688564528966054E-013
   98.7050000000000         6.476523335038728E-013
   98.8950000000000         7.166428063304087E-013
   99.0850000000000         7.884628700997539E-013
   99.2750000000000         8.254771375608329E-013
   99.4650000000000         8.529365673484968E-013
   99.6550000000000         8.422644800732602E-013
   99.8450000000000         8.466812975458629E-013
   100.035000000000         8.339647322384728E-013
   100.225000000000         8.332531553199392E-013
   100.415000000000         8.116763873874968E-013
   100.605000000000         7.862735066679900E-013
   100.795000000000         7.582624392988017E-013
   100.985000000000         7.483323517047745E-013
   101.175000000000         7.770392985893944E-013
   101.365000000000         7.822900488003171E-013
   101.555000000000         7.782018076311395E-013
   101.745000000000         7.635283557786745E-013
   101.935000000000         7.360407506195153E-013
   102.125000000000         7.972834484750292E-013
   102.315000000000         8.265342947376655E-013
   102.505000000000         8.334632705807119E-013
   102.695000000000         8.551685779883764E-013
   102.885000000000         8.202352769940558E-013
   103.075000000000         7.980152716392319E-013
   103.265000000000         7.841494760610794E-013
   103.455000000000         7.765465687579088E-013
   103.645000000000         7.915932622864307E-013
   103.835000000000         7.384107089521957E-013
   104.025000000000         7.023442396534500E-013
   104.215000000000         6.800438159021743E-013
   104.405000000000         6.556862072305214E-013
   104.595000000000         6.368858444793924E-013
   104.785000000000         6.335678776639511E-013
   104.975000000000         6.308871971525598E-013
   105.165000000000         6.217309411458210E-013
   105.355000000000         6.102558978087276E-013
   105.545000000000         6.110101310166285E-013
   105.735000000000         6.268360676427901E-013
   105.925000000000         6.510661511786931E-013
   106.115000000000         6.594188139607061E-013
   106.305000000000         6.488364370681442E-013
   106.495000000000         6.242782834875810E-013
   106.685000000000         5.886119546093512E-013
   106.875000000000         5.637687786554643E-013
   107.065000000000         5.498589797260434E-013
   107.255000000000         5.319454087280372E-013
   107.445000000000         5.091231567541294E-013
   107.635000000000         4.760022655985884E-013
   107.825000000000         4.472760971795108E-013
   108.015000000000         4.341691408712780E-013
   108.205000000000         4.372195435453027E-013
   108.395000000000         4.508302491270789E-013
   108.585000000000         4.625888447926696E-013
   108.775000000000         4.676270699499581E-013
   108.965000000000         4.790651444844570E-013
   109.155000000000         5.023143009331790E-013
   109.345000000000         5.363920993579207E-013
   109.535000000000         5.661048531338660E-013
   109.725000000000         5.794831280250139E-013
   109.915000000000         5.809705286298511E-013
   110.105000000000         5.874014409655402E-013