  -1.42500000000000         7.163148732178294E-019
  -1.23500000000000        -2.053390510533401E-017
  -1.04500000000000        -1.046759195383766E-016
 -0.855000000000000        -4.060715982289360E-016
 -0.665000000000000        -1.355246271505401E-015
 -0.475000000000000        -4.135041325684872E-015
 -0.285000000000000        -1.125478596392850E-014
 -9.499999999999975E-002   -2.705106389097023E-014
  9.500000000000020E-002   -5.885448808438681E-014
  0.285000000000000        -1.108845241523525E-013
  0.475000000000000        -1.837388634365845E-013
  0.665000000000000        -2.639940739560707E-013
  0.855000000000000        -3.278349144065723E-013
   1.04500000000000        -3.947291317734042E-013
   1.23500000000000        -4.779827559106832E-013
   1.42500000000000        -5.329893164934997E-013
   1.61500000000000        -6.033665785232676E-013
   1.80500000000000        -6.724908737063387E-013
   1.99500000000000        -7.157329641471509E-013
   2.18500000000000        -7.592365694861057E-013
   2.37500000000000        -7.845361066913042E-013
   2.56500000000000        -7.908191178550123E-013
   2.75500000000000        -7.914126738794213E-013
   2.94500000000000        -7.857211006489872E-013
   3.13500000000000        -7.802888272029780E-013
   3.32500000000000        -7.755292550767807E-013
   3.51500000000000        -7.627177882361995E-013
   3.70500000000000        -7.565429576103905E-013
   3.89500000000000        -7.483761630985840E-013
   4.08500000000000        -7.400123828677269E-013
   4.27500000000000        -7.296071615772413E-013
   4.46500000000000        -7.111738844213883E-013
   4.65500000000000        -6.816565362866498E-013
   4.84500000000000        -6.435663079819280E-013
   5.03500000000000        -6.050046703917856E-013
   5.22500000000000        -5.964707391506290E-013
   5.41500000000000        -5.610512712977590E-013
   5.60500000000000        -5.248420939922990E-013
   5.79500000000000        -4.771991689587839E-013
   5.98500000000000        -4.170497410590006E-013
   6.17500000000000        -3.566323581994915E-013
   6.36500000000000        -2.923953915157324E-013
   6.55500000000000        -2.617533092249969E-013
   6.74500000000000        -2.441316451400276E-013
   6.93500000000000        -2.295675415030704E-013
   7.12500000000000        -2.486759056205820E-013
   7.31500000000000        -3.005246834520311E-013
   7.50500000000000        -3.641114461935167E-013
   7.69500000000000        -4.410376025106163E-013
   7.88500000000000        -5.187736659810577E-013
   8.07500000000000        -6.012425700519528E-013
   8.26500000000000        -6.613797724736622E-013
   8.45500000000000        -7.165708301957725E-013
   8.64500000000000        -7.706698478216365E-013
   8.83500000000000        -8.113041174691816E-013
   9.02500000000000        -8.545232956720756E-013
   9.21500000000000        -8.292404518873580E-013
   9.40500000000000        -7.149461208904502E-013
   9.59500000000000        -5.947026888594081E-013
   9.78500000000000        -5.312475954285481E-013
   9.97500000000000        -4.471837487542555E-013
   10.1650000000000        -3.786406467985544E-013
   10.3550000000000        -3.240478346066959E-013
   10.5450000000000        -2.845078696455390E-013
   10.7350000000000        -2.755538625636616E-013
   10.9250000000000        -2.712111505567139E-013
   11.1150000000000        -2.624407434813575E-013
   11.3050000000000        -2.488164007428732E-013
   11.4950000000000        -2.350695665703349E-013
   11.6850000000000        -2.288629603455526E-013
   11.8750000000000        -2.349445036917768E-013
   12.0650000000000        -2.511998806070481E-013
   12.2550000000000        -2.732760871629125E-013
   12.4450000000000        -3.026754451952069E-013
   12.6350000000000        -3.085740280417245E-013
   12.8250000000000        -3.298403560478163E-013
   13.0150000000000        -3.353996590236484E-013
   13.2050000000000        -3.332397532718383E-013
   13.3950000000000        -3.162962149478885E-013
   13.5850000000000        -2.717999800643001E-013
   13.7750000000000        -2.295852455440374E-013
   13.9650000000000        -1.984453704664916E-013
   14.1550000000000        -1.912255049933917E-013
   14.3450000000000        -1.697659069366634E-013
   14.5350000000000        -1.657900904042464E-013
   14.7250000000000        -1.595557933002973E-013
   14.9150000000000        -1.629434367872121E-013
   15.1050000000000        -2.074689285822971E-013
   15.2950000000000        -2.807509849152711E-013
   15.4850000000000        -3.624898114318268E-013
   15.6750000000000        -4.151541114346739E-013
   15.8650000000000        -4.687899449387519E-013
   16.0550000000000        -5.245067964415576E-013
   16.2450000000000        -5.627974159969425E-013
   16.4350000000000        -5.865518810759279E-013
   16.6250000000000        -6.079563722386847E-013
   16.8150000000000        -6.307259995756336E-013
   17.0050000000000        -6.389493889683958E-013
   17.1950000000000        -6.532834129653704E-013
   17.3850000000000        -6.585813659199285E-013
   17.5750000000000        -6.710959778305136E-013
   17.7650000000000        -6.757440744294922E-013
   17.9550000000000        -6.818934343423807E-013
   18.1450000000000        -6.867032342823403E-013
   18.3350000000000        -6.912722114035243E-013
   18.5250000000000        -6.955011848880887E-013
   18.7150000000000        -6.973901308444944E-013
   18.9050000000000        -6.895524329396859E-013
   19.0950000000000        -6.739820143973705E-013
   19.2850000000000        -6.488164794127844E-013
   19.4750000000000        -6.180515151916171E-013
   19.6650000000000        -5.837660028635890E-013
   19.8550000000000        -5.369124603774667E-013
   20.0450000000000        -4.921267271734867E-013
   20.2350000000000        -4.555230000520683E-013
   20.4250000000000        -4.189534625054904E-013
   20.6150000000000        -3.733042824857827E-013
   20.8050000000000        -3.341811565444425E-013
   20.9950000000000        -3.035891177258532E-013
   21.1850000000000        -2.973543834029929E-013
   21.3750000000000        -2.694508169768352E-013
   21.5650000000000        -2.654536621110457E-013
   21.7550000000000        -2.598229930931402E-013
   21.9450000000000        -2.573648643188616E-013
   22.1350000000000        -2.746518457130218E-013
   22.3250000000000        -3.436449600094856E-013
   22.5150000000000        -4.279115572117454E-013
   22.7050000000000        -5.169751673013178E-013
   22.8950000000000        -6.102747321836973E-013
   23.0850000000000        -6.943280743849184E-013
   23.2750000000000        -7.782907009816699E-013
   23.4650000000000        -8.399977445171101E-013
   23.6550000000000        -9.182134530142845E-013
   23.8450000000000        -9.905224424660183E-013
   24.0350000000000        -1.043260984554257E-012
   24.2250000000000        -1.080880566733190E-012
   24.4150000000000        -1.103611803707668E-012
   24.6050000000000        -1.104168342644314E-012
   24.7950000000000        -1.084806233721999E-012
   24.9850000000000        -1.050226870050586E-012
   25.1750000000000        -1.003865771501443E-012
   25.3650000000000        -9.450120433310657E-013
   25.5550000000000        -8.949565538614605E-013
   25.7450000000000        -8.043467547856696E-013
   25.9350000000000        -7.222809913165093E-013
   26.1250000000000        -6.676775076644668E-013
   26.3150000000000        -6.193647974388978E-013
   26.5050000000000        -5.691709025779893E-013
   26.6950000000000        -5.288421860461746E-013
   26.8850000000000        -4.923309072576285E-013
   27.0750000000000        -4.568565801917796E-013
   27.2650000000000        -4.353476849191030E-013
   27.4550000000000        -4.337391318261513E-013
   27.6450000000000        -4.432627284447314E-013
   27.8350000000000        -4.426089455679473E-013
   28.0250000000000        -4.551127274010723E-013
   28.2150000000000        -4.564099634568691E-013
   28.4050000000000        -4.442573559501729E-013
   28.5950000000000        -3.936915309087417E-013
   28.7850000000000        -3.346657734531667E-013
   28.9750000000000        -2.351430737377632E-013
   29.1650000000000        -1.108988715620835E-013
   29.3550000000000         5.314101255620232E-014
   29.5450000000000         1.940016306895336E-013
   29.7350000000000         3.179619483098349E-013
   29.9250000000000         4.304000586072721E-013
   30.1150000000000         5.173363810961118E-013
   30.3050000000000         5.581356250574979E-013
   30.4950000000000         5.810364198552328E-013
   30.6850000000000         5.973997112461890E-013
   30.8750000000000         5.824413399693996E-013
   31.0650000000000         4.977194045113050E-013
   31.2550000000000         3.392733774905502E-013
   31.4450000000000         1.875437330827168E-013
   31.6350000000000         2.709219948492120E-014
   31.8250000000000        -1.408964465896468E-013
   32.0150000000000        -2.696602927408773E-013
   32.2050000000000        -3.735882024369800E-013
   32.3950000000000        -4.842966498713984E-013
   32.5850000000000        -5.732136005618246E-013
   32.7750000000000        -6.321205453009302E-013
   32.9650000000000        -6.701029375246975E-013
   33.1550000000000        -6.892779277082602E-013
   33.3450000000000        -7.118351646598882E-013
   33.5350000000000        -7.344625289310524E-013
   33.7250000000000        -7.433867196583036E-013
   33.9150000000000        -7.157039235730264E-013
   34.1050000000000        -6.384349018375918E-013
   34.2950000000000        -5.461849669900512E-013
   34.4850000000000        -4.862335502640752E-013
   34.6750000000000        -4.178073719434444E-013
   34.8650000000000        -3.503350571487875E-013
   35.0550000000000        -2.904752915589682E-013
   35.2450000000000        -2.383338998956589E-013
   35.4350000000000        -2.360435809339661E-013
   35.6250000000000        -2.687880297741243E-013
   35.8150000000000        -3.153101829231919E-013
   36.0050000000000        -3.645700677122771E-013
   36.1950000000000        -4.089098978055994E-013
   36.3850000000000        -4.132835407900099E-013
   36.5750000000000        -4.388448518666687E-013
   36.7650000000000        -4.426642185447796E-013
   36.9550000000000        -4.562498262826279E-013
   37.1450000000000        -4.628122036518841E-013
   37.3350000000000        -4.635376150100166E-013
   37.5250000000000        -4.606566224028644E-013
   37.7150000000000        -4.550163299535025E-013
   37.9050000000000        -4.483054368302886E-013
   38.0950000000000        -4.448783886264107E-013
   38.2850000000000        -4.509219324720368E-013
   38.4750000000000        -5.103592577244048E-013
   38.6650000000000        -6.625049524695321E-013
   38.8550000000000        -7.775555686387368E-013
   39.0450000000000        -8.999718774990089E-013
   39.2350000000000        -1.028574805792595E-012
   39.4250000000000        -1.142320295821221E-012
   39.6150000000000        -1.217204944506832E-012
   39.8050000000000        -1.311748009121207E-012
   39.9950000000000        -1.356091466338922E-012
   40.1850000000000        -1.400725756560597E-012
   40.3750000000000        -1.405674970039265E-012
   40.5650000000000        -1.413331240207311E-012
   40.7550000000000        -1.423252173590167E-012
   40.9450000000000        -1.416724541097783E-012
   41.1350000000000        -1.348944009980871E-012
   41.3250000000000        -1.237295875112119E-012
   41.5150000000000        -1.116221694485184E-012
   41.7050000000000        -1.000960407261795E-012
   41.8950000000000        -8.813809274658075E-013
   42.0850000000000        -7.571485130706925E-013
   42.2750000000000        -6.428811605377999E-013
   42.4650000000000        -5.299461479236763E-013
   42.6550000000000        -4.309869262102063E-013
   42.8450000000000        -3.321646839218850E-013
   43.0350000000000        -2.436400036744643E-013
   43.2250000000000        -1.793717111958867E-013
   43.4150000000000        -1.017516644656927E-013
   43.6050000000000        -8.387724865952659E-014
   43.7950000000000        -4.996627545917731E-014
   43.9850000000000        -2.373132003213745E-014
   44.1750000000000         8.563084086976926E-015
   44.3650000000000         4.295730449783965E-014
   44.5550000000000         4.865352099634327E-014
   44.7450000000000        -3.552546358252056E-014
   44.9350000000000        -2.060194820366653E-013
   45.1250000000000        -3.970459973748466E-013
   45.3150000000000        -5.536897416239580E-013
   45.5050000000000        -6.936811072043395E-013
   45.6950000000000        -7.857242826568227E-013
   45.8850000000000        -8.586263704061064E-013
   46.0750000000000        -8.881367890772875E-013
   46.2650000000000        -9.104930762755126E-013
   46.4550000000000        -9.245674013941847E-013
   46.6450000000000        -9.423636411651320E-013
   46.8350000000000        -9.189790773060005E-013
   47.0250000000000        -8.217900964279709E-013
   47.2150000000000        -6.568788510684570E-013
   47.4050000000000        -5.338757736465536E-013
   47.5950000000000        -4.212247561112861E-013
   47.7850000000000        -3.090887484451913E-013
   47.9750000000000        -2.031322631947917E-013
   48.1650000000000        -1.107570211317868E-013
   48.3550000000000        -2.757341750839357E-014
   48.5450000000000         3.494111131808900E-014
   48.7350000000000         8.340654671037718E-014
   48.9250000000000         1.110872235957978E-013
   49.1150000000000         1.336576795545658E-013
   49.3050000000000         1.572706487997250E-013
   49.4950000000000         1.310637920429681E-013
   49.6850000000000         3.095361692148076E-014
   49.8750000000000        -1.223408026880578E-013
   50.0650000000000        -2.644087772923790E-013
   50.2550000000000        -4.034261464096534E-013
   50.4450000000000        -5.324601706045625E-013
   50.6350000000000        -5.879728915100746E-013
   50.8250000000000        -6.925924201549940E-013
   51.0150000000000        -6.973687167757735E-013
   51.2050000000000        -7.260592534124300E-013
   51.3950000000000        -7.722763609821960E-013
   51.5850000000000        -8.378939658059741E-013
   51.7750000000000        -8.180104602673784E-013
   51.9650000000000        -7.147184872118821E-013
   52.1550000000000        -5.992168348623569E-013
   52.3450000000000        -5.182208568893228E-013
   52.5350000000000        -4.399586084344034E-013
   52.7250000000000        -3.815737644459449E-013
   52.9150000000000        -3.745936541253725E-013
   53.1050000000000        -3.527996141073360E-013
   53.2950000000000        -3.507664833076192E-013
   53.4850000000000        -3.771096238385372E-013
   53.6750000000000        -4.191144749999529E-013
   53.8650000000000        -4.801403928828219E-013
   54.0550000000000        -5.425395434939840E-013
   54.2450000000000        -6.154873193964938E-013
   54.4350000000000        -6.943949543024081E-013
   54.6250000000000        -7.686455853723775E-013
   54.8150000000000        -8.388239949733235E-013
   55.0050000000000        -8.974271540317440E-013
   55.1950000000000        -9.510597316626252E-013
   55.3850000000000        -9.939429281739968E-013
   55.5750000000000        -1.014917771886871E-012
   55.7650000000000        -1.026744656541816E-012
   55.9550000000000        -1.023416526923551E-012
   56.1450000000000        -9.552856166438073E-013
   56.3350000000000        -8.652778658021346E-013
   56.5250000000000        -7.587516186518920E-013
   56.7150000000000        -6.488369907042384E-013
   56.9050000000000        -5.384811088525757E-013
   57.0950000000000        -4.428016107432435E-013
   57.2850000000000        -3.725093441404157E-013
   57.4750000000000        -3.020711024982860E-013
   57.6650000000000        -2.391643688757653E-013
   57.8550000000000        -2.151833740960002E-013
   58.0450000000000        -2.008653934927219E-013
   58.2350000000000        -1.867726087248113E-013
   58.4250000000000        -1.711453047600408E-013
   58.6150000000000        -1.609480295962445E-013
   58.8050000000000        -1.553145385495114E-013
   58.9950000000000        -1.551673999503791E-013
   59.1850000000000        -1.582495707799362E-013
   59.3750000000000        -1.639699164010530E-013
   59.5650000000000        -1.725403618206658E-013
   59.7550000000000        -1.879865184302619E-013
   59.9450000000000        -2.098351346862855E-013
   60.1350000000000        -2.411336172950358E-013
   60.3250000000000        -2.825637712058247E-013
   60.5150000000000        -3.218491294934159E-013
   60.7050000000000        -3.482130211466402E-013
   60.8950000000000        -3.425834863239021E-013
   61.0850000000000        -3.279595943078466E-013
   61.2750000000000        -2.918654881406938E-013
   61.4650000000000        -2.430288847829796E-013
   61.6550000000000        -2.150432333023279E-013
   61.8450000000000        -1.886732121122244E-013
   62.0350000000000        -1.592420126389768E-013
   62.2250000000000        -1.491973897024868E-013
   62.4150000000000        -1.323272401883061E-013
   62.6050000000000        -1.169279747394948E-013
   62.7950000000000        -1.224171397795371E-013
   62.9850000000000        -1.214588237518194E-013
   63.1750000000000        -1.187105371329137E-013
   63.3650000000000        -1.146803729339401E-013
   63.5550000000000        -1.113915084102096E-013
   63.7450000000000        -1.094440366637345E-013
   63.9350000000000        -1.151468783564039E-013
   64.1250000000000        -1.272740187284337E-013
   64.3150000000000        -1.468235796503140E-013
   64.5050000000000        -1.672728248073078E-013
   64.6950000000000        -1.975296227532902E-013
   64.8850000000000        -2.207448250862800E-013
   65.0750000000000        -2.395850083968670E-013
   65.2650000000000        -2.590803632350709E-013
   65.4550000000000        -2.819009019064625E-013
   65.6450000000000        -3.010148607268011E-013
   65.8350000000000        -3.200500714792410E-013
   66.0250000000000        -3.377975285632894E-013
   66.2150000000000        -3.469372336396017E-013
   66.4050000000000        -3.558853441477922E-013
   66.5950000000000        -3.592001561432315E-013
   66.7850000000000        -3.646625561053751E-013
   66.9750000000000        -3.663531705838581E-013
   67.1650000000000        -3.681901292198740E-013
   67.3550000000000        -3.711660914827490E-013
   67.5450000000000        -3.779373759969997E-013
   67.7350000000000        -3.897746894811164E-013
   67.9250000000000        -4.077349086265815E-013
   68.1150000000000        -4.321202074842988E-013
   68.3050000000000        -4.663696485774061E-013
   68.4950000000000        -4.943593897863461E-013
   68.6850000000000        -5.155157343691091E-013
   68.8750000000000        -5.357314666272034E-013
   69.0650000000000        -5.551555515053795E-013
   69.2550000000000        -5.755846157496537E-013
   69.4450000000000        -5.948947060254111E-013
   69.6350000000000        -6.098834354315569E-013
   69.8250000000000        -6.180449151348032E-013
   70.0150000000000        -6.381362838582164E-013
   70.2050000000000        -6.640762790306605E-013
   70.3950000000000        -6.966836889906941E-013
   70.5850000000000        -7.307730252999445E-013
   70.7750000000000        -7.675504209561674E-013
   70.9650000000000        -8.121866588090278E-013
   71.1550000000000        -8.757251979186908E-013
   71.3450000000000        -9.191733104015037E-013
   71.5350000000000        -9.803559853367442E-013
   71.7250000000000        -9.964224839308612E-013
   71.9150000000000        -1.036056619547462E-012
   72.1050000000000        -1.051871027050625E-012
   72.2950000000000        -1.070041131649903E-012
   72.4850000000000        -1.087213169177024E-012
   72.6750000000000        -1.101576819707374E-012
   72.8650000000000        -1.121453269912892E-012
   73.0550000000000        -1.136280726105805E-012
   73.2450000000000        -1.143836596739912E-012
   73.4350000000000        -1.136819564533860E-012
   73.6250000000000        -1.102062159557326E-012
   73.8150000000000        -1.035223662401018E-012
   74.0050000000000        -9.493488345679769E-013
   74.1950000000000        -8.509422509375083E-013
   74.3850000000000        -7.370753873509237E-013
   74.5750000000000        -6.262066587984721E-013
   74.7650000000000        -5.210261888302632E-013
   74.9550000000000        -4.333177038161082E-013
   75.1450000000000        -3.711543183624776E-013
   75.3350000000000        -3.493144684525595E-013
   75.5250000000000        -3.010753253812439E-013
   75.7150000000000        -2.927658543750961E-013
   75.9050000000000        -2.814740137894455E-013
   76.0950000000000        -2.656311390633360E-013
   76.2850000000000        -2.590800385688389E-013
   76.4750000000000        -2.692835985045779E-013
   76.6650000000000        -2.862019181510657E-013
   76.8550000000000        -2.935902999879496E-013
   77.0450000000000        -3.005154269733915E-013
   77.2350000000000        -3.005131177639400E-013
   77.4250000000000        -2.588186721133532E-013
   77.6150000000000        -1.941034243524569E-013
   77.8050000000000        -1.107579691868335E-013
   77.9950000000000        -3.274303901168791E-014
   78.1850000000000         4.609813123685172E-014
   78.3750000000000         1.206183322637494E-013
   78.5650000000000         1.795303285285469E-013
   78.7550000000000         2.381404781808814E-013
   78.9450000000000         2.531988214603230E-013
   79.1350000000000         2.872370820783659E-013
   79.3250000000000         3.051421412816637E-013
   79.5150000000000         3.286927956743672E-013
   79.7050000000000         3.508011901347661E-013
   79.8950000000000         3.346019205221740E-013
   80.0850000000000         2.422767279829901E-013
   80.2750000000000         9.456471813404345E-014
   80.4650000000000        -7.220999140044566E-014
   80.6550000000000        -2.266010368576911E-013
   80.8450000000000        -3.867817146641257E-013
   81.0350000000000        -5.474944140829441E-013
   81.2250000000000        -6.938221679085513E-013
   81.4150000000000        -8.218153863869062E-013
   81.6050000000000        -9.379008425544376E-013
   81.7950000000000        -9.921678440163941E-013
   81.9850000000000        -1.051864987498851E-012
   82.1750000000000        -1.086039715586566E-012
   82.3650000000000        -1.129278626386359E-012
   82.5550000000000        -1.167931126924580E-012
   82.7450000000000        -1.135287128023923E-012
   82.9350000000000        -1.038164647911987E-012
   83.1250000000000        -9.326496771972723E-013
   83.3150000000000        -8.437689134081742E-013
   83.5050000000000        -7.706662827241113E-013
   83.6950000000000        -7.211525247695780E-013
   83.8850000000000        -6.448381806884255E-013
   84.0750000000000        -6.341835524758654E-013
   84.2650000000000        -6.126524264075021E-013
   84.4550000000000        -6.055748228635610E-013
   84.6450000000000        -6.001469176846476E-013
   84.8350000000000        -5.968431652569905E-013
   85.0250000000000        -5.868253997624133E-013
   85.2150000000000        -5.723025893601130E-013
   85.4050000000000        -5.590997139304034E-013
   85.5950000000000        -5.457754862652286E-013
   85.7850000000000        -5.527396006192509E-013
   85.9750000000000        -5.805167024482550E-013
   86.1650000000000        -6.043395715624761E-013
   86.3550000000000        -6.139487698237979E-013
   86.5450000000000        -6.223021558030257E-013
   86.7350000000000        -6.230796254070492E-013
   86.9250000000000        -6.181093336463531E-013
   87.1150000000000        -6.135906525018959E-013
   87.3050000000000        -6.086509485034959E-013
   87.4950000000000        -6.102048341391171E-013
   87.6850000000000        -6.155645143935247E-013
   87.8750000000000        -6.236817166073923E-013
   88.0650000000000        -6.279619545445614E-013
   88.2550000000000        -6.332884129846980E-013
   88.4450000000000        -6.389147287792300E-013
   88.6350000000000        -6.433823890744671E-013
   88.8250000000000        -6.512622744231702E-013
   89.0150000000000        -6.693689537658991E-013
   89.2050000000000        -7.019856896677763E-013
   89.3950000000000        -7.396668487843445E-013
   89.5850000000000        -7.226750882874063E-013
   89.7750000000000        -6.945892597514496E-013
   89.9650000000000        -6.752471734640396E-013
   90.1550000000000        -6.573850968365173E-013
   90.3450000000000        -6.459114840289759E-013
   90.5350000000000        -6.360066610978364E-013
   90.7250000000000        -6.258697831584950E-013
   90.9150000000000        -6.143940691795945E-013
   91.1050000000000        -6.018012994699876E-013
   91.2950000000000        -5.861935325646965E-013
   91.4850000000000        -5.660451849620208E-013
   91.6750000000000        -5.349548377011924E-013
   91.8650000000000        -4.929601307055944E-013
   92.0550000000000        -4.490679050087059E-013
   92.2450000000000        -4.203809007297456E-013
   92.4350000000000        -4.021259603444903E-013
   92.6250000000000        -3.757412255396973E-013
   92.8150000000000        -3.518006372053295E-013
   93.0050000000000        -3.176592212839763E-013
   93.1950000000000        -2.624722616121557E-013
   93.3850000000000        -1.778341900246010E-013
   93.5750000000000        -1.301956746440216E-013
   93.7650000000000        -1.411121355306607E-013
   93.9550000000000        -1.715907973807541E-013
   94.1450000000000        -2.154589428853268E-013
   94.3350000000000        -2.660573285075013E-013
   94.5250000000000        -3.065673125909170E-013
   94.7150000000000        -3.445029027829218E-013
   94.9050000000000        -3.864253947586582E-013
   95.0950000000000        -4.332542121768376E-013
   95.2850000000000        -4.627917938708266E-013
   95.4750000000000        -4.702399565970751E-013
   95.6650000000000        -4.966510342079862E-013
   95.8550000000000        -5.006863048705925E-013
   96.0450000000000        -5.087729556741261E-013
   96.2350000000000        -5.121465029592262E-013
   96.4250000000000        -5.088936035414698E-013
   96.6150000000000        -4.950603009661694E-013
   96.8050000000000        -4.706980437251455E-013
   96.9950000000000        -4.414157681367897E-013
   97.1850000000000        -4.154204985045499E-013
   97.3750000000000        -4.030307025392853E-013
   97.5650000000000        -3.936786135814679E-013
   97.7550000000000        -3.943068754663816E-013
   97.9450000000000        -4.095558088597443E-013
   98.1350000000000        -4.469123471120495E-013
   98.3250000000000        -4.965258646201376E-013
   98.5150000000000        -5.436180396067685E-013
   98.7050000000000        -5.810390663748897E-013
   98.8950000000000        -6.038403549813699E-013
   99.0850000000000        -6.124501521427548E-013
   99.2750000000000        -6.116783411119792E-013
   99.4650000000000        -5.711363174467097E-013
   99.6550000000000        -5.044766285775985E-013
   99.8450000000000        -4.046013983591907E-013
   100.035000000000        -2.970496208322848E-013
   100.225000000000        -1.739850124388372E-013
   100.415000000000        -5.268132747644383E-014
   100.605000000000         7.196315996827944E-014
   100.795000000000         1.810978331292712E-013
   100.985000000000         2.752645689251942E-013
   101.175000000000         3.129147422027482E-013
   101.365000000000         3.598009932655867E-013
   101.555000000000         3.816568807805785E-013
   101.745000000000         4.125043842427264E-013
   101.935000000000         4.462397739470590E-013
   102.125000000000         3.950593961284009E-013
   102.315000000000         2.127675691771797E-013
   102.505000000000        -3.311296445659400E-015
   102.695000000000        -1.853839183687020E-013
   102.885000000000        -3.563269979190433E-013
   103.075000000000        -5.115483580583720E-013
   103.265000000000        -6.126617922826748E-013
   103.455000000000        -7.072439228915441E-013
   103.645000000000        -7.792005856531392E-013
   103.835000000000        -8.043225946837517E-013
   104.025000000000        -8.410697428437647E-013
   104.215000000000        -8.396947396025504E-013
   104.405000000000        -8.476428327316661E-013
   104.595000000000        -8.580374093698130E-013
   104.785000000000        -8.686240314056400E-013
   104.975000000000        -8.708290993782921E-013
   105.165000000000        -8.606717194753131E-013
   105.355000000000        -8.403144087781415E-013
   105.545000000000        -8.138211439387949E-013
   105.735000000000        -7.822783098518962E-013
   105.925000000000        -7.504243064680451E-013
   106.115000000000        -7.232286636712504E-013
   106.305000000000        -6.901964270065926E-013
   106.495000000000        -6.736030034065194E-013
   106.685000000000        -6.438026785009631E-013
   106.875000000000        -6.334728212149469E-013
   107.065000000000        -6.125886903492400E-013
   107.255000000000        -5.910257822122245E-013
   107.445000000000        -5.701598698288143E-013
   107.635000000000        -5.508265703128927E-013
   107.825000000000        -5.349231064559003E-013
   108.015000000000        -5.234517174451208E-013
   108.205000000000        -5.152223055629532E-013
   108.395000000000        -5.091591076110171E-013
   108.585000000000        -5.065006569722739E-013
   108.775000000000        -5.070924034506894E-013
   108.965000000000        -5.045109574788383E-013
   109.155000000000        -5.060067915855829E-013
   109.345000000000        -4.940442407086589E-013
   109.535000000000        -4.858656636137025E-013
   109.725000000000        -4.731958496648717E-013
   109.915000000000        -4.590628038828069E-013
   110.105000000000        -4.456004558103347E-013