  -1.42500000000000         0.000000000000000E+000
  -1.23500000000000         2.482936656992691E-020
  -1.04500000000000        -3.317848431900410E-019
 -0.855000000000000        -7.155733051643242E-018
 -0.665000000000000        -4.299804466190073E-017
 -0.475000000000000        -1.805663130963968E-016
 -0.285000000000000        -6.084920556049248E-016
 -9.499999999999975E-002   -1.722850291814826E-015
  9.500000000000020E-002   -4.270797202358482E-015
  0.285000000000000        -9.448214062066094E-015
  0.475000000000000        -1.946203957938469E-014
  0.665000000000000        -3.767154536277144E-014
  0.855000000000000        -6.815933029248335E-014
   1.04500000000000        -1.145535272533075E-013
   1.23500000000000        -1.796490202807990E-013
   1.42500000000000        -2.666222323356116E-013
   1.61500000000000        -3.784638868742322E-013
   1.80500000000000        -5.183059576247337E-013
   1.99500000000000        -6.891920680220781E-013
   2.18500000000000        -8.929356417369190E-013
   2.37500000000000        -1.131162526540566E-012
   2.56500000000000        -1.404731539053105E-012
   2.75500000000000        -1.713699989412532E-012
   2.94500000000000        -2.057659014093978E-012
   3.13500000000000        -2.436046959348754E-012
   3.32500000000000        -2.848458692873271E-012
   3.51500000000000        -3.294734072883280E-012
   3.70500000000000        -3.774197542359701E-012
   3.89500000000000        -4.286550914020047E-012
   4.08500000000000        -4.831363195661171E-012
   4.27500000000000        -5.408209370940426E-012
   4.46500000000000        -6.016573822973638E-012
   4.65500000000000        -6.655528302340494E-012
   4.84500000000000        -7.323663146536747E-012
   5.03500000000000        -8.019290944610404E-012
   5.22500000000000        -8.740836055234118E-012
   5.41500000000000        -9.487978782611291E-012
   5.60500000000000        -1.025945767537243E-011
   5.79500000000000        -1.105387360535108E-011
   5.98500000000000        -1.186895156013525E-011
   6.17500000000000        -1.270197094234074E-011
   6.36500000000000        -1.355021062191238E-011
   6.55500000000000        -1.441164662520179E-011
   6.74500000000000        -1.528431086085521E-011
   6.93500000000000        -1.616743250096096E-011
   7.12500000000000        -1.706113224106474E-011
   7.31500000000000        -1.796626839786655E-011
   7.50500000000000        -1.888563338295434E-011
   7.69500000000000        -1.982234594158442E-011
   7.88500000000000        -2.077975136485608E-011
   8.07500000000000        -2.176139747050590E-011
   8.26500000000000        -2.277124377731313E-011
   8.45500000000000        -2.381197600282119E-011
   8.64500000000000        -2.488603736832830E-011
   8.83500000000000        -2.599597637091458E-011
   9.02500000000000        -2.714331763011446E-011
   9.21500000000000        -2.832947455168351E-011
   9.40500000000000        -2.955187115457052E-011
   9.59500000000000        -3.080458800631048E-011
   9.78500000000000        -3.208225386146571E-011
   9.97500000000000        -3.338227570278389E-011
   10.1650000000000        -3.470127493932555E-011
   10.3550000000000        -3.603574929091522E-011
   10.5450000000000        -3.738363077538804E-011
   10.7350000000000        -3.874272213361723E-011
   10.9250000000000        -4.011274220742032E-011
   11.1150000000000        -4.149345232464293E-011
   11.3050000000000        -4.288441894471870E-011
   11.4950000000000        -4.428504389061781E-011
   11.6850000000000        -4.569477513855024E-011
   11.8750000000000        -4.711353729484091E-011
   12.0650000000000        -4.854189349619830E-011
   12.2550000000000        -4.998088768919509E-011
   12.4450000000000        -5.143177217020923E-011
   12.6350000000000        -5.289611931594109E-011
   12.8250000000000        -5.437424106418989E-011
   13.0150000000000        -5.586718898135704E-011
   13.2050000000000        -5.737524276890825E-011
   13.3950000000000        -5.889816947845934E-011
   13.5850000000000        -6.043487719192995E-011
   13.7750000000000        -6.198300242556420E-011
   13.9650000000000        -6.354061250357720E-011
   14.1550000000000        -6.510635149309285E-011
   14.3450000000000        -6.667999417890723E-011
   14.5350000000000        -6.826056072838973E-011
   14.7250000000000        -6.984792486935988E-011
   14.9150000000000        -7.144193178479723E-011
   15.1050000000000        -7.304311786346352E-011
   15.2950000000000        -7.465414201737208E-011
   15.4850000000000        -7.627867511857151E-011
   15.6750000000000        -7.791998495481676E-011
   15.8650000000000        -7.958097323897045E-011
   16.0550000000000        -8.126404600861180E-011
   16.2450000000000        -8.297150340364502E-011
   16.4350000000000        -8.470501529249428E-011
   16.6250000000000        -8.646546713412825E-011
   16.8150000000000        -8.825362073509995E-011
   17.0050000000000        -9.007026954660097E-011
   17.1950000000000        -9.191576837334945E-011
   17.3850000000000        -9.379067996954180E-011
   17.5750000000000        -9.569521631781072E-011
   17.7650000000000        -9.762983326457163E-011
   17.9550000000000        -9.959468071369315E-011
   18.1450000000000        -1.015899186284456E-010
   18.3350000000000        -1.036156361591041E-010
   18.5250000000000        -1.056719229272388E-010
   18.7150000000000        -1.077588730839397E-010
   18.9050000000000        -1.098764582220649E-010
   19.0950000000000        -1.120242774058080E-010
   19.2850000000000        -1.142016579665015E-010
   19.4750000000000        -1.164076875045577E-010
   19.6650000000000        -1.186412215639513E-010
   19.8550000000000        -1.209007918015602E-010
   20.0450000000000        -1.231843416049172E-010
   20.2350000000000        -1.254900232099381E-010
   20.4250000000000        -1.278162119997996E-010
   20.6150000000000        -1.301611621243341E-010
   20.8050000000000        -1.325227036055880E-010
   20.9950000000000        -1.348989713896542E-010
   21.1850000000000        -1.372884856327234E-010
   21.3750000000000        -1.396910306472366E-010
   21.5650000000000        -1.421053036717630E-010
   21.7550000000000        -1.445311693592588E-010
   21.9450000000000        -1.469684390638810E-010
   22.1350000000000        -1.494171406479531E-010
   22.3250000000000        -1.518784423283579E-010
   22.5150000000000        -1.543556817846303E-010
   22.7050000000000        -1.568527596948375E-010
   22.8950000000000        -1.593739405504116E-010
   23.0850000000000        -1.619231673790156E-010
   23.2750000000000        -1.645041347693195E-010
   23.4650000000000        -1.671206017428951E-010
   23.6550000000000        -1.697756045237304E-010
   23.8450000000000        -1.724727579866754E-010
   24.0350000000000        -1.752152708189952E-010
   24.2250000000000        -1.780052812258390E-010
   24.4150000000000        -1.808442507144859E-010
   24.6050000000000        -1.837327521958299E-010
   24.7950000000000        -1.866703301390097E-010
   24.9850000000000        -1.896559169596304E-010
   25.1750000000000        -1.926872265807979E-010
   25.3650000000000        -1.957623040288534E-010
   25.5550000000000        -1.988782058102204E-010
   25.7450000000000        -2.020325537997685E-010
   25.9350000000000        -2.052210983680983E-010
   26.1250000000000        -2.084402814208865E-010
   26.3150000000000        -2.116878016836267E-010
   26.5050000000000        -2.149617337752808E-010
   26.6950000000000        -2.182598836091045E-010
   26.8850000000000        -2.215804618742454E-010
   27.0750000000000        -2.249219611863370E-010
   27.2650000000000        -2.282831471978004E-010
   27.4550000000000        -2.316635042014997E-010
   27.6450000000000        -2.350635097594272E-010
   27.8350000000000        -2.384839634944042E-010
   28.0250000000000        -2.419247540714658E-010
   28.2150000000000        -2.453862835041224E-010
   28.4050000000000        -2.488686397011531E-010
   28.5950000000000        -2.523707249226987E-010
   28.7850000000000        -2.558896776708750E-010
   28.9750000000000        -2.594221211249393E-010
   29.1650000000000        -2.629632511717715E-010
   29.3550000000000        -2.665067949997942E-010
   29.5450000000000        -2.700462164389715E-010
   29.7350000000000        -2.735766907775054E-010
   29.9250000000000        -2.770929359234918E-010
   30.1150000000000        -2.805898820549125E-010
   30.3050000000000        -2.840636854913056E-010
   30.4950000000000        -2.875119183419012E-010
   30.6850000000000        -2.909344341741498E-010
   30.8750000000000        -2.943308546113839E-010
   31.0650000000000        -2.977018269423606E-010
   31.2550000000000        -3.010519688825667E-010
   31.4450000000000        -3.043880706822763E-010
   31.6350000000000        -3.077163079268627E-010
   31.8250000000000        -3.110432455679730E-010
   32.0150000000000        -3.143769979237011E-010
   32.2050000000000        -3.177241301305166E-010
   32.3950000000000        -3.210896636229135E-010
   32.5850000000000        -3.244772757843327E-010
   32.7750000000000        -3.278911752603480E-010
   32.9650000000000        -3.313337861591746E-010
   33.1550000000000        -3.348066524653167E-010
   33.3450000000000        -3.383104627675768E-010
   33.5350000000000        -3.418461381623443E-010
   33.7250000000000        -3.454145756838059E-010
   33.9150000000000        -3.490159004511184E-010
   34.1050000000000        -3.526482422849104E-010
   34.2950000000000        -3.563074669884142E-010
   34.4850000000000        -3.599893069470205E-010
   34.6750000000000        -3.636914319347412E-010
   34.8650000000000        -3.674109885093486E-010
   35.0550000000000        -3.711450148668030E-010
   35.2450000000000        -3.748912191534637E-010
   35.4350000000000        -3.786477289556193E-010
   35.6250000000000        -3.824150706917898E-010
   35.8150000000000        -3.861949740132396E-010
   36.0050000000000        -3.899896447735894E-010
   36.1950000000000        -3.938013118735442E-010
   36.3850000000000        -3.976318895571715E-010
   36.5750000000000        -4.014814561319952E-010
   36.7650000000000        -4.053508854882509E-010
   36.9550000000000        -4.092400287498528E-010
   37.1450000000000        -4.131491642235499E-010
   37.3350000000000        -4.170782728100054E-010
   37.5250000000000        -4.210272102443696E-010
   37.7150000000000        -4.249958253778950E-010
   37.9050000000000        -4.289839815913299E-010
   38.0950000000000        -4.329915944857855E-010
   38.2850000000000        -4.370188084163742E-010
   38.4750000000000        -4.410663683826457E-010
   38.6650000000000        -4.451376298081097E-010
   38.8550000000000        -4.492402146561728E-010
   39.0450000000000        -4.533788882823541E-010
   39.2350000000000        -4.575591310547783E-010
   39.4250000000000        -4.617869664899312E-010
   39.6150000000000        -4.660676847883358E-010
   39.8050000000000        -4.704046248663839E-010
   39.9950000000000        -4.748013333492003E-010
   40.1850000000000        -4.792606285912568E-010
   40.3750000000000        -4.837843096465699E-010
   40.5650000000000        -4.883725606385144E-010
   40.7550000000000        -4.930256686577311E-010
   40.9450000000000        -4.977437381230780E-010
   41.1350000000000        -5.025256647786736E-010
   41.3250000000000        -5.073674199450541E-010
   41.5150000000000        -5.122635732519009E-010
   41.7050000000000        -5.172077770302414E-010
   41.8950000000000        -5.221948341552677E-010
   42.0850000000000        -5.272194050200619E-010
   42.2750000000000        -5.322761528474635E-010
   42.4650000000000        -5.373597041011664E-010
   42.6550000000000        -5.424647568721215E-010
   42.8450000000000        -5.475864484109687E-010
   43.0350000000000        -5.527203543311341E-010
   43.2250000000000        -5.578624510827172E-010
   43.4150000000000        -5.630098646467810E-010
   43.6050000000000        -5.681589126326533E-010
   43.7950000000000        -5.733089973667721E-010
   43.9850000000000        -5.784590206868979E-010
   44.1750000000000        -5.836082382643110E-010
   44.3650000000000        -5.887556920402402E-010
   44.5550000000000        -5.939003344122689E-010
   44.7450000000000        -5.990429239657658E-010
   44.9350000000000        -6.041880724043957E-010
   45.1250000000000        -6.093441824914310E-010
   45.3150000000000        -6.145204057051012E-010
   45.5050000000000        -6.197239233636073E-010
   45.6950000000000        -6.249611172134000E-010
   45.8850000000000        -6.302356410134018E-010
   46.0750000000000        -6.355507552759217E-010
   46.2650000000000        -6.409084017277583E-010
   46.4550000000000        -6.463095660846589E-010
   46.6450000000000        -6.517547756158207E-010
   46.8350000000000        -6.572442156061266E-010
   47.0250000000000        -6.627754639508274E-010
   47.2150000000000        -6.683422442487114E-010
   47.4050000000000        -6.739357590209460E-010
   47.5950000000000        -6.795499486378257E-010
   47.7850000000000        -6.851793317216328E-010
   47.9750000000000        -6.908192694675032E-010
   48.1650000000000        -6.964659352146036E-010
   48.3550000000000        -7.021155376546049E-010
   48.5450000000000        -7.077645519888414E-010
   48.7350000000000        -7.134107562134477E-010
   48.9250000000000        -7.190521173085657E-010
   49.1150000000000        -7.246874090157778E-010
   49.3050000000000        -7.303154004880414E-010
   49.4950000000000        -7.359349080228464E-010
   49.6850000000000        -7.415473151409992E-010
   49.8750000000000        -7.471584420923480E-010
   50.0650000000000        -7.527762227353455E-010
   50.2550000000000        -7.584063555858387E-010
   50.4450000000000        -7.640555736900028E-010
   50.6350000000000        -7.697299889729181E-010
   50.8250000000000        -7.754324483694397E-010
   51.0150000000000        -7.811674819511666E-010
   51.2050000000000        -7.869353380028994E-010
   51.3950000000000        -7.927369591953846E-010
   51.5850000000000        -7.985740943800159E-010
   51.7750000000000        -8.044485520566678E-010
   51.9650000000000        -8.103581763818074E-010
   52.1550000000000        -8.162969410993846E-010
   52.3450000000000        -8.222602227954455E-010
   52.5350000000000        -8.282450293492151E-010
   52.7250000000000        -8.342485832702494E-010
   52.9150000000000        -8.402691006377408E-010
   53.1050000000000        -8.463056460291514E-010
   53.2950000000000        -8.523579502677309E-010
   53.4850000000000        -8.584254166287538E-010
   53.6750000000000        -8.645087866300775E-010
   53.8650000000000        -8.706103741453350E-010
   54.0550000000000        -8.767329619616973E-010
   54.2450000000000        -8.828797012816256E-010
   54.4350000000000        -8.890542212622530E-010
   54.6250000000000        -8.952602920838498E-010
   54.8150000000000        -9.015012322146869E-010
   55.0050000000000        -9.077800676289073E-010
   55.1950000000000        -9.140992120136624E-010
   55.3850000000000        -9.204598588313604E-010
   55.5750000000000        -9.268635289699483E-010
   55.7650000000000        -9.333112559534657E-010
   55.9550000000000        -9.398036087095250E-010
   56.1450000000000        -9.463405379592441E-010
   56.3350000000000        -9.529195493648174E-010
   56.5250000000000        -9.595365618103871E-010
   56.7150000000000        -9.661874497820561E-010
   56.9050000000000        -9.728675613168271E-010
   57.0950000000000        -9.795718417959597E-010
   57.2850000000000        -9.862961311012776E-010
   57.4750000000000        -9.930360436229976E-010
   57.6650000000000        -9.997878104296139E-010
   57.8550000000000        -1.006548187977970E-009
   58.0450000000000        -1.013316004210986E-009
   58.2350000000000        -1.020090952674076E-009
   58.4250000000000        -1.026872757987810E-009
   58.6150000000000        -1.033661419723032E-009
   58.8050000000000        -1.040457231621362E-009
   58.9950000000000        -1.047260603478382E-009
   59.1850000000000        -1.054072006273332E-009
   59.3750000000000        -1.060891721215768E-009
   59.5650000000000        -1.067719896356832E-009
   59.7550000000000        -1.074556692060261E-009
   59.9450000000000        -1.081402628714297E-009
   60.1350000000000        -1.088258667565643E-009
   60.3250000000000        -1.095126361800076E-009
   60.5150000000000        -1.102007736801880E-009
   60.7050000000000        -1.108904572640261E-009
   60.8950000000000        -1.115817927685697E-009
   61.0850000000000        -1.122747544723244E-009
   61.2750000000000        -1.129690994045630E-009
   61.4650000000000        -1.136647167445061E-009
   61.6550000000000        -1.143613774320769E-009
   61.8450000000000        -1.150589059180719E-009
   62.0350000000000        -1.157571274967782E-009
   62.2250000000000        -1.164558574119723E-009
   62.4150000000000        -1.171551050248096E-009
   62.6050000000000        -1.178547960745461E-009
   62.7950000000000        -1.185548281177731E-009
   62.9850000000000        -1.192552210337136E-009
   63.1750000000000        -1.199559570144789E-009
   63.3650000000000        -1.206570181259931E-009
   63.5550000000000        -1.213583897115498E-009
   63.7450000000000        -1.220600797964483E-009
   63.9350000000000        -1.227621202508745E-009
   64.1250000000000        -1.234646048479004E-009
   64.3150000000000        -1.241676436768136E-009
   64.5050000000000        -1.248713828612339E-009
   64.6950000000000        -1.255759765661638E-009
   64.8850000000000        -1.262816063159332E-009
   65.0750000000000        -1.269884027034953E-009
   65.2650000000000        -1.276964427269946E-009
   65.4550000000000        -1.284057808627585E-009
   65.6450000000000        -1.291164838629599E-009
   65.8350000000000        -1.298286155776578E-009
   66.0250000000000        -1.305422436465826E-009
   66.2150000000000        -1.312574551210888E-009
   66.4050000000000        -1.319743072592466E-009
   66.5950000000000        -1.326928307379700E-009
   66.7850000000000        -1.334130297634562E-009
   66.9750000000000        -1.341348953061839E-009
   67.1650000000000        -1.348583808436281E-009
   67.3550000000000        -1.355834244592127E-009
   67.5450000000000        -1.363099642244329E-009
   67.7350000000000        -1.370379647327573E-009
   67.9250000000000        -1.377674375526379E-009
   68.1150000000000        -1.384984629725292E-009
   68.3050000000000        -1.392311809789205E-009
   68.4950000000000        -1.399657986898297E-009
   68.6850000000000        -1.407025305197066E-009
   68.8750000000000        -1.414415638865046E-009
   69.0650000000000        -1.421830764857919E-009
   69.2550000000000        -1.429272270041882E-009
   69.4450000000000        -1.436741537616152E-009
   69.6350000000000        -1.444239637473203E-009
   69.8250000000000        -1.451767282015953E-009
   70.0150000000000        -1.459324844950213E-009
   70.2050000000000        -1.466913190399102E-009
   70.3950000000000        -1.474533523651344E-009
   70.5850000000000        -1.482187325490752E-009
   70.7750000000000        -1.489876119317407E-009
   70.9650000000000        -1.497601466212065E-009
   71.1550000000000        -1.505364973397942E-009
   71.3450000000000        -1.513168889847343E-009
   71.5350000000000        -1.521014422901059E-009
   71.7250000000000        -1.528903679072178E-009
   71.9150000000000        -1.536837202988449E-009
   72.1050000000000        -1.544816272219170E-009
   72.2950000000000        -1.552841479360561E-009
   72.4850000000000        -1.560913646943871E-009
   72.6750000000000        -1.569033544420902E-009
   72.8650000000000        -1.577201778456517E-009
   73.0550000000000        -1.585419061655091E-009
   73.2450000000000        -1.593685751775018E-009
   73.4350000000000        -1.602001755369536E-009
   73.6250000000000        -1.610366283598881E-009
   73.8150000000000        -1.618777215234117E-009
   74.0050000000000        -1.627231694274192E-009
   74.1950000000000        -1.635725653369675E-009
   74.3850000000000        -1.644254940330491E-009
   74.5750000000000        -1.652815116510091E-009
   74.7650000000000        -1.661401873365910E-009
   74.9550000000000        -1.670010826853552E-009
   75.1450000000000        -1.678638105471870E-009
   75.3350000000000        -1.687280466184458E-009
   75.5250000000000        -1.695937027623187E-009
   75.7150000000000        -1.704605371559376E-009
   75.9050000000000        -1.713285333370447E-009
   76.0950000000000        -1.721976665328445E-009
   76.2850000000000        -1.730679302548142E-009
   76.4750000000000        -1.739393989284682E-009
   76.6650000000000        -1.748122311104416E-009
   76.8550000000000        -1.756865808021991E-009
   77.0450000000000        -1.765625061601049E-009
   77.2350000000000        -1.774400133458566E-009
   77.4250000000000        -1.783190254699258E-009
   77.6150000000000        -1.791992621976824E-009
   77.8050000000000        -1.800802696249589E-009
   77.9950000000000        -1.809616343931415E-009
   78.1850000000000        -1.818429645858145E-009
   78.3750000000000        -1.827238891617032E-009
   78.5650000000000        -1.836041238704756E-009
   78.7550000000000        -1.844834504788155E-009
   78.9450000000000        -1.853616804387554E-009
   79.1350000000000        -1.862387611040535E-009
   79.3250000000000        -1.871145499454131E-009
   79.5150000000000        -1.879889324493096E-009
   79.7050000000000        -1.888617555216945E-009
   79.8950000000000        -1.897328777219327E-009
   80.0850000000000        -1.906023971621249E-009
   80.2750000000000        -1.914707395081436E-009
   80.4650000000000        -1.923386025599550E-009
   80.6550000000000        -1.932067611828309E-009
   80.8450000000000        -1.940760484155912E-009
   81.0350000000000        -1.949472052940690E-009
   81.2250000000000        -1.958209561414472E-009
   81.4150000000000        -1.966978552309552E-009
   81.6050000000000        -1.975784146892712E-009
   81.7950000000000        -1.984631508292724E-009
   81.9850000000000        -1.993522935754240E-009
   82.1750000000000        -2.002460799677286E-009
   82.3650000000000        -2.011446509973594E-009
   82.5550000000000        -2.020482243905638E-009
   82.7450000000000        -2.029569580123003E-009
   82.9350000000000        -2.038706874081759E-009
   83.1250000000000        -2.047889368705516E-009
   83.3150000000000        -2.057112887840444E-009
   83.5050000000000        -2.066373868550463E-009
   83.6950000000000        -2.075669043660256E-009
   83.8850000000000        -2.084996642846367E-009
   84.0750000000000        -2.094353174828550E-009
   84.2650000000000        -2.103737778347781E-009
   84.4550000000000        -2.113149505252044E-009
   84.6450000000000        -2.122587834646293E-009
   84.8350000000000        -2.132052232364351E-009
   85.0250000000000        -2.141542116141456E-009
   85.2150000000000        -2.151056510100430E-009
   85.4050000000000        -2.160594250491138E-009
   85.5950000000000        -2.170154327503697E-009
   85.7850000000000        -2.179735890155016E-009
   85.9750000000000        -2.189339623191930E-009
   86.1650000000000        -2.198966879325151E-009
   86.3550000000000        -2.208619275510575E-009
   86.5450000000000        -2.218298520910045E-009
   86.7350000000000        -2.228005885577703E-009
   86.9250000000000        -2.237742454105386E-009
   87.1150000000000        -2.247508955589775E-009
   87.3050000000000        -2.257305325344130E-009
   87.4950000000000        -2.267131378482275E-009
   87.6850000000000        -2.276986604654635E-009
   87.8750000000000        -2.286870677693909E-009
   88.0650000000000        -2.296783482449041E-009
   88.2550000000000        -2.306724506378277E-009
   88.4450000000000        -2.316693507400094E-009
   88.6350000000000        -2.326690494987145E-009
   88.8250000000000        -2.336715659655580E-009
   89.0150000000000        -2.346769533026752E-009
   89.2050000000000        -2.356853125033582E-009
   89.3950000000000        -2.366968066457905E-009
   89.5850000000000        -2.377115249281812E-009
   89.7750000000000        -2.387292971205259E-009
   89.9650000000000        -2.397499492565446E-009
   90.1550000000000        -2.407733486350381E-009
   90.3450000000000        -2.417993800810170E-009
   90.5350000000000        -2.428279888950853E-009
   90.7250000000000        -2.438591603663323E-009
   90.9150000000000        -2.448929139962042E-009
   91.1050000000000        -2.459292833881903E-009
   91.2950000000000        -2.469683101644343E-009
   91.4850000000000        -2.480099945224049E-009
   91.6750000000000        -2.490542794783029E-009
   91.8650000000000        -2.501010198263309E-009
   92.0550000000000        -2.511499936819718E-009
   92.2450000000000        -2.522009417375990E-009
   92.4350000000000        -2.532536260446296E-009
   92.6250000000000        -2.543078813925813E-009
   92.8150000000000        -2.553635161706966E-009
   93.0050000000000        -2.564203598726724E-009
   93.1950000000000        -2.574782299470692E-009
   93.3850000000000        -2.585368741113283E-009
   93.5750000000000        -2.595959572049570E-009
   93.7650000000000        -2.606554162867136E-009
   93.9550000000000        -2.617154079055008E-009
   94.1450000000000        -2.627761986563474E-009
   94.3350000000000        -2.638380166413004E-009
   94.5250000000000        -2.649011178601993E-009
   94.7150000000000        -2.659657208894807E-009
   94.9050000000000        -2.670320301039095E-009
   95.0950000000000        -2.681002066164020E-009
   95.2850000000000        -2.691703910399694E-009
   95.4750000000000        -2.702427240924213E-009
   95.6650000000000        -2.713172312636765E-009
   95.8550000000000        -2.723940041449078E-009
   96.0450000000000        -2.734730768776217E-009
   96.2350000000000        -2.745544869493975E-009
   96.4250000000000        -2.756382434858144E-009
   96.6150000000000        -2.767243172252017E-009
   96.8050000000000        -2.778126183163814E-009
   96.9950000000000        -2.789030061714538E-009
   97.1850000000000        -2.799953283967208E-009
   97.3750000000000        -2.810894489689932E-009
   97.5650000000000        -2.821852777426257E-009
   97.7550000000000        -2.832827578243218E-009
   97.9450000000000        -2.843818772343829E-009
   98.1350000000000        -2.854826943307732E-009
   98.3250000000000        -2.865853799412296E-009
   98.5150000000000        -2.876901614779286E-009
   98.7050000000000        -2.887972569746208E-009
   98.8950000000000        -2.899068444794598E-009
   99.0850000000000        -2.910190339102145E-009
   99.2750000000000        -2.921338715947264E-009
   99.4650000000000        -2.932513650482074E-009
   99.6550000000000        -2.943712879105899E-009
   99.8450000000000        -2.954932961496027E-009
   100.035000000000        -2.966169301708981E-009
   100.225000000000        -2.977416686852077E-009
   100.415000000000        -2.988669619612991E-009
   100.605000000000        -2.999922444786341E-009
   100.795000000000        -3.011169404981519E-009
   100.985000000000        -3.022405963077962E-009
   101.175000000000        -3.033628289884589E-009
   101.365000000000        -3.044835215854050E-009
   101.555000000000        -3.056025247418849E-009
   101.745000000000        -3.067198142323487E-009
   101.935000000000        -3.078353174121138E-009
   102.125000000000        -3.089489716117044E-009
   102.315000000000        -3.100611299172078E-009
   102.505000000000        -3.111727507411219E-009
   102.695000000000        -3.122847208931266E-009
   102.885000000000        -3.133977454166638E-009
   103.075000000000        -3.145125186213868E-009
   103.265000000000        -3.156296486331278E-009
   103.455000000000        -3.167495448203790E-009
   103.645000000000        -3.178725592673132E-009
   103.835000000000        -3.189989479892681E-009
   104.025000000000        -3.201289256702657E-009
   104.215000000000        -3.212626566391420E-009
   104.405000000000        -3.224001842552792E-009
   104.595000000000        -3.235415584631846E-009
   104.785000000000        -3.246868049100691E-009
   104.975000000000        -3.258359160484443E-009
   105.165000000000        -3.269888159008248E-009
   105.355000000000        -3.281453603975695E-009
   105.545000000000        -3.293053904945643E-009
   105.735000000000        -3.304687610168863E-009
   105.925000000000        -3.316353451121621E-009
   106.115000000000        -3.328050484003982E-009
   106.305000000000        -3.339778220536563E-009
   106.495000000000        -3.351535883341122E-009
   106.685000000000        -3.363323201673761E-009
   106.875000000000        -3.375139027605980E-009
   107.065000000000        -3.386982782206341E-009
   107.255000000000        -3.398853147543613E-009
   107.445000000000        -3.410748682621153E-009
   107.635000000000        -3.422668030305758E-009
   107.825000000000        -3.434610071396319E-009
   108.015000000000        -3.446574036049721E-009
   108.205000000000        -3.458559538717127E-009
   108.395000000000        -3.470566487043342E-009
   108.585000000000        -3.482594955103550E-009
   108.775000000000        -3.494645139060980E-009
   108.965000000000        -3.506717261571153E-009
   109.155000000000        -3.518811284783477E-009
   109.345000000000        -3.530927362389200E-009
   109.535000000000        -3.543065049289735E-009
   109.725000000000        -3.555224214338220E-009
   109.915000000000        -3.567404577548021E-009
   110.105000000000        -3.579605844625898E-009