  -1.42500000000000         2.389869707052541E-019
  -1.23500000000000         7.161961058964442E-019
  -1.04500000000000         4.015672102762936E-018
 -0.855000000000000         1.815318195977957E-017
 -0.665000000000000         6.889952500203675E-017
 -0.475000000000000         2.192341500441971E-016
 -0.285000000000000         5.910685278977630E-016
 -9.499999999999975E-002    1.430392662024350E-015
  9.500000000000020E-002    2.964714440166514E-015
  0.285000000000000         5.430095237465346E-015
  0.475000000000000         8.915665706931359E-015
  0.665000000000000         1.330634163496829E-014
  0.855000000000000         1.804156591577592E-014
   1.04500000000000         2.332895677901370E-014
   1.23500000000000         2.907697734411114E-014
   1.42500000000000         3.323928006138011E-014
   1.61500000000000         3.801489921680693E-014
   1.80500000000000         4.391530736199293E-014
   1.99500000000000         4.962062410745222E-014
   2.18500000000000         5.556243248073060E-014
   2.37500000000000         6.141919299477535E-014
   2.56500000000000         6.654827896616508E-014
   2.75500000000000         7.091734262446944E-014
   2.94500000000000         7.444271086500174E-014
   3.13500000000000         7.659613079144417E-014
   3.32500000000000         7.729031949113218E-014
   3.51500000000000         7.857320052051091E-014
   3.70500000000000         7.896789485480612E-014
   3.89500000000000         7.931753474725358E-014
   4.08500000000000         7.952867132254123E-014
   4.27500000000000         7.965531614444120E-014
   4.46500000000000         7.963137198529797E-014
   4.65500000000000         7.922355862566321E-014
   4.84500000000000         7.815028683931279E-014
   5.03500000000000         7.641595698695985E-014
   5.22500000000000         7.597794941562013E-014
   5.41500000000000         7.382606255949595E-014
   5.60500000000000         7.196518310649073E-014
   5.79500000000000         7.065826276057322E-014
   5.98500000000000         7.050985673208960E-014
   6.17500000000000         7.184586854050517E-014
   6.36500000000000         7.494703303470431E-014
   6.55500000000000         7.865345581274719E-014
   6.74500000000000         8.247157656006048E-014
   6.93500000000000         8.710968906948508E-014
   7.12500000000000         9.336865926303736E-014
   7.31500000000000         9.859738182383910E-014
   7.50500000000000         1.022009232048335E-013
   7.69500000000000         1.040515628953384E-013
   7.88500000000000         1.042444778033093E-013
   8.07500000000000         1.028326660813415E-013
   8.26500000000000         1.009349361426138E-013
   8.45500000000000         9.847264642214580E-014
   8.64500000000000         9.479288022956378E-014
   8.83500000000000         9.040023726322824E-014
   9.02500000000000         8.143661313473912E-014
   9.21500000000000         6.750773628530923E-014
   9.40500000000000         5.275690304336258E-014
   9.59500000000000         4.014939346463414E-014
   9.78500000000000         3.207611182958903E-014
   9.97500000000000         2.509453898277555E-014
   10.1650000000000         2.002633957884334E-014
   10.3550000000000         1.750861256252420E-014
   10.5450000000000         1.561201221034237E-014
   10.7350000000000         1.527553645626175E-014
   10.9250000000000         1.509392629109950E-014
   11.1150000000000         1.482034253148186E-014
   11.3050000000000         1.452264610545569E-014
   11.4950000000000         1.468123747687351E-014
   11.6850000000000         1.604225242639008E-014
   11.8750000000000         1.887799417003863E-014
   12.0650000000000         2.277001137075641E-014
   12.2550000000000         2.716861295722546E-014
   12.4450000000000         3.288985173961134E-014
   12.6350000000000         3.425736019799947E-014
   12.8250000000000         3.916371828939105E-014
   13.0150000000000         4.312783890520452E-014
   13.2050000000000         4.650027871609726E-014
   13.3950000000000         5.011023313394947E-014
   13.5850000000000         5.278660358502317E-014
   13.7750000000000         5.421643203704802E-014
   13.9650000000000         5.497013804296249E-014
   14.1550000000000         5.511741171792513E-014
   14.3450000000000         5.560520797488905E-014
   14.5350000000000         5.582160162693558E-014
   14.7250000000000         5.646456173745013E-014
   14.9150000000000         5.843144196480439E-014
   15.1050000000000         6.347719983982798E-014
   15.2950000000000         7.147860731256742E-014
   15.4850000000000         8.090849147020586E-014
   15.6750000000000         8.859870477844065E-014
   15.8650000000000         9.569232112975813E-014
   16.0550000000000         1.025447561960464E-013
   16.2450000000000         1.073341555210597E-013
   16.4350000000000         1.101297452452816E-013
   16.6250000000000         1.115862134374114E-013
   16.8150000000000         1.120286707855294E-013
   17.0050000000000         1.119781324985604E-013
   17.1950000000000         1.113487683254790E-013
   17.3850000000000         1.110489358687742E-013
   17.5750000000000         1.093805432553730E-013
   17.7650000000000         1.086617135820967E-013
   17.9550000000000         1.075104039117983E-013
   18.1450000000000         1.065450088452040E-013
   18.3350000000000         1.054993793309778E-013
   18.5250000000000         1.040790260452968E-013
   18.7150000000000         1.007973148607307E-013
   18.9050000000000         9.558542333764461E-014
   19.0950000000000         8.880000262184370E-014
   19.2850000000000         8.137702002490606E-014
   19.4750000000000         7.452883455554376E-014
   19.6650000000000         6.871790788485370E-014
   19.8550000000000         6.337083713803970E-014
   20.0450000000000         5.858191243608859E-014
   20.2350000000000         5.424223039499301E-014
   20.4250000000000         4.994547893141409E-014
   20.6150000000000         4.498298737263270E-014
   20.8050000000000         3.961430637113275E-014
   20.9950000000000         3.423682804960129E-014
   21.1850000000000         3.292330097855649E-014
   21.3750000000000         2.681121353408304E-014
   21.5650000000000         2.561171722530809E-014
   21.7550000000000         2.274941067675818E-014
   21.9450000000000         1.831293357708835E-014
   22.1350000000000         1.323716004767642E-014
   22.3250000000000         8.640135280417976E-015
   22.5150000000000         8.703824435443507E-015
   22.7050000000000         1.286666406287349E-014
   22.8950000000000         2.012143888833176E-014
   23.0850000000000         2.912070273047751E-014
   23.2750000000000         3.855467644895172E-014
   23.4650000000000         4.672902997571980E-014
   23.6550000000000         5.695837046904235E-014
   23.8450000000000         6.850783711110895E-014
   24.0350000000000         7.900579821841008E-014
   24.2250000000000         8.878636943087149E-014
   24.4150000000000         9.738377203404072E-014
   24.6050000000000         1.056370100878811E-013
   24.7950000000000         1.095845957953123E-013
   24.9850000000000         1.123696806711569E-013
   25.1750000000000         1.128445683517390E-013
   25.3650000000000         1.119719968416209E-013
   25.5550000000000         1.102212319533063E-013
   25.7450000000000         1.064896076642426E-013
   25.9350000000000         1.019670238857716E-013
   26.1250000000000         9.847659909616663E-014
   26.3150000000000         9.557307643139928E-014
   26.5050000000000         9.253515722423054E-014
   26.6950000000000         8.998559619158916E-014
   26.8850000000000         8.756314752101669E-014
   27.0750000000000         8.501515698882013E-014
   27.2650000000000         8.302795358922123E-014
   27.4550000000000         8.263000981527205E-014
   27.6450000000000         8.340243991795458E-014
   27.8350000000000         8.380793292686469E-014
   28.0250000000000         8.567327951888307E-014
   28.2150000000000         8.727119398692676E-014
   28.4050000000000         8.940060123084099E-014
   28.5950000000000         9.119707179453636E-014
   28.7850000000000         9.071070231130299E-014
   28.9750000000000         8.708594088956302E-014
   29.1650000000000         7.973966068022073E-014
   29.3550000000000         6.845801956439021E-014
   29.5450000000000         5.609092641039904E-014
   29.7350000000000         4.419578604700285E-014
   29.9250000000000         3.232922154513403E-014
   30.1150000000000         2.175702726638971E-014
   30.3050000000000         1.343462639544297E-014
   30.4950000000000         7.747404346759038E-015
   30.6850000000000         4.198266944931423E-015
   30.8750000000000        -6.705195691010752E-016
   31.0650000000000        -8.158360035174030E-015
   31.2550000000000        -1.088793702222641E-014
   31.4450000000000        -9.291603671675180E-015
   31.6350000000000        -5.188040979159196E-015
   31.8250000000000         1.254290635450177E-016
   32.0150000000000         5.353415670108271E-015
   32.2050000000000         1.089755763637477E-014
   32.3950000000000         1.681534125236610E-014
   32.5850000000000         2.279780989192620E-014
   32.7750000000000         2.703402085492073E-014
   32.9650000000000         3.053560791828188E-014
   33.1550000000000         3.226966472115115E-014
   33.3450000000000         3.475705632705519E-014
   33.5350000000000         3.841721430442881E-014
   33.7250000000000         4.389640293712563E-014
   33.9150000000000         5.169953312502695E-014
   34.1050000000000         6.053374133278136E-014
   34.2950000000000         6.830446873670120E-014
   34.4850000000000         7.304539042343749E-014
   34.6750000000000         7.786165395570464E-014
   34.8650000000000         8.242326157190472E-014
   35.0550000000000         8.676809872641237E-014
   35.2450000000000         9.144393581387045E-014
   35.4350000000000         9.530159395383086E-014
   35.6250000000000         9.763346400981598E-014
   35.8150000000000         9.853752698033502E-014
   36.0050000000000         9.816945738450816E-014
   36.1950000000000         9.688674355507919E-014
   36.3850000000000         9.635077920360184E-014
   36.5750000000000         9.480856026047014E-014
   36.7650000000000         9.420508832201130E-014
   36.9550000000000         9.250923315202835E-014
   37.1450000000000         9.048256910239926E-014
   37.3350000000000         8.846468682872124E-014
   37.5250000000000         8.672309454910081E-014
   37.7150000000000         8.510582352625397E-014
   37.9050000000000         8.367934116252205E-014
   38.0950000000000         8.280392077373308E-014
   38.2850000000000         8.141320503815969E-014
   38.4750000000000         7.944138234033502E-014
   38.6650000000000         7.772445574715940E-014
   38.8550000000000         7.653721916618800E-014
   39.0450000000000         7.534261540278960E-014
   39.2350000000000         7.373589716654006E-014
   39.4250000000000         7.113395637699605E-014
   39.6150000000000         6.831706031380398E-014
   39.8050000000000         6.450779951743873E-014
   39.9950000000000         6.149461241040663E-014
   40.1850000000000         5.840875940937329E-014
   40.3750000000000         5.779223521257740E-014
   40.5650000000000         5.663436710302339E-014
   40.7550000000000         5.413326694671006E-014
   40.9450000000000         4.841171644672602E-014
   41.1350000000000         3.769399324324945E-014
   41.3250000000000         2.461215698662899E-014
   41.5150000000000         1.470966642813836E-014
   41.7050000000000         9.015491753702840E-015
   41.8950000000000         6.159036837528945E-015
   42.0850000000000         5.953206754719525E-015
   42.2750000000000         8.061466442859465E-015
   42.4650000000000         1.215371320075735E-014
   42.6550000000000         1.764183208298163E-014
   42.8450000000000         2.456240394300416E-014
   43.0350000000000         3.179096379807869E-014
   43.2250000000000         3.753281563680556E-014
   43.4150000000000         4.540256421875629E-014
   43.6050000000000         4.794510564741328E-014
   43.7950000000000         5.132122219481632E-014
   43.9850000000000         5.387040999699755E-014
   44.1750000000000         5.735966684194662E-014
   44.3650000000000         6.282308668709800E-014
   44.5550000000000         7.073503816203119E-014
   44.7450000000000         7.903024213899350E-014
   44.9350000000000         8.345393301900716E-014
   45.1250000000000         8.339333801946578E-014
   45.3150000000000         8.112498134000240E-014
   45.5050000000000         7.843219507982552E-014
   45.6950000000000         7.635821296130081E-014
   45.8850000000000         7.500827843784444E-014
   46.0750000000000         7.462074694480166E-014
   46.2650000000000         7.433048903486913E-014
   46.4550000000000         7.402527620310950E-014
   46.6450000000000         7.353108955789947E-014
   46.8350000000000         7.376819813742340E-014
   47.0250000000000         7.556431035794889E-014
   47.2150000000000         7.829956033182809E-014
   47.4050000000000         8.025707976254594E-014
   47.5950000000000         8.116906387711140E-014
   47.7850000000000         8.090883160000814E-014
   47.9750000000000         7.945274860211349E-014
   48.1650000000000         7.721713043310641E-014
   48.3550000000000         7.424450379502910E-014
   48.5450000000000         7.186458261735240E-014
   48.7350000000000         6.931822433791276E-014
   48.9250000000000         6.743804038769684E-014
   49.1150000000000         6.545384261156765E-014
   49.3050000000000         6.119985920664052E-014
   49.4950000000000         5.477971652717020E-014
   49.6850000000000         5.036190019707464E-014
   49.8750000000000         4.955766596353375E-014
   50.0650000000000         5.147064810372721E-014
   50.2550000000000         5.540733632636808E-014
   50.4450000000000         6.036498765202027E-014
   50.6350000000000         6.333957364899695E-014
   50.8250000000000         6.845456051596519E-014
   51.0150000000000         6.981861067961801E-014
   51.2050000000000         7.203502705645482E-014
   51.3950000000000         7.493283448911144E-014
   51.5850000000000         7.777719996912716E-014
   51.7750000000000         7.640589893586642E-014
   51.9650000000000         6.889482799643644E-014
   52.1550000000000         5.730028868411274E-014
   52.3450000000000         4.486514215753878E-014
   52.5350000000000         3.159298175233572E-014
   52.7250000000000         1.934235364210289E-014
   52.9150000000000         1.118822106580493E-014
   53.1050000000000         3.383655007223415E-015
   53.2950000000000        -2.728264467368742E-015
   53.4850000000000        -8.354996902997255E-015
   53.6750000000000        -1.293196029620484E-014
   53.8650000000000        -1.163917732065050E-014
   54.0550000000000        -5.946822332670616E-015
   54.2450000000000         3.391830590856885E-015
   54.4350000000000         1.558582494207558E-014
   54.6250000000000         2.883608057457816E-014
   54.8150000000000         4.253706944328863E-014
   55.0050000000000         5.544740030525156E-014
   55.1950000000000         6.488094384602074E-014
   55.3850000000000         7.572022219086364E-014
   55.5750000000000         8.215838322170174E-014
   55.7650000000000         8.878733929707624E-014
   55.9550000000000         9.628529893716783E-014
   56.1450000000000         1.050903485405558E-013
   56.3350000000000         1.110088196532139E-013
   56.5250000000000         1.113717814238308E-013
   56.7150000000000         1.082047389851106E-013
   56.9050000000000         1.027372533558845E-013
   57.0950000000000         9.652914410876834E-014
   57.2850000000000         9.166802019822525E-014
   57.4750000000000         8.627680147891701E-014
   57.6650000000000         8.028633627372960E-014
   57.8550000000000         7.562354431403370E-014
   58.0450000000000         7.302854831053303E-014
   58.2350000000000         7.059340387668647E-014
   58.4250000000000         6.813573932065372E-014
   58.6150000000000         6.646495919303501E-014
   58.8050000000000         6.542903619004448E-014
   58.9950000000000         6.474228486536494E-014
   59.1850000000000         6.458117770482337E-014
   59.3750000000000         6.460491281726463E-014
   59.5650000000000         6.459774062822410E-014
   59.7550000000000         6.442897402932203E-014
   59.9450000000000         6.410457729106118E-014
   60.1350000000000         6.368954473746128E-014
   60.3250000000000         6.306796399823128E-014
   60.5150000000000         6.154966301214589E-014
   60.7050000000000         5.882686047913058E-014
   60.8950000000000         5.459233550135147E-014
   61.0850000000000         5.035255264067323E-014
   61.2750000000000         4.636068111442013E-014
   61.4650000000000         4.247685903073014E-014
   61.6550000000000         3.873011902723419E-014
   61.8450000000000         3.473819907280806E-014
   62.0350000000000         3.077968499105075E-014
   62.2250000000000         2.739220300307146E-014
   62.4150000000000         2.349949436716494E-014
   62.6050000000000         1.991126634902260E-014
   62.7950000000000         1.841443887419887E-014
   62.9850000000000         1.654531013353845E-014
   63.1750000000000         1.424895256015161E-014
   63.3650000000000         1.134066037427218E-014
   63.5550000000000         7.375937835918054E-015
   63.7450000000000         2.866545321213685E-015
   63.9350000000000        -7.628907848789908E-016
   64.1250000000000        -3.103898675274074E-015
   64.3150000000000        -3.818497474112258E-015
   64.5050000000000        -2.941562517245394E-015
   64.6950000000000         2.406598684207220E-016
   64.8850000000000         3.673377386228647E-015
   65.0750000000000         8.714762370126657E-015
   65.2650000000000         1.576351766598062E-014
   65.4550000000000         2.313975707199340E-014
   65.6450000000000         3.105409881143775E-014
   65.8350000000000         3.963934268214464E-014
   66.0250000000000         4.718559881806600E-014
   66.2150000000000         5.381884649397053E-014
   66.4050000000000         6.033761149929371E-014
   66.5950000000000         6.238216330967891E-014
   66.7850000000000         6.746648003180932E-014
   66.9750000000000         7.017980849669104E-014
   67.1650000000000         7.356570123753952E-014
   67.3550000000000         7.758572439172376E-014
   67.5450000000000         8.238728376700974E-014
   67.7350000000000         8.751407444723960E-014
   67.9250000000000         9.170412397743873E-014
   68.1150000000000         9.348790499943724E-014
   68.3050000000000         9.259600623760442E-014
   68.4950000000000         8.926768774267228E-014
   68.6850000000000         8.483762645560815E-014
   68.8750000000000         8.020640963959580E-014
   69.0650000000000         7.592979426215009E-014
   69.2550000000000         7.228289421525693E-014
   69.4450000000000         6.961735689866690E-014
   69.6350000000000         6.808594969700417E-014
   69.8250000000000         6.748492535888397E-014
   70.0150000000000         6.698677628109852E-014
   70.2050000000000         6.672629134308437E-014
   70.3950000000000         6.669802668279546E-014
   70.5850000000000         6.676906035800690E-014
   70.7750000000000         6.684944600160575E-014
   70.9650000000000         6.650386980133889E-014
   71.1550000000000         6.530831037949415E-014
   71.3450000000000         6.383853757375743E-014
   71.5350000000000         6.109634273695178E-014
   71.7250000000000         6.015621167813503E-014
   71.9150000000000         5.743597238693005E-014
   72.1050000000000         5.688480511997850E-014
   72.2950000000000         5.618059197041786E-014
   72.4850000000000         5.567963629225795E-014
   72.6750000000000         5.550807606320089E-014
   72.8650000000000         5.377720836775708E-014
   73.0550000000000         5.102895197621950E-014
   73.2450000000000         4.643823782169948E-014
   73.4350000000000         3.828785331827460E-014
   73.6250000000000         2.723811187570012E-014
   73.8150000000000         1.664604112003371E-014
   74.0050000000000         7.987352805857178E-015
   74.1950000000000         3.317201410022750E-015
   74.3850000000000         1.389358782321971E-015
   74.5750000000000         2.091386012761528E-015
   74.7650000000000         4.744411452677092E-015
   74.9550000000000         8.554122881112805E-015
   75.1450000000000         1.307196130621808E-014
   75.3350000000000         1.497097820262802E-014
   75.5250000000000         2.047687410105645E-014
   75.7150000000000         2.195906969754416E-014
   75.9050000000000         2.433849344369875E-014
   76.0950000000000         2.822729945165165E-014
   76.2850000000000         3.511575895066288E-014
   76.4750000000000         4.488696743979785E-014
   76.6650000000000         5.389339199682414E-014
   76.8550000000000         5.898128756790073E-014
   77.0450000000000         6.410680720350534E-014
   77.2350000000000         7.187708869760626E-014
   77.4250000000000         8.222328652306373E-014
   77.6150000000000         9.210626225683620E-014
   77.8050000000000         9.730983522552543E-014
   77.9950000000000         9.839665925368008E-014
   78.1850000000000         9.654857767046476E-014
   78.3750000000000         9.276012453747959E-014
   78.5650000000000         8.871367593564253E-014
   78.7550000000000         8.433500772707332E-014
   78.9450000000000         8.243582080703054E-014
   79.1350000000000         7.947091348457283E-014
   79.3250000000000         7.793790961524845E-014
   79.5150000000000         7.558705116721216E-014
   79.7050000000000         7.148600037408285E-014
   79.8950000000000         6.461634613963033E-014
   80.0850000000000         5.598820232659311E-014
   80.2750000000000         4.865033957940279E-014
   80.4650000000000         4.358977084565963E-014
   80.6550000000000         4.027802243866236E-014
   80.8450000000000         3.762811353724242E-014
   81.0350000000000         3.525588362146962E-014
   81.2250000000000         3.307344745356755E-014
   81.4150000000000         3.126045542572988E-014
   81.6050000000000         2.927258277446282E-014
   81.7950000000000         2.792609623972351E-014
   81.9850000000000         2.649876447608198E-014
   82.1750000000000         2.542185385456513E-014
   82.3650000000000         2.402003589267529E-014
   82.5550000000000         2.148978090633126E-014
   82.7450000000000         1.801760920406599E-014
   82.9350000000000         1.492153804208585E-014
   83.1250000000000         1.283880915189072E-014
   83.3150000000000         1.163773686524179E-014
   83.5050000000000         1.110177003298723E-014
   83.6950000000000         1.115348669762145E-014
   83.8850000000000         1.114854817139699E-014
   84.0750000000000         1.112606344091833E-014
   84.2650000000000         1.096968242780457E-014
   84.4550000000000         1.052229864531223E-014
   84.6450000000000         1.007986100624109E-014
   84.8350000000000         9.852500662522867E-015
   85.0250000000000         1.048295859578921E-014
   85.2150000000000         1.257378079989254E-014
   85.4050000000000         1.682006481957836E-014
   85.5950000000000         2.337820345101770E-014
   85.7850000000000         3.029334066476930E-014
   85.9750000000000         3.588585967387522E-014
   86.1650000000000         4.015233527233344E-014
   86.3550000000000         4.336713782442289E-014
   86.5450000000000         4.641482382362261E-014
   86.7350000000000         4.970955222787886E-014
   86.9250000000000         5.336622976660722E-014
   87.1150000000000         5.729981976610173E-014
   87.3050000000000         6.187622681792183E-014
   87.4950000000000         6.708766492894732E-014
   87.6850000000000         7.230494706039887E-014
   87.8750000000000         7.606313218195667E-014
   88.0650000000000         7.959750433931960E-014
   88.2550000000000         8.160627280197807E-014
   88.4450000000000         8.341056860114175E-014
   88.6350000000000         8.479910596599657E-014
   88.8250000000000         8.672270643940539E-014
   89.0150000000000         8.871361378574735E-014
   89.2050000000000         8.976414583824932E-014
   89.3950000000000         8.714472018929208E-014
   89.5850000000000         8.043093900159377E-014
   89.7750000000000         7.317462832223461E-014
   89.9650000000000         6.617900825031601E-014
   90.1550000000000         5.867872149096561E-014
   90.3450000000000         5.196245990894922E-014
   90.5350000000000         4.554770778292511E-014
   90.7250000000000         4.002126633748384E-014
   90.9150000000000         3.560737514845090E-014
   91.1050000000000         3.261641898519700E-014
   91.2950000000000         3.094603070119422E-014
   91.4850000000000         3.038414910331736E-014
   91.6750000000000         3.104925970154067E-014
   91.8650000000000         3.263922243306395E-014
   92.0550000000000         3.448766333617257E-014
   92.2450000000000         3.568675082615127E-014
   92.4350000000000         3.644347376925804E-014
   92.6250000000000         3.717876689772889E-014
   92.8150000000000         3.754477820877675E-014
   93.0050000000000         3.801313764675183E-014
   93.1950000000000         3.839177203119480E-014
   93.3850000000000         3.733999106943669E-014
   93.5750000000000         3.305184779908550E-014
   93.7650000000000         2.618425388029592E-014
   93.9550000000000         1.884671515913196E-014
   94.1450000000000         1.136917448600867E-014
   94.3350000000000         4.154059446841319E-015
   94.5250000000000        -2.536560844641123E-015
   94.7150000000000        -7.937778646168841E-015
   94.9050000000000        -1.247593052210950E-014
   95.0950000000000        -1.488492113273108E-014
   95.2850000000000        -1.654220223564310E-014
   95.4750000000000        -1.669216538514560E-014
   95.6650000000000        -1.576437001733869E-014
   95.8550000000000        -1.463061332802699E-014
   96.0450000000000        -1.273893590903194E-014
   96.2350000000000        -9.659236898504598E-015
   96.4250000000000        -5.072231842381787E-015
   96.6150000000000         2.021621135829529E-015
   96.8050000000000         1.165856353546100E-014
   96.9950000000000         2.210149048890911E-014
   97.1850000000000         3.149198333209414E-014
   97.3750000000000         3.708045807823422E-014
   97.5650000000000         4.370924813372677E-014
   97.7550000000000         5.000403543968230E-014
   97.9450000000000         5.653564330502375E-014
   98.1350000000000         6.315871224091458E-014
   98.3250000000000         6.855495294842596E-014
   98.5150000000000         7.203395206844399E-014
   98.7050000000000         7.344423468532038E-014
   98.8950000000000         7.310764362900328E-014
   99.0850000000000         7.145748152326267E-014
   99.2750000000000         6.823253755438166E-014
   99.4650000000000         6.225393960262134E-014
   99.6550000000000         5.569001435245784E-014
   99.8450000000000         4.868541829092262E-014
   100.035000000000         4.184761248522716E-014
   100.225000000000         3.534208725202151E-014
   100.415000000000         2.950020983609316E-014
   100.605000000000         2.432801179698583E-014
   100.795000000000         2.054495477167185E-014
   100.985000000000         1.761932708447747E-014
   101.175000000000         1.699911932161904E-014
   101.365000000000         1.610109991954239E-014
   101.555000000000         1.647578745484533E-014
   101.745000000000         1.665878344250859E-014
   101.935000000000         1.645427128951500E-014
   102.125000000000         1.637404031376665E-014
   102.315000000000         1.732853811066820E-014
   102.505000000000         1.853641688357794E-014
   102.695000000000         1.948896629296420E-014
   102.885000000000         1.978836899088356E-014
   103.075000000000         1.974304666204021E-014
   103.265000000000         1.954980541201344E-014
   103.455000000000         1.912919777457123E-014
   103.645000000000         1.896074504458982E-014
   103.835000000000         1.883584447330603E-014
   104.025000000000         1.869017431849366E-014
   104.215000000000         1.900929542470894E-014
   104.405000000000         1.896073351068841E-014
   104.595000000000         1.818341965600332E-014
   104.785000000000         1.610849559132830E-014
   104.975000000000         1.209550034903721E-014
   105.165000000000         6.695695610578662E-015
   105.355000000000         1.292062635899994E-015
   105.545000000000        -3.447341086486911E-015
   105.735000000000        -7.091062824203991E-015
   105.925000000000        -9.075878614735702E-015
   106.115000000000        -9.462752471307104E-015
   106.305000000000        -9.070524246077452E-015
   106.495000000000        -7.882511535767806E-015
   106.685000000000        -6.285190005322941E-015
   106.875000000000        -5.216196807141394E-015
   107.065000000000        -3.596068241258059E-015
   107.255000000000        -1.618830008414839E-015
   107.445000000000         8.275783193612400E-016
   107.635000000000         3.843365289202780E-015
   107.825000000000         7.073160786020510E-015
   108.015000000000         1.025942369110758E-014
   108.205000000000         1.400577657568564E-014
   108.395000000000         2.006033182392111E-014
   108.585000000000         2.872178663661980E-014
   108.775000000000         3.715996491637036E-014
   108.965000000000         4.612802333216543E-014
   109.155000000000         4.858723067260210E-014
   109.345000000000         5.515155990231986E-014
   109.535000000000         5.701731703606686E-014
   109.725000000000         5.920518237457128E-014
   109.915000000000         6.134643550507859E-014
   110.105000000000         6.375473140670031E-014