  -1.42500000000000         5.194213888400456E-022
  -1.23500000000000         4.778088429367650E-019
  -1.04500000000000         4.500726501580283E-018
 -0.855000000000000         2.529983944699888E-017
 -0.665000000000000         1.089493164557983E-016
 -0.475000000000000         4.079800061830622E-016
 -0.285000000000000         1.392192711418065E-015
 -9.499999999999975E-002    4.124413775980091E-015
  9.500000000000020E-002    1.013282845607149E-014
  0.285000000000000         2.247670352714761E-014
  0.475000000000000         4.153444949627256E-014
  0.665000000000000         6.865506794618183E-014
  0.855000000000000         1.039311987887867E-013
   1.04500000000000         1.467069217913529E-013
   1.23500000000000         2.052591478264902E-013
   1.42500000000000         2.846811623256880E-013
   1.61500000000000         3.844723561346009E-013
   1.80500000000000         5.008139984099348E-013
   1.99500000000000         6.307297025463674E-013
   2.18500000000000         7.740736532947420E-013
   2.37500000000000         9.295088263668922E-013
   2.56500000000000         1.096861395983545E-012
   2.75500000000000         1.269854020804577E-012
   2.94500000000000         1.446115533233381E-012
   3.13500000000000         1.627994820183281E-012
   3.32500000000000         1.814464263634390E-012
   3.51500000000000         2.005199651543957E-012
   3.70500000000000         2.198444968209459E-012
   3.89500000000000         2.392920385069796E-012
   4.08500000000000         2.587779391509820E-012
   4.27500000000000         2.782057277481589E-012
   4.46500000000000         2.974355323058138E-012
   4.65500000000000         3.162626180116461E-012
   4.84500000000000         3.345680082891177E-012
   5.03500000000000         3.524044168351828E-012
   5.22500000000000         3.699274249136605E-012
   5.41500000000000         3.870699779466221E-012
   5.60500000000000         4.035634394421110E-012
   5.79500000000000         4.187213584832431E-012
   5.98500000000000         4.320695561056801E-012
   6.17500000000000         4.436439972355639E-012
   6.36500000000000         4.537345115901202E-012
   6.55500000000000         4.625983996162119E-012
   6.74500000000000         4.702490989836654E-012
   6.93500000000000         4.771133789108419E-012
   7.12500000000000         4.836651414323653E-012
   7.31500000000000         4.901042729074764E-012
   7.50500000000000         4.963757588912024E-012
   7.69500000000000         5.026873670656400E-012
   7.88500000000000         5.093647454395395E-012
   8.07500000000000         5.167360457949384E-012
   8.26500000000000         5.250595061666016E-012
   8.45500000000000         5.342041382699257E-012
   8.64500000000000         5.442999668472488E-012
   8.83500000000000         5.551127017920141E-012
   9.02500000000000         5.665419109493232E-012
   9.21500000000000         5.786622509301402E-012
   9.40500000000000         5.903986576648144E-012
   9.59500000000000         6.018735850162904E-012
   9.78500000000000         6.138585817680564E-012
   9.97500000000000         6.259551833463910E-012
   10.1650000000000         6.381104851260266E-012
   10.3550000000000         6.503501075851372E-012
   10.5450000000000         6.626286640458828E-012
   10.7350000000000         6.750168942093019E-012
   10.9250000000000         6.875159600274406E-012
   11.1150000000000         7.001946681103201E-012
   11.3050000000000         7.130909260971350E-012
   11.4950000000000         7.262732682867459E-012
   11.6850000000000         7.398060632626735E-012
   11.8750000000000         7.537349196353341E-012
   12.0650000000000         7.680852575807633E-012
   12.2550000000000         7.828135261237253E-012
   12.4450000000000         7.978238551532495E-012
   12.6350000000000         8.128632132031019E-012
   12.8250000000000         8.276834376200145E-012
   13.0150000000000         8.419925057067267E-012
   13.2050000000000         8.555068470986080E-012
   13.3950000000000         8.677654792783409E-012
   13.5850000000000         8.780460097213705E-012
   13.7750000000000         8.865778593983751E-012
   13.9650000000000         8.943570807263912E-012
   14.1550000000000         9.016821912275438E-012
   14.3450000000000         9.083990751459546E-012
   14.5350000000000         9.147000149429571E-012
   14.7250000000000         9.208775564155830E-012
   14.9150000000000         9.272847713927073E-012
   15.1050000000000         9.345184788042571E-012
   15.2950000000000         9.429366779629514E-012
   15.4850000000000         9.525107105243467E-012
   15.6750000000000         9.632790933707778E-012
   15.8650000000000         9.752185624607048E-012
   16.0550000000000         9.879595449503704E-012
   16.2450000000000         1.001580132272048E-011
   16.4350000000000         1.015910840908262E-011
   16.6250000000000         1.030314505416091E-011
   16.8150000000000         1.044863702146830E-011
   17.0050000000000         1.059876565981642E-011
   17.1950000000000         1.075396702794957E-011
   17.3850000000000         1.091332198292530E-011
   17.5750000000000         1.107696821601870E-011
   17.7650000000000         1.124441191581253E-011
   17.9550000000000         1.141495871372024E-011
   18.1450000000000         1.158827695554536E-011
   18.3350000000000         1.176381770371724E-011
   18.5250000000000         1.194082717836439E-011
   18.7150000000000         1.211735238313131E-011
   18.9050000000000         1.228975235912241E-011
   19.0950000000000         1.245575220375318E-011
   19.2850000000000         1.261475156216136E-011
   19.4750000000000         1.276388086059384E-011
   19.6650000000000         1.289801343167652E-011
   19.8550000000000         1.300943532461411E-011
   20.0450000000000         1.309963072381901E-011
   20.2350000000000         1.317683193559612E-011
   20.4250000000000         1.324354677398163E-011
   20.6150000000000         1.330013293265970E-011
   20.8050000000000         1.334776730936935E-011
   20.9950000000000         1.338925644707757E-011
   21.1850000000000         1.342929875140982E-011
   21.3750000000000         1.346613993540754E-011
   21.5650000000000         1.349983876831296E-011
   21.7550000000000         1.353495485283032E-011
   21.9450000000000         1.357016014511874E-011
   22.1350000000000         1.360730967712017E-011
   22.3250000000000         1.365100246595254E-011
   22.5150000000000         1.370285541997132E-011
   22.7050000000000         1.376222884810130E-011
   22.8950000000000         1.383023836819755E-011
   23.0850000000000         1.391165377483235E-011
   23.2750000000000         1.400624846778082E-011
   23.4650000000000         1.411101312684041E-011
   23.6550000000000         1.423114002967626E-011
   23.8450000000000         1.436870798261664E-011
   24.0350000000000         1.452271597625112E-011
   24.2250000000000         1.469065994861321E-011
   24.4150000000000         1.486760740621763E-011
   24.6050000000000         1.505692465546796E-011
   24.7950000000000         1.525645848049028E-011
   24.9850000000000         1.545733434681274E-011
   25.1750000000000         1.565979691718588E-011
   25.3650000000000         1.586358101032975E-011
   25.5550000000000         1.606583886799878E-011
   25.7450000000000         1.626159767446515E-011
   25.9350000000000         1.644913853963060E-011
   26.1250000000000         1.663644486491964E-011
   26.3150000000000         1.682332641304910E-011
   26.5050000000000         1.700496861634162E-011
   26.6950000000000         1.718162313772578E-011
   26.8850000000000         1.735318999014898E-011
   27.0750000000000         1.751922397786323E-011
   27.2650000000000         1.767845967352626E-011
   27.4550000000000         1.783159442806707E-011
   27.6450000000000         1.797930387622821E-011
   27.8350000000000         1.812095609975888E-011
   28.0250000000000         1.825179110946207E-011
   28.2150000000000         1.837388917326685E-011
   28.4050000000000         1.848351607779229E-011
   28.5950000000000         1.856931602527750E-011
   28.7850000000000         1.863728594296493E-011
   28.9750000000000         1.869948901398699E-011
   29.1650000000000         1.874540713041784E-011
   29.3550000000000         1.876745047343682E-011
   29.5450000000000         1.877388001016116E-011
   29.7350000000000         1.876748070323676E-011
   29.9250000000000         1.875323295300561E-011
   30.1150000000000         1.873328354126525E-011
   30.3050000000000         1.871056359346476E-011
   30.4950000000000         1.869146410225814E-011
   30.6850000000000         1.867490119650929E-011
   30.8750000000000         1.866610379741460E-011
   31.0650000000000         1.867275459162676E-011
   31.2550000000000         1.870729264681495E-011
   31.4450000000000         1.877458902453790E-011
   31.6350000000000         1.886597964157244E-011
   31.8250000000000         1.897723337548487E-011
   32.0150000000000         1.910619637429763E-011
   32.2050000000000         1.925211393268067E-011
   32.3950000000000         1.942441602251981E-011
   32.5850000000000         1.962676889817450E-011
   32.7750000000000         1.984191993207972E-011
   32.9650000000000         2.005749132721951E-011
   33.1550000000000         2.027445304311766E-011
   33.3450000000000         2.049738206234561E-011
   33.5350000000000         2.072377195358096E-011
   33.7250000000000         2.094913744420261E-011
   33.9150000000000         2.116554868908320E-011
   34.1050000000000         2.136346460747670E-011
   34.2950000000000         2.154420225478357E-011
   34.4850000000000         2.172138581407818E-011
   34.6750000000000         2.189554416811013E-011
   34.8650000000000         2.205678445875504E-011
   35.0550000000000         2.220429351809381E-011
   35.2450000000000         2.233485974068000E-011
   35.4350000000000         2.245445459723481E-011
   35.6250000000000         2.257299079642474E-011
   35.8150000000000         2.268852851882442E-011
   36.0050000000000         2.279882877296889E-011
   36.1950000000000         2.290035289039729E-011
   36.3850000000000         2.299724284826407E-011
   36.5750000000000         2.309175809368983E-011
   36.7650000000000         2.318191792697981E-011
   36.9550000000000         2.326985620397675E-011
   37.1450000000000         2.335383527472605E-011
   37.3350000000000         2.342999380364534E-011
   37.5250000000000         2.349655713619459E-011
   37.7150000000000         2.355485185337728E-011
   37.9050000000000         2.360931840925355E-011
   38.0950000000000         2.366521960517867E-011
   38.2850000000000         2.372979554517934E-011
   38.4750000000000         2.380471718326963E-011
   38.6650000000000         2.388934452406845E-011
   38.8550000000000         2.399379913541910E-011
   39.0450000000000         2.412112078295512E-011
   39.2350000000000         2.426771104229938E-011
   39.4250000000000         2.442438769990127E-011
   39.6150000000000         2.458854335658298E-011
   39.8050000000000         2.476627773659830E-011
   39.9950000000000         2.495171031250816E-011
   40.1850000000000         2.513893278813206E-011
   40.3750000000000         2.532849819873501E-011
   40.5650000000000         2.552216738595685E-011
   40.7550000000000         2.571751672729314E-011
   40.9450000000000         2.590807988617807E-011
   41.1350000000000         2.608615938119692E-011
   41.3250000000000         2.625038417780994E-011
   41.5150000000000         2.641002262833801E-011
   41.7050000000000         2.656990335387307E-011
   41.8950000000000         2.672768763046406E-011
   42.0850000000000         2.688078870698467E-011
   42.2750000000000         2.702606372638237E-011
   42.4650000000000         2.716500036441727E-011
   42.6550000000000         2.730086159218731E-011
   42.8450000000000         2.743503008890832E-011
   43.0350000000000         2.756555926223545E-011
   43.2250000000000         2.768870378523211E-011
   43.4150000000000         2.779821523891598E-011
   43.6050000000000         2.789686791006626E-011
   43.7950000000000         2.799047006254226E-011
   43.9850000000000         2.807780293294060E-011
   44.1750000000000         2.815838342616518E-011
   44.3650000000000         2.823042172899370E-011
   44.5550000000000         2.829998257160401E-011
   44.7450000000000         2.837984322169032E-011
   44.9350000000000         2.847004667314236E-011
   45.1250000000000         2.857415737382086E-011
   45.3150000000000         2.869599866277207E-011
   45.5050000000000         2.882971437171152E-011
   45.6950000000000         2.897148484698403E-011
   45.8850000000000         2.912730844857640E-011
   46.0750000000000         2.930042826421365E-011
   46.2650000000000         2.948065022184521E-011
   46.4550000000000         2.966703249412230E-011
   46.6450000000000         2.985923486412738E-011
   46.8350000000000         3.004440480735565E-011
   47.0250000000000         3.021576371042053E-011
   47.2150000000000         3.037895762217160E-011
   47.4050000000000         3.053603255763939E-011
   47.5950000000000         3.068656428604255E-011
   47.7850000000000         3.082399996581463E-011
   47.9750000000000         3.094047581961901E-011
   48.1650000000000         3.103396481714954E-011
   48.3550000000000         3.110798065784294E-011
   48.5450000000000         3.117466077790401E-011
   48.7350000000000         3.124254787889188E-011
   48.9250000000000         3.131021789202430E-011
   49.1150000000000         3.137191910157273E-011
   49.3050000000000         3.142328836560680E-011
   49.4950000000000         3.147234501284139E-011
   49.6850000000000         3.153064856635076E-011
   49.8750000000000         3.159185122242832E-011
   50.0650000000000         3.164696947053049E-011
   50.2550000000000         3.169699937397871E-011
   50.4450000000000         3.174828534069209E-011
   50.6350000000000         3.180500185699515E-011
   50.8250000000000         3.186717121738633E-011
   51.0150000000000         3.193421378925847E-011
   51.2050000000000         3.200403128103130E-011
   51.3950000000000         3.207927753626678E-011
   51.5850000000000         3.216188395301195E-011
   51.7750000000000         3.224535176899351E-011
   51.9650000000000         3.233434988147251E-011
   52.1550000000000         3.243858985618508E-011
   52.3450000000000         3.255620078314176E-011
   52.5350000000000         3.268859860445661E-011
   52.7250000000000         3.283277989298538E-011
   52.9150000000000         3.298796646731246E-011
   53.1050000000000         3.316244901374855E-011
   53.2950000000000         3.335297636685792E-011
   53.4850000000000         3.355264343142655E-011
   53.6750000000000         3.375889243881443E-011
   53.8650000000000         3.396964810768183E-011
   54.0550000000000         3.418670637167076E-011
   54.2450000000000         3.441113041632847E-011
   54.4350000000000         3.464279988625934E-011
   54.6250000000000         3.488017488219480E-011
   54.8150000000000         3.511924747939164E-011
   55.0050000000000         3.535747358499623E-011
   55.1950000000000         3.559418969217922E-011
   55.3850000000000         3.583042455148609E-011
   55.5750000000000         3.606989577205725E-011
   55.7650000000000         3.631098117073136E-011
   55.9550000000000         3.654298209585835E-011
   56.1450000000000         3.675342384652486E-011
   56.3350000000000         3.693588898550229E-011
   56.5250000000000         3.710121559253765E-011
   56.7150000000000         3.725269100958369E-011
   56.9050000000000         3.738087872847832E-011
   57.0950000000000         3.747849978250025E-011
   57.2850000000000         3.755127982370219E-011
   57.4750000000000         3.760668200338991E-011
   57.6650000000000         3.764529471772867E-011
   57.8550000000000         3.767999170694167E-011
   58.0450000000000         3.771710083013988E-011
   58.2350000000000         3.774952452009896E-011
   58.4250000000000         3.777293816157230E-011
   58.6150000000000         3.778943558514289E-011
   58.8050000000000         3.780368433731399E-011
   58.9950000000000         3.782103428194000E-011
   59.1850000000000         3.784390639795500E-011
   59.3750000000000         3.787037845577939E-011
   59.5650000000000         3.789661678417294E-011
   59.7550000000000         3.792075164014020E-011
   59.9450000000000         3.794419529484373E-011
   60.1350000000000         3.797018610380572E-011
   60.3250000000000         3.800149999121315E-011
   60.5150000000000         3.803856253673100E-011
   60.7050000000000         3.808273730091978E-011
   60.8950000000000         3.813409562869247E-011
   61.0850000000000         3.819325420837158E-011
   61.2750000000000         3.826153885785722E-011
   61.4650000000000         3.833835962996661E-011
   61.6550000000000         3.843224136301386E-011
   61.8450000000000         3.855051050036029E-011
   62.0350000000000         3.869024083909886E-011
   62.2250000000000         3.884334393984162E-011
   62.4150000000000         3.900956812206809E-011
   62.6050000000000         3.918584113945339E-011
   62.7950000000000         3.936751368076438E-011
   62.9850000000000         3.955563421020626E-011
   63.1750000000000         3.974721085220567E-011
   63.3650000000000         3.994162118406418E-011
   63.5550000000000         4.013798809537547E-011
   63.7450000000000         4.033284884770230E-011
   63.9350000000000         4.052503815589952E-011
   64.1250000000000         4.071099591653585E-011
   64.3150000000000         4.088546790222051E-011
   64.5050000000000         4.104756094887629E-011
   64.6950000000000         4.119431946589441E-011
   64.8850000000000         4.133322310513920E-011
   65.0750000000000         4.146827213038954E-011
   65.2650000000000         4.159304861632750E-011
   65.4550000000000         4.170436716955702E-011
   65.6450000000000         4.180185242791224E-011
   65.8350000000000         4.188799129108714E-011
   66.0250000000000         4.196890895008438E-011
   66.2150000000000         4.204800914137090E-011
   66.4050000000000         4.211986467922172E-011
   66.5950000000000         4.218163465838696E-011
   66.7850000000000         4.223492081541833E-011
   66.9750000000000         4.228272343497016E-011
   67.1650000000000         4.232954000699494E-011
   67.3550000000000         4.237868897408979E-011
   67.5450000000000         4.243104657816338E-011
   67.7350000000000         4.248587514784655E-011
   67.9250000000000         4.254490949132652E-011
   68.1150000000000         4.261270676524033E-011
   68.3050000000000         4.269666576664003E-011
   68.4950000000000         4.280077936093859E-011
   68.6850000000000         4.292093108236042E-011
   68.8750000000000         4.305333111476482E-011
   69.0650000000000         4.319634028293413E-011
   69.2550000000000         4.334922204604962E-011
   69.4450000000000         4.351124259897765E-011
   69.6350000000000         4.368090707636012E-011
   69.8250000000000         4.385327610975325E-011
   70.0150000000000         4.402588696727393E-011
   70.2050000000000         4.419858714337694E-011
   70.3950000000000         4.436893351612885E-011
   70.5850000000000         4.453814880847765E-011
   70.7750000000000         4.470840387174158E-011
   70.9650000000000         4.488039254858474E-011
   71.1550000000000         4.505286286742496E-011
   71.3450000000000         4.522465280658803E-011
   71.5350000000000         4.539555536885207E-011
   71.7250000000000         4.556826279922194E-011
   71.9150000000000         4.574433368643320E-011
   72.1050000000000         4.592461563963181E-011
   72.2950000000000         4.610862709298700E-011
   72.4850000000000         4.629220014591956E-011
   72.6750000000000         4.647515041861211E-011
   72.8650000000000         4.665962543931869E-011
   73.0550000000000         4.684808382169845E-011
   73.2450000000000         4.704136126874010E-011
   73.4350000000000         4.723646226579929E-011
   73.6250000000000         4.742877801073689E-011
   73.8150000000000         4.761397077065719E-011
   74.0050000000000         4.779270833337683E-011
   74.1950000000000         4.796885730322741E-011
   74.3850000000000         4.814243672854273E-011
   74.5750000000000         4.830965747418078E-011
   74.7650000000000         4.846663015658349E-011
   74.9550000000000         4.861247819273771E-011
   75.1450000000000         4.874801638645532E-011
   75.3350000000000         4.887963018110228E-011
   75.5250000000000         4.900793613047532E-011
   75.7150000000000         4.913241399400982E-011
   75.9050000000000         4.925506501696571E-011
   76.0950000000000         4.937271663404253E-011
   76.2850000000000         4.948669855498514E-011
   76.4750000000000         4.960111861625921E-011
   76.6650000000000         4.971822639537230E-011
   76.8550000000000         4.983780343733909E-011
   77.0450000000000         4.995678474655228E-011
   77.2350000000000         5.006941258196848E-011
   77.4250000000000         5.017016894972768E-011
   77.6150000000000         5.025972085877780E-011
   77.8050000000000         5.034266699440861E-011
   77.9950000000000         5.041977521803478E-011
   78.1850000000000         5.048808290536091E-011
   78.3750000000000         5.054675450364249E-011
   78.5650000000000         5.059857311072278E-011
   78.7550000000000         5.064587117479609E-011
   78.9450000000000         5.069493428664296E-011
   79.1350000000000         5.074674767003201E-011
   79.3250000000000         5.079581368531052E-011
   79.5150000000000         5.084006867670311E-011
   79.7050000000000         5.087935082489882E-011
   79.8950000000000         5.092139034818004E-011
   80.0850000000000         5.097706900181511E-011
   80.2750000000000         5.105024573699217E-011
   80.4650000000000         5.112882373014680E-011
   80.6550000000000         5.121248932854505E-011
   80.8450000000000         5.131231884125991E-011
   81.0350000000000         5.142838531806109E-011
   81.2250000000000         5.155640674309751E-011
   81.4150000000000         5.170531263531338E-011
   81.6050000000000         5.187809978407785E-011
   81.7950000000000         5.206602685095505E-011
   81.9850000000000         5.226189462093699E-011
   82.1750000000000         5.245781945578829E-011
   82.3650000000000         5.265989202840297E-011
   82.5550000000000         5.287059472053829E-011
   82.7450000000000         5.308080811857326E-011
   82.9350000000000         5.328589382688389E-011
   83.1250000000000         5.348731590849767E-011
   83.3150000000000         5.368530965209490E-011
   83.5050000000000         5.388315799040830E-011
   83.6950000000000         5.408603569733735E-011
   83.8850000000000         5.429366692682151E-011
   84.0750000000000         5.450436566201527E-011
   84.2650000000000         5.471774511076145E-011
   84.4550000000000         5.493172934088659E-011
   84.6450000000000         5.514687606045132E-011
   84.8350000000000         5.536426403478300E-011
   85.0250000000000         5.558261501614690E-011
   85.2150000000000         5.579705253927749E-011
   85.4050000000000         5.600274892310341E-011
   85.5950000000000         5.619353209680608E-011
   85.7850000000000         5.636955597695030E-011
   85.9750000000000         5.653458396126112E-011
   86.1650000000000         5.668775017745784E-011
   86.3550000000000         5.682732669885226E-011
   86.5450000000000         5.695054369318656E-011
   86.7350000000000         5.705642525391935E-011
   86.9250000000000         5.714681598176135E-011
   87.1150000000000         5.722752444882264E-011
   87.3050000000000         5.729953334566203E-011
   87.4950000000000         5.735794314121786E-011
   87.6850000000000         5.740294499838722E-011
   87.8750000000000         5.744201957693402E-011
   88.0650000000000         5.747805452055788E-011
   88.2550000000000         5.751084681000035E-011
   88.4450000000000         5.754464631308617E-011
   88.6350000000000         5.758148454709203E-011
   88.8250000000000         5.762176451261576E-011
   89.0150000000000         5.766716572828343E-011
   89.2050000000000         5.772574753639078E-011
   89.3950000000000         5.779736565491891E-011
   89.5850000000000         5.788393001830101E-011
   89.7750000000000         5.798717285461928E-011
   89.9650000000000         5.810325721068124E-011
   90.1550000000000         5.823284826431933E-011
   90.3450000000000         5.837082606332179E-011
   90.5350000000000         5.852002391010003E-011
   90.7250000000000         5.868541810322117E-011
   90.9150000000000         5.886670428338048E-011
   91.1050000000000         5.906292163964277E-011
   91.2950000000000         5.927203068089680E-011
   91.4850000000000         5.948872819053548E-011
   91.6750000000000         5.971059661587068E-011
   91.8650000000000         5.994057245895255E-011
   92.0550000000000         6.017935319014446E-011
   92.2450000000000         6.042211305796235E-011
   92.4350000000000         6.066377644973608E-011
   92.6250000000000         6.090303132911919E-011
   92.8150000000000         6.113864927172773E-011
   93.0050000000000         6.136932106411793E-011
   93.1950000000000         6.158947614973199E-011
   93.3850000000000         6.178614973795331E-011
   93.5750000000000         6.195745151315890E-011
   93.7650000000000         6.211895079643208E-011
   93.9550000000000         6.226950790769274E-011
   94.1450000000000         6.240648894850696E-011
   94.3350000000000         6.253916746788585E-011
   94.5250000000000         6.266199546688585E-011
   94.7150000000000         6.277111312671033E-011
   94.9050000000000         6.287233298282961E-011
   95.0950000000000         6.297027576940713E-011
   95.2850000000000         6.306500342258866E-011
   95.4750000000000         6.315777878608585E-011
   95.6650000000000         6.324314821148248E-011
   95.8550000000000         6.331811089728828E-011
   96.0450000000000         6.338625948926625E-011
   96.2350000000000         6.344383834791379E-011
   96.4250000000000         6.349110134485851E-011
   96.6150000000000         6.353055488958066E-011
   96.8050000000000         6.356350124803521E-011
   96.9950000000000         6.359244341557043E-011
   97.1850000000000         6.361947331099371E-011
   97.3750000000000         6.364437314012424E-011
   97.5650000000000         6.367218438700107E-011
   97.7550000000000         6.370964748364568E-011
   97.9450000000000         6.375977123723566E-011
   98.1350000000000         6.382904592960727E-011
   98.3250000000000         6.392139257665503E-011
   98.5150000000000         6.403506621070557E-011
   98.7050000000000         6.416888570185742E-011
   98.8950000000000         6.431943240381236E-011
   99.0850000000000         6.448242639215171E-011
   99.2750000000000         6.465614524981451E-011
   99.4650000000000         6.483529927755518E-011
   99.6550000000000         6.501439361457185E-011
   99.8450000000000         6.519344111109012E-011
   100.035000000000         6.537457845243678E-011
   100.225000000000         6.555820165763104E-011
   100.415000000000         6.574051723056311E-011
   100.605000000000         6.591622663728594E-011
   100.795000000000         6.608149359261293E-011
   100.985000000000         6.623574342281457E-011
   101.175000000000         6.638489665821568E-011
   101.365000000000         6.653253487877062E-011
   101.555000000000         6.667605125752023E-011
   101.745000000000         6.681473284855076E-011
   101.935000000000         6.694981602856063E-011
   102.125000000000         6.708851604453816E-011
   102.315000000000         6.723751841816909E-011
   102.505000000000         6.739437615050581E-011
   102.695000000000         6.755727736987730E-011
   102.885000000000         6.772265544031031E-011
   103.075000000000         6.788384759674331E-011
   103.265000000000         6.803976980353287E-011
   103.455000000000         6.819649041117182E-011
   103.645000000000         6.835050201736719E-011
   103.835000000000         6.849672742016387E-011
   104.025000000000         6.863523259565128E-011
   104.215000000000         6.876844463046005E-011
   104.405000000000         6.890183602639879E-011
   104.595000000000         6.903602871253952E-011
   104.785000000000         6.917315607788170E-011
   104.975000000000         6.931428650491010E-011
   105.165000000000         6.945739405421854E-011
   105.355000000000         6.959911268189428E-011
   105.545000000000         6.973840491559837E-011
   105.735000000000         6.987686258776964E-011
   105.925000000000         7.001499615128165E-011
   106.115000000000         7.015143337257213E-011
   106.305000000000         7.028329840086376E-011
   106.495000000000         7.040674160688164E-011
   106.685000000000         7.052013111804949E-011
   106.875000000000         7.062564918847815E-011
   107.065000000000         7.072722205394472E-011
   107.255000000000         7.082656568763717E-011
   107.445000000000         7.092341795446048E-011
   107.635000000000         7.101732106222479E-011
   107.825000000000         7.110928146018313E-011
   108.015000000000         7.120249269112116E-011
   108.205000000000         7.130011075435289E-011
   108.395000000000         7.140392620901675E-011
   108.585000000000         7.151361759976870E-011
   108.775000000000         7.162701503604253E-011
   108.965000000000         7.174222922388649E-011
   109.155000000000         7.185981853543835E-011
   109.345000000000         7.198130541533044E-011
   109.535000000000         7.210679357060337E-011
   109.725000000000         7.223405715583610E-011
   109.915000000000         7.236001462941647E-011
   110.105000000000         7.248410637253658E-011