  -1.42500000000000         5.467593566737272E-021
  -1.23500000000000         5.018631580621947E-018
  -1.04500000000000         3.732787008930982E-017
 -0.855000000000000         1.816101609150965E-016
 -0.665000000000000         6.989106497038443E-016
 -0.475000000000000         2.448780821109459E-015
 -0.285000000000000         7.911352918206358E-015
 -9.499999999999975E-002    2.084886881402550E-014
  9.500000000000020E-002    4.239760150272613E-014
  0.285000000000000         8.753792556123300E-014
  0.475000000000000         1.130699267453455E-013
  0.665000000000000         1.724102674642257E-013
  0.855000000000000         1.989174256158259E-013
   1.04500000000000         2.513533428322393E-013
   1.23500000000000         3.649858785902586E-013
   1.42500000000000         4.710353266644551E-013
   1.61500000000000         5.793982923767332E-013
   1.80500000000000         6.452505736794126E-013
   1.99500000000000         7.222831540725090E-013
   2.18500000000000         7.866005380156459E-013
   2.37500000000000         8.495591785333035E-013
   2.56500000000000         9.120468174314633E-013
   2.75500000000000         9.089281806846680E-013
   2.94500000000000         9.464561606711588E-013
   3.13500000000000         9.680626493277854E-013
   3.32500000000000         9.947735975259935E-013
   3.51500000000000         1.012967327837871E-012
   3.70500000000000         1.021193900220046E-012
   3.89500000000000         1.025915750941395E-012
   4.08500000000000         1.025231685269381E-012
   4.27500000000000         1.019798693380826E-012
   4.46500000000000         1.004391260056525E-012
   4.65500000000000         9.774072352942455E-013
   4.84500000000000         9.494759518080298E-013
   5.03500000000000         9.280407372514542E-013
   5.22500000000000         9.164864289040908E-013
   5.41500000000000         8.879928377234527E-013
   5.60500000000000         8.481610039069540E-013
   5.79500000000000         7.474094214753738E-013
   5.98500000000000         6.576640124653736E-013
   6.17500000000000         5.606982117329118E-013
   6.36500000000000         5.014611940098562E-013
   6.55500000000000         4.315796508419068E-013
   6.74500000000000         3.737571246795105E-013
   6.93500000000000         3.487986571285377E-013
   7.12500000000000         3.408605556634089E-013
   7.31500000000000         3.369427575061838E-013
   7.50500000000000         3.232136618334040E-013
   7.69500000000000         3.411661460021155E-013
   7.88500000000000         3.617157880925590E-013
   8.07500000000000         4.142105651073495E-013
   8.26500000000000         4.619431582255988E-013
   8.45500000000000         5.006496947559027E-013
   8.64500000000000         5.620691028570521E-013
   8.83500000000000         5.761135229077019E-013
   9.02500000000000         6.269611252301057E-013
   9.21500000000000         6.488641359085135E-013
   9.40500000000000         5.865470993203538E-013
   9.59500000000000         6.213399903087156E-013
   9.78500000000000         6.402386151403196E-013
   9.97500000000000         6.330878667896603E-013
   10.1650000000000         6.464175836982907E-013
   10.3550000000000         6.419637277870286E-013
   10.5450000000000         6.505158996598944E-013
   10.7350000000000         6.535083280684219E-013
   10.9250000000000         6.621828106830258E-013
   11.1150000000000         6.724180401464023E-013
   11.3050000000000         6.850828005709572E-013
   11.4950000000000         7.025321667565055E-013
   11.6850000000000         7.219725675516632E-013
   11.8750000000000         7.442228400968227E-013
   12.0650000000000         7.663390488957556E-013
   12.2550000000000         7.840050082581284E-013
   12.4450000000000         7.960296264286326E-013
   12.6350000000000         7.870606946084725E-013
   12.8250000000000         7.729629282244384E-013
   13.0150000000000         7.332547651136564E-013
   13.2050000000000         6.893074866633409E-013
   13.3950000000000         6.010748480454068E-013
   13.5850000000000         4.810862512208426E-013
   13.7750000000000         4.170031884638669E-013
   13.9650000000000         4.018622144851953E-013
   14.1550000000000         3.692020487939995E-013
   14.3450000000000         3.378383636703250E-013
   14.5350000000000         3.254184570667758E-013
   14.7250000000000         3.248490663675132E-013
   14.9150000000000         3.495946154350664E-013
   15.1050000000000         4.118482699912058E-013
   15.2950000000000         4.742779572397589E-013
   15.4850000000000         5.335149439597659E-013
   15.6750000000000         5.999990398750837E-013
   15.8650000000000         6.567871801172374E-013
   16.0550000000000         6.843688714264881E-013
   16.2450000000000         7.493771624343256E-013
   16.4350000000000         7.591184834828767E-013
   16.6250000000000         7.570567278676143E-013
   16.8150000000000         7.744376648417751E-013
   17.0050000000000         8.058637914542009E-013
   17.1950000000000         8.278348204736729E-013
   17.3850000000000         8.495857582182000E-013
   17.5750000000000         8.730061690807850E-013
   17.7650000000000         8.895590919068497E-013
   17.9550000000000         9.056703597532318E-013
   18.1450000000000         9.187321857743408E-013
   18.3350000000000         9.290651634033659E-013
   18.5250000000000         9.341924644613786E-013
   18.7150000000000         9.239675857167628E-013
   18.9050000000000         8.907690036631952E-013
   19.0950000000000         8.565977819238272E-013
   19.2850000000000         8.170796750044221E-013
   19.4750000000000         7.527024137585266E-013
   19.6650000000000         6.592193871117758E-013
   19.8550000000000         5.136426438101656E-013
   20.0450000000000         4.357826109783014E-013
   20.2350000000000         3.768617235175771E-013
   20.4250000000000         3.253997331720256E-013
   20.6150000000000         2.702440423865661E-013
   20.8050000000000         2.311704492939727E-013
   20.9950000000000         2.055573160557134E-013
   21.1850000000000         2.159406242837215E-013
   21.3750000000000         1.718613125344208E-013
   21.5650000000000         1.828632443647773E-013
   21.7550000000000         1.867797505547877E-013
   21.9450000000000         1.838022735337701E-013
   22.1350000000000         2.072454317444661E-013
   22.3250000000000         2.526786612278615E-013
   22.5150000000000         2.931419073908582E-013
   22.7050000000000         3.318415466090033E-013
   22.8950000000000         3.840481386146798E-013
   23.0850000000000         4.729561417516468E-013
   23.2750000000000         5.227774682322455E-013
   23.4650000000000         5.800084166055400E-013
   23.6550000000000         6.844852974560722E-013
   23.8450000000000         7.635984177058139E-013
   24.0350000000000         8.575383573939387E-013
   24.2250000000000         9.102929306280071E-013
   24.4150000000000         9.523118862606529E-013
   24.6050000000000         1.040501263742887E-012
   24.7950000000000         1.059854789123669E-012
   24.9850000000000         1.054628014270620E-012
   25.1750000000000         1.076556937025489E-012
   25.3650000000000         1.068538780278426E-012
   25.5550000000000         1.060491300448290E-012
   25.7450000000000         1.000127714987075E-012
   25.9350000000000         9.739866551756251E-013
   26.1250000000000         9.976588741826314E-013
   26.3150000000000         9.695153166538454E-013
   26.5050000000000         9.425078758989436E-013
   26.6950000000000         9.170134018291244E-013
   26.8850000000000         8.889534657834979E-013
   27.0750000000000         8.587727206822979E-013
   27.2650000000000         8.173924968232127E-013
   27.4550000000000         7.945522878169525E-013
   27.6450000000000         7.602840086161041E-013
   27.8350000000000         7.307920285488479E-013
   28.0250000000000         6.464185999057993E-013
   28.2150000000000         6.388241769866272E-013
   28.4050000000000         5.151432390706111E-013
   28.5950000000000         3.880141028789704E-013
   28.7850000000000         3.274587148834396E-013
   28.9750000000000         3.273104537698263E-013
   29.1650000000000         1.560381402390494E-013
   29.3550000000000         7.599704943445681E-014
   29.5450000000000        -8.317715494116816E-015
   29.7350000000000        -5.904341002571590E-014
   29.9250000000000        -9.093290819700960E-014
   30.1150000000000        -1.190608995962274E-013
   30.3050000000000        -1.200964456721530E-013
   30.4950000000000        -8.095083018699043E-014
   30.6850000000000        -9.339554611665380E-014
   30.8750000000000         7.913451198677172E-016
   31.0650000000000         6.921701500820680E-014
   31.2550000000000         2.943414606569911E-013
   31.4450000000000         4.140414627424099E-013
   31.6350000000000         5.479650323581215E-013
   31.8250000000000         6.231269035621161E-013
   32.0150000000000         7.343783470985113E-013
   32.2050000000000         8.015959516703683E-013
   32.3950000000000         1.012110257162690E-012
   32.5850000000000         1.117920012886627E-012
   32.7750000000000         1.146827712431421E-012
   32.9650000000000         1.122344867987481E-012
   33.1550000000000         1.161462667782487E-012
   33.3450000000000         1.185158587248617E-012
   33.5350000000000         1.197892899439235E-012
   33.7250000000000         1.174375422893902E-012
   33.9150000000000         1.103637681112259E-012
   34.1050000000000         9.796877756614541E-013
   34.2950000000000         9.228137749372435E-013
   34.4850000000000         9.422763229007766E-013
   34.6750000000000         8.909695090144899E-013
   34.8650000000000         8.062967083002612E-013
   35.0550000000000         7.464302321078795E-013
   35.2450000000000         6.279510582731413E-013
   35.4350000000000         6.309421686194871E-013
   35.6250000000000         6.168072965377382E-013
   35.8150000000000         5.993792550377452E-013
   36.0050000000000         5.616760517462076E-013
   36.1950000000000         5.069988685527219E-013
   36.3850000000000         5.128954247818392E-013
   36.5750000000000         4.820018954894114E-013
   36.7650000000000         4.670489812470895E-013
   36.9550000000000         4.586170924049913E-013
   37.1450000000000         4.253731260087721E-013
   37.3350000000000         3.762955994573276E-013
   37.5250000000000         3.243710589558123E-013
   37.7150000000000         2.892575429672726E-013
   37.9050000000000         2.840746241513834E-013
   38.0950000000000         3.043590171657518E-013
   38.2850000000000         3.753877196833271E-013
   38.4750000000000         4.132611023197604E-013
   38.6650000000000         4.775530113519334E-013
   38.8550000000000         6.219692133917508E-013
   39.0450000000000         7.182586554084625E-013
   39.2350000000000         8.247967061101591E-013
   39.4250000000000         8.244312686465512E-013
   39.6150000000000         9.035230122135378E-013
   39.8050000000000         9.673651984741139E-013
   39.9950000000000         9.845566532085174E-013
   40.1850000000000         9.862062480956725E-013
   40.3750000000000         1.009219126672218E-012
   40.5650000000000         1.029403896715593E-012
   40.7550000000000         1.026904959455860E-012
   40.9450000000000         9.790230288066124E-013
   41.1350000000000         8.954979713917419E-013
   41.3250000000000         8.331840982191110E-013
   41.5150000000000         8.472206441815121E-013
   41.7050000000000         8.357343614507336E-013
   41.8950000000000         8.251527605596623E-013
   42.0850000000000         7.864375186046230E-013
   42.2750000000000         7.427732118974874E-013
   42.4650000000000         7.197177147856703E-013
   42.6550000000000         7.104004722673912E-013
   42.8450000000000         7.018994932169193E-013
   43.0350000000000         6.720918049633829E-013
   43.2250000000000         6.241663318434668E-013
   43.4150000000000         5.285858121973344E-013
   43.6050000000000         5.098633578055823E-013
   43.7950000000000         4.754224577312679E-013
   43.9850000000000         4.438709148827259E-013
   44.1750000000000         4.043448032707878E-013
   44.3650000000000         3.539531212399206E-013
   44.5550000000000         3.782662746581731E-013
   44.7450000000000         4.623721473030704E-013
   44.9350000000000         4.871378679814628E-013
   45.1250000000000         6.087642444237823E-013
   45.3150000000000         6.737756392732025E-013
   45.5050000000000         7.337581390368715E-013
   45.6950000000000         7.585626533053099E-013
   45.8850000000000         8.816857845090750E-013
   46.0750000000000         9.406280643040719E-013
   46.2650000000000         9.564451739228712E-013
   46.4550000000000         1.005473481625299E-012
   46.6450000000000         1.017709360533623E-012
   46.8350000000000         9.314479366059380E-013
   47.0250000000000         8.723299903928998E-013
   47.2150000000000         8.455006596183205E-013
   47.4050000000000         8.079197137267524E-013
   47.5950000000000         7.766247957802622E-013
   47.7850000000000         6.700665702416764E-013
   47.9750000000000         5.559950487517225E-013
   48.1650000000000         4.280996620958603E-013
   48.3550000000000         3.510144504663035E-013
   48.5450000000000         3.508815501765364E-013
   48.7350000000000         3.637195128537076E-013
   48.9250000000000         3.485964148559320E-013
   49.1150000000000         3.008900014432515E-013
   49.3050000000000         2.398390936522847E-013
   49.4950000000000         2.765466667118114E-013
   49.6850000000000         3.371749491763889E-013
   49.8750000000000         3.070635358505889E-013
   50.0650000000000         2.731285494353538E-013
   50.2550000000000         2.535020131774830E-013
   50.4450000000000         2.863502680160702E-013
   50.6350000000000         3.106656930687043E-013
   50.8250000000000         3.437486268384665E-013
   51.0150000000000         3.619626560261707E-013
   51.2050000000000         3.729583100036673E-013
   51.3950000000000         4.191075345803712E-013
   51.5850000000000         4.504336943161369E-013
   51.7750000000000         4.281748949635143E-013
   51.9650000000000         5.086473416574441E-013
   52.1550000000000         5.886155500538187E-013
   52.3450000000000         6.493942073849443E-013
   52.5350000000000         7.442670696134728E-013
   52.7250000000000         7.734307043734747E-013
   52.9150000000000         8.601121832800502E-013
   53.1050000000000         9.765462002576911E-013
   53.2950000000000         1.029004885104136E-012
   53.4850000000000         1.072753689302552E-012
   53.6750000000000         1.098288493727719E-012
   53.8650000000000         1.120192231192294E-012
   54.0550000000000         1.164631600270143E-012
   54.2450000000000         1.197726764547824E-012
   54.4350000000000         1.240899234724557E-012
   54.6250000000000         1.257784933017096E-012
   54.8150000000000         1.258768721686488E-012
   55.0050000000000         1.248874495203924E-012
   55.1950000000000         1.242874001459148E-012
   55.3850000000000         1.243808728086758E-012
   55.5750000000000         1.276940962136102E-012
   55.7650000000000         1.260800076538606E-012
   55.9550000000000         1.181314924798157E-012
   56.1450000000000         1.033861398007281E-012
   56.3350000000000         8.868242754392280E-013
   56.5250000000000         8.534557986173523E-013
   56.7150000000000         7.410222755513203E-013
   56.9050000000000         6.083221338659622E-013
   57.0950000000000         4.192679084701499E-013
   57.2850000000000         3.468377883922812E-013
   57.4750000000000         2.363430504258440E-013
   57.6650000000000         1.701065741927435E-013
   57.8550000000000         1.951248912071256E-013
   58.0450000000000         1.954974582478651E-013
   58.2350000000000         1.458045413212948E-013
   58.4250000000000         1.006548426086894E-013
   58.6150000000000         7.300224760803484E-014
   58.8050000000000         7.698461735085022E-014
   58.9950000000000         1.056463787123713E-013
   59.1850000000000         1.351127372351231E-013
   59.3750000000000         1.435405030216214E-013
   59.5650000000000         1.326524274368279E-013
   59.7550000000000         1.213986880079981E-013
   59.9450000000000         1.253766246606522E-013
   60.1350000000000         1.482108380971154E-013
   60.3250000000000         1.814090293494989E-013
   60.5150000000000         2.087230287332461E-013
   60.7050000000000         2.562744890432710E-013
   60.8950000000000         2.843394875114321E-013
   61.0850000000000         3.383824038476291E-013
   61.2750000000000         3.804033802117357E-013
   61.4650000000000         4.282363262028919E-013
   61.6550000000000         5.599924427155082E-013
   61.8450000000000         6.849458451417448E-013
   62.0350000000000         7.858998257906062E-013
   62.2250000000000         8.257117609751966E-013
   62.4150000000000         9.240164729876284E-013
   62.6050000000000         9.314889731734282E-013
   62.7950000000000         9.808535669423079E-013
   62.9850000000000         9.993625324459642E-013
   63.1750000000000         1.017233699126754E-012
   63.3650000000000         1.029190846752378E-012
   63.5550000000000         1.037829272313802E-012
   63.7450000000000         1.013336541652837E-012
   63.9350000000000         1.009708807791479E-012
   64.1250000000000         9.477413041699957E-013
   64.3150000000000         8.888059135633861E-013
   64.5050000000000         8.174366828131155E-013
   64.6950000000000         7.273898121144760E-013
   64.8850000000000         7.347537588833458E-013
   65.0750000000000         6.868149279623328E-013
   65.2650000000000         6.266217661215529E-013
   65.4550000000000         5.451524783996271E-013
   65.6450000000000         4.810081358658151E-013
   65.8350000000000         4.257167396594938E-013
   66.0250000000000         4.260480918904303E-013
   66.2150000000000         4.065855005992995E-013
   66.4050000000000         3.497885820408794E-013
   66.5950000000000         3.004217249617021E-013
   66.7850000000000         2.604851911578826E-013
   66.9750000000000         2.427002778088158E-013
   67.1650000000000         2.501057435046938E-013
   67.3550000000000         2.672518048621077E-013
   67.5450000000000         2.838808695967932E-013
   67.7350000000000         2.932619691732860E-013
   67.9250000000000         3.281521727211923E-013
   68.1150000000000         3.855033421610325E-013
   68.3050000000000         4.982756199409053E-013
   68.4950000000000         5.976569516230124E-013
   68.6850000000000         6.670980107118020E-013
   68.8750000000000         7.265865409135705E-013
   69.0650000000000         7.787731240265928E-013
   69.2550000000000         8.305085929785762E-013
   69.4450000000000         8.749709115268860E-013
   69.6350000000000         9.109709556570198E-013
   69.8250000000000         9.034399221654274E-013
   70.0150000000000         9.135164727891984E-013
   70.2050000000000         9.043801177687310E-013
   70.3950000000000         8.887395954093515E-013
   70.5850000000000         8.924740082620835E-013
   70.7750000000000         8.996845524107604E-013
   70.9650000000000         9.107225722541984E-013
   71.1550000000000         9.047544681690763E-013
   71.3450000000000         9.035606809159245E-013
   71.5350000000000         8.954136587054714E-013
   71.7250000000000         9.225592925561838E-013
   71.9150000000000         9.308184675624503E-013
   72.1050000000000         9.668863029491317E-013
   72.2950000000000         9.700763639476906E-013
   72.4850000000000         9.622715616583334E-013
   72.6750000000000         9.635207824736331E-013
   72.8650000000000         9.783215407535476E-013
   73.0550000000000         1.005450905349242E-012
   73.2450000000000         1.029048537194476E-012
   73.4350000000000         1.024646168691873E-012
   73.6250000000000         9.997300938090981E-013
   73.8150000000000         9.496673790362866E-013
   74.0050000000000         9.317806495914138E-013
   74.1950000000000         9.224190330462549E-013
   74.3850000000000         9.047328123782231E-013
   74.5750000000000         8.554855627591128E-013
   74.7650000000000         7.968584625324949E-013
   74.9550000000000         7.383840233013851E-013
   75.1450000000000         6.883338053051077E-013
   75.3350000000000         6.970745593995762E-013
   75.5250000000000         6.535143813693587E-013
   75.7150000000000         6.567789189937547E-013
   75.9050000000000         6.342844805420577E-013
   76.0950000000000         6.041535939507069E-013
   76.2850000000000         5.956561001820465E-013
   76.4750000000000         6.087655974396395E-013
   76.6650000000000         6.239478669088172E-013
   76.8550000000000         6.347578380045968E-013
   77.0450000000000         6.176769958185556E-013
   77.2350000000000         5.678791664572763E-013
   77.4250000000000         4.927141783763640E-013
   77.6150000000000         4.499374958354525E-013
   77.8050000000000         4.231797213310388E-013
   77.9950000000000         3.884857905233958E-013
   78.1850000000000         3.305424971200596E-013
   78.3750000000000         2.870532742649245E-013
   78.5650000000000         2.584057476329196E-013
   78.7550000000000         2.394686110333801E-013
   78.9450000000000         2.769851978810194E-013
   79.1350000000000         2.684188377932322E-013
   79.3250000000000         2.480655335595126E-013
   79.5150000000000         2.177764810993467E-013
   79.7050000000000         1.957198156975405E-013
   79.8950000000000         2.468014819995626E-013
   80.0850000000000         3.392896088957835E-013
   80.2750000000000         4.309918140207399E-013
   80.4650000000000         3.961449560280830E-013
   80.6550000000000         4.845455534270139E-013
   80.8450000000000         5.662914225189918E-013
   81.0350000000000         6.554609648618809E-013
   81.2250000000000         6.921329828897551E-013
   81.4150000000000         8.752974614879896E-013
   81.6050000000000         9.435146307694183E-013
   81.7950000000000         1.034665020569636E-012
   81.9850000000000         1.027100979240302E-012
   82.1750000000000         1.035265703404988E-012
   82.3650000000000         1.091814008328401E-012
   82.5550000000000         1.126109066780213E-012
   82.7450000000000         1.086663544114289E-012
   82.9350000000000         1.072133385471254E-012
   83.1250000000000         1.048099052568483E-012
   83.3150000000000         1.036045616876000E-012
   83.5050000000000         1.046568470633497E-012
   83.6950000000000         1.088986339146085E-012
   83.8850000000000         1.096605550160812E-012
   84.0750000000000         1.121275872931575E-012
   84.2650000000000         1.124823587554449E-012
   84.4550000000000         1.127641992710123E-012
   84.6450000000000         1.137060318497627E-012
   84.8350000000000         1.151234148151652E-012
   85.0250000000000         1.147197234626190E-012
   85.2150000000000         1.110039850958954E-012
   85.4050000000000         1.055185241945484E-012
   85.5950000000000         9.530586917668250E-013
   85.7850000000000         8.998242571197754E-013
   85.9750000000000         8.373124198362745E-013
   86.1650000000000         7.749635401291522E-013
   86.3550000000000         6.942630008647858E-013
   86.5450000000000         6.027579921277518E-013
   86.7350000000000         5.117847524280395E-013
   86.9250000000000         4.396965932769972E-013
   87.1150000000000         4.098662178946236E-013
   87.3050000000000         3.481221698882967E-013
   87.4950000000000         2.667177833309366E-013
   87.6850000000000         2.069859763465349E-013
   87.8750000000000         2.043253767776620E-013
   88.0650000000000         1.749898192628511E-013
   88.2550000000000         1.701921748683956E-013
   88.4450000000000         1.855920681404384E-013
   88.6350000000000         2.021788161316996E-013
   88.8250000000000         2.218208209602012E-013
   89.0150000000000         2.560867123837183E-013
   89.2050000000000         3.605638992726789E-013
   89.3950000000000         3.933110326022728E-013
   89.5850000000000         5.178927924724580E-013
   89.7750000000000         5.688739056145965E-013
   89.9650000000000         6.530666845113370E-013
   90.1550000000000         7.110496695737572E-013
   90.3450000000000         7.413482146626523E-013
   90.5350000000000         8.291554356346488E-013
   90.7250000000000         9.118360709035541E-013
   90.9150000000000         9.964395097207362E-013
   91.1050000000000         1.069006345671886E-012
   91.2950000000000         1.132141457002159E-012
   91.4850000000000         1.148884960246867E-012
   91.6750000000000         1.186572148544844E-012
   91.8650000000000         1.234226199685389E-012
   92.0550000000000         1.279255181282006E-012
   92.2450000000000         1.276111848380090E-012
   92.4350000000000         1.267713328185505E-012
   92.6250000000000         1.250759086373667E-012
   92.8150000000000         1.229429783189975E-012
   93.0050000000000         1.198694347232995E-012
   93.1950000000000         1.118727606599359E-012
   93.3850000000000         9.515206904671364E-013
   93.5750000000000         8.516558906441857E-013
   93.7650000000000         8.483365648630210E-013
   93.9550000000000         7.364751326176124E-013
   94.1450000000000         7.054305601637455E-013
   94.3350000000000         6.911854332980828E-013
   94.5250000000000         6.017408719650508E-013
   94.7150000000000         5.468660735558048E-013
   94.9050000000000         5.186060961209883E-013
   95.0950000000000         5.123706046949296E-013
   95.2850000000000         4.847625866895860E-013
   95.4750000000000         4.918201869650639E-013
   95.6650000000000         4.068053435257971E-013
   95.8550000000000         3.822755596932560E-013
   96.0450000000000         3.350780400747722E-013
   96.2350000000000         2.710152088466080E-013
   96.4250000000000         2.264900221506419E-013
   96.6150000000000         1.888104486086425E-013
   96.8050000000000         1.579933245973263E-013
   96.9950000000000         1.466610705102642E-013
   97.1850000000000         1.378641444715123E-013
   97.3750000000000         1.242393200604866E-013
   97.5650000000000         1.685106470641745E-013
   97.7550000000000         2.258377386685326E-013
   97.9450000000000         3.017807201732828E-013
   98.1350000000000         4.274265679488336E-013
   98.3250000000000         5.446434009750071E-013
   98.5150000000000         6.519211679781557E-013
   98.7050000000000         7.567050546727543E-013
   98.8950000000000         8.279970711686977E-013
   99.0850000000000         8.877291218771443E-013
   99.2750000000000         9.408904324680165E-013
   99.4650000000000         9.449414384864800E-013
   99.6550000000000         9.402621090575735E-013
   99.8450000000000         9.444483806083122E-013
   100.035000000000         9.622604756723933E-013
   100.225000000000         9.706153684777278E-013
   100.415000000000         9.484959255440479E-013
   100.605000000000         9.010767768016173E-013
   100.795000000000         8.385753845348940E-013
   100.985000000000         7.851070386404091E-013
   101.175000000000         7.849270182131937E-013
   101.365000000000         7.691595139440751E-013
   101.555000000000         7.415392097363084E-013
   101.745000000000         7.182670116376680E-013
   101.935000000000         7.036611989925953E-013
   102.125000000000         7.563389691918489E-013
   102.315000000000         8.121070690283838E-013
   102.505000000000         8.390269555687873E-013
   102.695000000000         8.757227220255260E-013
   102.885000000000         8.650990720064084E-013
   103.075000000000         8.316604693934708E-013
   103.265000000000         8.096259178649374E-013
   103.455000000000         8.400646888610051E-013
   103.645000000000         7.811101131954413E-013
   103.835000000000         7.581046530853923E-013
   104.025000000000         6.998445625716419E-013
   104.215000000000         7.023873827838066E-013
   104.405000000000         7.017325744660693E-013
   104.595000000000         7.108220164888313E-013
   104.785000000000         7.326239344814535E-013
   104.975000000000         7.529595079228176E-013
   105.165000000000         7.534357479555588E-013
   105.355000000000         7.383392802102300E-013
   105.545000000000         7.278947587801128E-013
   105.735000000000         7.295544219700670E-013
   105.925000000000         7.244830886826666E-013
   106.115000000000         7.116981880591414E-013
   106.305000000000         6.763547413264967E-013
   106.495000000000         6.230474272825082E-013
   106.685000000000         5.705263744843288E-013
   106.875000000000         5.401901563437582E-013
   107.065000000000         5.289979011990780E-013
   107.255000000000         5.167245587214189E-013
   107.445000000000         5.027729867870527E-013
   107.635000000000         4.856807791531499E-013
   107.825000000000         4.823234098819992E-013
   108.015000000000         4.988474420972218E-013
   108.205000000000         5.287111182367231E-013
   108.395000000000         5.640831413827737E-013
   108.585000000000         5.905630770588608E-013
   108.775000000000         6.030941468761365E-013
   108.965000000000         6.096867777971342E-013
   109.155000000000         6.280954490646191E-013
   109.345000000000         6.507138129574618E-013
   109.535000000000         6.702141372837746E-013
   109.725000000000         6.694025493766146E-013
   109.915000000000         6.564655935744371E-013
   110.105000000000         6.497632813743062E-013