  -1.42500000000000         0.000000000000000E+000
  -1.23500000000000         1.973801277592146E-022
  -1.04500000000000         1.815673603159707E-019
 -0.855000000000000         1.710473450728267E-018
 -0.665000000000000         9.795506350175545E-018
 -0.475000000000000         4.311121370393159E-017
 -0.285000000000000         1.648279086997391E-016
 -9.499999999999975E-002    5.721444440427962E-016
  9.500000000000020E-002    1.732105143572174E-015
  0.285000000000000         4.422619257349964E-015
  0.475000000000000         1.027325248388827E-014
  0.665000000000000         2.020571006593354E-014
  0.855000000000000         3.636217830343735E-014
   1.04500000000000         5.969956560567249E-014
   1.23500000000000         9.211080858415147E-014
   1.42500000000000         1.376980417797388E-013
   1.61500000000000         2.002896502679129E-013
   1.80500000000000         2.837975371108871E-013
   1.99500000000000         3.905989696636881E-013
   2.18500000000000         5.234748240785067E-013
   2.37500000000000         6.847469579156902E-013
   2.56500000000000         8.766881780979258E-013
   2.75500000000000         1.101554288389437E-012
   2.94500000000000         1.359232706003665E-012
   3.13500000000000         1.651078191018122E-012
   3.32500000000000         1.977870737673312E-012
   3.51500000000000         2.340574611199190E-012
   3.70500000000000         2.739846605260016E-012
   3.89500000000000         3.175983699118784E-012
   4.08500000000000         3.649156351586538E-012
   4.27500000000000         4.159339867892515E-012
   4.46500000000000         4.706338117029543E-012
   4.65500000000000         5.289594890654609E-012
   4.84500000000000         5.908136065473798E-012
   5.03500000000000         6.560953322153256E-012
   5.22500000000000         7.247272849447492E-012
   5.41500000000000         7.966677536825167E-012
   5.60500000000000         8.718138765644657E-012
   5.79500000000000         9.500218606705189E-012
   5.98500000000000         1.030927992788098E-011
   6.17500000000000         1.114208291990677E-011
   6.36500000000000         1.199512711737612E-011
   6.55500000000000         1.286627406394923E-011
   6.74500000000000         1.375300103591773E-011
   6.93500000000000         1.465322064008716E-011
   7.12500000000000         1.556603187577893E-011
   7.31500000000000         1.649114817753015E-011
   7.50500000000000         1.742842811282734E-011
   7.69500000000000         1.837737606131672E-011
   7.88500000000000         1.933864010767677E-011
   8.07500000000000         2.031296209398697E-011
   8.26500000000000         2.130223708169754E-011
   8.45500000000000         2.230818821742005E-011
   8.64500000000000         2.333221280712326E-011
   8.83500000000000         2.437652809143960E-011
   9.02500000000000         2.544164107393291E-011
   9.21500000000000         2.652938735304703E-011
   9.40500000000000         2.764055762746744E-011
   9.59500000000000         2.877290225217333E-011
   9.78500000000000         2.992767725052935E-011
   9.97500000000000         3.110556486289194E-011
   10.1650000000000         3.230630694724564E-011
   10.3550000000000         3.353038470637083E-011
   10.5450000000000         3.477763735606916E-011
   10.7350000000000         3.604837362974519E-011
   10.9250000000000         3.734270155406450E-011
   11.1150000000000         3.866093427784947E-011
   11.3050000000000         4.000344129288370E-011
   11.4950000000000         4.137067979701856E-011
   11.6850000000000         4.276327971237334E-011
   11.8750000000000         4.418194283741673E-011
   12.0650000000000         4.562747240698762E-011
   12.2550000000000         4.710066681622363E-011
   12.4450000000000         4.860216380625777E-011
   12.6350000000000         5.013239746580599E-011
   12.8250000000000         5.169104401642955E-011
   13.0150000000000         5.327759452876203E-011
   13.2050000000000         5.489061553811511E-011
   13.3950000000000         5.652852054773674E-011
   13.5850000000000         5.818812435937281E-011
   13.7750000000000         5.986509538467795E-011
   13.9650000000000         6.155712022508663E-011
   14.1550000000000         6.326365229143823E-011
   14.3450000000000         6.498351255175129E-011
   14.5350000000000         6.671556877699287E-011
   14.7250000000000         6.845937260853455E-011
   14.9150000000000         7.021490349137208E-011
   15.1050000000000         7.198305473982682E-011
   15.2950000000000         7.376607371082825E-011
   15.4850000000000         7.556621411608604E-011
   15.6750000000000         7.738561441082078E-011
   15.8650000000000         7.922667467089499E-011
   16.0550000000000         8.109144494817144E-011
   16.2450000000000         8.298092094170639E-011
   16.4350000000000         8.489744945080522E-011
   16.6250000000000         8.684138213715779E-011
   16.8150000000000         8.881264457138637E-011
   17.0050000000000         9.081186420531574E-011
   17.1950000000000         9.284017552211657E-011
   17.3850000000000         9.489837167593657E-011
   17.5750000000000         9.698723787562823E-011
   17.7650000000000         9.910761959802367E-011
   17.9550000000000         1.012601144036370E-010
   18.1450000000000         1.034453039092374E-010
   18.3350000000000         1.056636596467442E-010
   18.5250000000000         1.079155546366499E-010
   18.7150000000000         1.102011739745227E-010
   18.9050000000000         1.125201485422398E-010
   19.0950000000000         1.148712798709892E-010
   19.2850000000000         1.172533343796660E-010
   19.4750000000000         1.196648854646105E-010
   19.6650000000000         1.221036091066917E-010
   19.8550000000000         1.245661305686476E-010
   20.0450000000000         1.270471945300451E-010
   20.2350000000000         1.295439902436988E-010
   20.4250000000000         1.320543906655716E-010
   20.6150000000000         1.345765380178118E-010
   20.8050000000000         1.371084411799822E-010
   20.9950000000000         1.396486895953722E-010
   21.1850000000000         1.421963586298717E-010
   21.3750000000000         1.447518231209079E-010
   21.5650000000000         1.473134918053266E-010
   21.7550000000000         1.498817618528669E-010
   21.9450000000000         1.524567746494021E-010
   22.1350000000000         1.550384227080119E-010
   22.3250000000000         1.576275523267077E-010
   22.5150000000000         1.602258036450739E-010
   22.7050000000000         1.628346373862969E-010
   22.8950000000000         1.654554506073524E-010
   23.0850000000000         1.680901279662119E-010
   23.2750000000000         1.707418790417886E-010
   23.4650000000000         1.734125023839686E-010
   23.6550000000000         1.761040640299880E-010
   23.8450000000000         1.788203355952456E-010
   24.0350000000000         1.815641730633823E-010
   24.2250000000000         1.843389676662210E-010
   24.4150000000000         1.871466238438554E-010
   24.6050000000000         1.899886584805837E-010
   24.7950000000000         1.928682552129332E-010
   24.9850000000000         1.957861127031700E-010
   25.1750000000000         1.987420422647220E-010
   25.3650000000000         2.017368355317007E-010
   25.5550000000000         2.047702030486474E-010
   25.7450000000000         2.078418543015403E-010
   25.9350000000000         2.109496101649442E-010
   26.1250000000000         2.140925269465999E-010
   26.3150000000000         2.172714592136136E-010
   26.5050000000000         2.204853909835586E-010
   26.6950000000000         2.237333472878234E-010
   26.8850000000000         2.270144077758943E-010
   27.0750000000000         2.303275594840800E-010
   27.2650000000000         2.336717128874824E-010
   27.4550000000000         2.370453741600200E-010
   27.6450000000000         2.404477187701479E-010
   27.8350000000000         2.438775096329867E-010
   28.0250000000000         2.473336820880562E-010
   28.2150000000000         2.508131902545823E-010
   28.4050000000000         2.543157599738977E-010
   28.5950000000000         2.578369263641434E-010
   28.7850000000000         2.613721000635031E-010
   28.9750000000000         2.649190950224701E-010
   29.1650000000000         2.684779058888181E-010
   29.3550000000000         2.720423497320288E-010
   29.5450000000000         2.756095370687242E-010
   29.7350000000000         2.791764241358901E-010
   29.9250000000000         2.827411797359542E-010
   30.1150000000000         2.863026526580322E-010
   30.3050000000000         2.898598274816350E-010
   30.4950000000000         2.934126668235488E-010
   30.6850000000000         2.969625838404931E-010
   30.8750000000000         3.005091292782224E-010
   31.0650000000000         3.040557032835106E-010
   31.2550000000000         3.076047760230405E-010
   31.4450000000000         3.111644744893002E-010
   31.6350000000000         3.147391198523649E-010
   31.8250000000000         3.183335467530977E-010
   32.0150000000000         3.219504685350491E-010
   32.2050000000000         3.255939013753309E-010
   32.3950000000000         3.292662718294678E-010
   32.5850000000000         3.329751794638884E-010
   32.7750000000000         3.367244440107741E-010
   32.9650000000000         3.405151090380786E-010
   33.1550000000000         3.443462907151175E-010
   33.3450000000000         3.482194011944634E-010
   33.5350000000000         3.521352958988089E-010
   33.7250000000000         3.560944345368241E-010
   33.9150000000000         3.600959681276059E-010
   34.1050000000000         3.641373430386757E-010
   34.2950000000000         3.682140846784470E-010
   34.4850000000000         3.723241398954935E-010
   34.6750000000000         3.764682112877967E-010
   34.8650000000000         3.806444466793754E-010
   35.0550000000000         3.848497893821235E-010
   35.2450000000000         3.890820782162509E-010
   35.4350000000000         3.933370360835819E-010
   35.6250000000000         3.976147709632002E-010
   35.8150000000000         4.019147725862234E-010
   36.0050000000000         4.062364118003535E-010
   36.1950000000000         4.105783275199515E-010
   36.3850000000000         4.149385458987043E-010
   36.5750000000000         4.193172798022917E-010
   36.7650000000000         4.237134139743065E-010
   36.9550000000000         4.281264086145441E-010
   37.1450000000000         4.325559593318176E-010
   37.3350000000000         4.370008660189400E-010
   37.5250000000000         4.414593569772028E-010
   37.7150000000000         4.459295577306940E-010
   37.9050000000000         4.504102006814862E-010
   38.0950000000000         4.549010987262104E-010
   38.2850000000000         4.594029841314541E-010
   38.4750000000000         4.639184210333785E-010
   38.6650000000000         4.684487766610966E-010
   38.8550000000000         4.729963719525245E-010
   39.0450000000000         4.775664203325558E-010
   39.2350000000000         4.821623978500474E-010
   39.4250000000000         4.867881505286296E-010
   39.6150000000000         4.914436651760099E-010
   39.8050000000000         4.961317970041311E-010
   39.9950000000000         5.008548507159174E-010
   40.1850000000000         5.056134469228842E-010
   40.3750000000000         5.104076451754074E-010
   40.5650000000000         5.152382762384035E-010
   40.7550000000000         5.201060687820710E-010
   40.9450000000000         5.250109325947750E-010
   41.1350000000000         5.299511391388187E-010
   41.3250000000000         5.349236731596298E-010
   41.5150000000000         5.399262851263865E-010
   41.7050000000000         5.449594817583981E-010
   41.8950000000000         5.500228484008583E-010
   42.0850000000000         5.551160030579747E-010
   42.2750000000000         5.602375481095125E-010
   42.4650000000000         5.653859072739997E-010
   42.6550000000000         5.705602482479910E-010
   42.8450000000000         5.757602346790310E-010
   43.0350000000000         5.809855596817761E-010
   43.2250000000000         5.862351471986803E-010
   43.4150000000000         5.915072671201644E-010
   43.6050000000000         5.967984689894686E-010
   43.7950000000000         6.021080769259896E-010
   43.9850000000000         6.074348476132346E-010
   44.1750000000000         6.127776420405069E-010
   44.3650000000000         6.181350333151774E-010
   44.5550000000000         6.235052022975246E-010
   44.7450000000000         6.288890266923869E-010
   44.9350000000000         6.342895427217667E-010
   45.1250000000000         6.397076444281808E-010
   45.3150000000000         6.451477225238186E-010
   45.5050000000000         6.506121239200342E-010
   45.6950000000000         6.561030139850691E-010
   45.8850000000000         6.616212881618880E-010
   46.0750000000000         6.671713911955280E-010
   46.2650000000000         6.727554509022892E-010
   46.4550000000000         6.783740382798291E-010
   46.6450000000000         6.840289232500558E-010
   46.8350000000000         6.897205475281976E-010
   47.0250000000000         6.954457970768509E-010
   47.2150000000000         7.012025377381573E-010
   47.4050000000000         7.069898009732761E-010
   47.5950000000000         7.128062301100605E-010
   47.7850000000000         7.186506954019724E-010
   47.9750000000000         7.245193500970701E-010
   48.1650000000000         7.304080762134277E-010
   48.3550000000000         7.363122567275867E-010
   48.5450000000000         7.422291088634078E-010
   48.7350000000000         7.481586278231904E-010
   48.9250000000000         7.541012770573868E-010
   49.1150000000000         7.600565106221594E-010
   49.3050000000000         7.660226063159844E-010
   49.4950000000000         7.719973602010900E-010
   49.6850000000000         7.779820974208641E-010
   49.8750000000000         7.839790066563035E-010
   50.0650000000000         7.899870008853869E-010
   50.2550000000000         7.960048550551051E-010
   50.4450000000000         8.020318606474988E-010
   50.6350000000000         8.080692034845681E-010
   50.8250000000000         8.141177613531571E-010
   51.0150000000000         8.201787285471748E-010
   51.2050000000000         8.262527625930753E-010
   51.3950000000000         8.323402604339667E-010
   51.5850000000000         8.384428880568566E-010
   51.7750000000000         8.445617763361112E-010
   51.9650000000000         8.506961217290742E-010
   52.1550000000000         8.568488292910709E-010
   52.3450000000000         8.630227858744245E-010
   52.5350000000000         8.692201855886647E-010
   52.7250000000000         8.754444533441181E-010
   52.9150000000000         8.816966419479992E-010
   53.1050000000000         8.879798806016970E-010
   53.2950000000000         8.942983725732237E-010
   53.4850000000000         9.006540116211028E-010
   53.6750000000000         9.070483770771657E-010
   53.8650000000000         9.134823907478523E-010
   54.0550000000000         9.199568433580848E-010
   54.2450000000000         9.264733391690871E-010
   54.4350000000000         9.330330729162896E-010
   54.6250000000000         9.396376031258658E-010
   54.8150000000000         9.462875393715237E-010
   55.0050000000000         9.529829171680344E-010
   55.1950000000000         9.597233793338223E-010
   55.3850000000000         9.665087092510627E-010
   55.5750000000000         9.733389406633872E-010
   55.7650000000000         9.802152696444447E-010
   55.9550000000000         9.871371135082650E-010
   56.1450000000000         9.941016028408708E-010
   56.3350000000000         1.001103414569945E-009
   56.5250000000000         1.008137240655362E-009
   56.7150000000000         1.015201876495109E-009
   56.9050000000000         1.022293263239003E-009
   57.0950000000000         1.029406610411931E-009
   57.2850000000000         1.036535093156354E-009
   57.4750000000000         1.043676096744937E-009
   57.6650000000000         1.050825632317642E-009
   57.8550000000000         1.057981308737674E-009
   58.0450000000000         1.065144029166280E-009
   58.2350000000000         1.072313807053128E-009
   58.4250000000000         1.079488848483917E-009
   58.6150000000000         1.086667523554525E-009
   58.8050000000000         1.093848834006272E-009
   58.9950000000000         1.101032923602704E-009
   59.1850000000000         1.108220827033409E-009
   59.3750000000000         1.115413608033927E-009
   59.5650000000000         1.122611570846605E-009
   59.7550000000000         1.129814322411913E-009
   59.9450000000000         1.137021456469858E-009
   60.1350000000000         1.144233116623953E-009
   60.3250000000000         1.151450127189304E-009
   60.5150000000000         1.158673686620614E-009
   60.7050000000000         1.165904780953262E-009
   60.8950000000000         1.173145126794964E-009
   61.0850000000000         1.180395737292165E-009
   61.2750000000000         1.187658563394145E-009
   61.4650000000000         1.194935122058151E-009
   61.6550000000000         1.202227140053533E-009
   61.8450000000000         1.209539373776096E-009
   62.0350000000000         1.216876334043669E-009
   62.2250000000000         1.224241665294954E-009
   62.4150000000000         1.231636804740809E-009
   62.6050000000000         1.239065301181340E-009
   62.7950000000000         1.246527424373802E-009
   62.9850000000000         1.254024956380030E-009
   63.1750000000000         1.261558565373680E-009
   63.3650000000000         1.269128896503868E-009
   63.5550000000000         1.276736381423624E-009
   63.7450000000000         1.284381331980111E-009
   63.9350000000000         1.292062863985751E-009
   64.1250000000000         1.299780846479353E-009
   64.3150000000000         1.307533042434035E-009
   64.5050000000000         1.315317324282197E-009
   64.6950000000000         1.323131115594608E-009
   64.8850000000000         1.330971165679237E-009
   65.0750000000000         1.338837740374561E-009
   65.2650000000000         1.346729109088785E-009
   65.4550000000000         1.354643098848765E-009
   65.6450000000000         1.362576768613216E-009
   65.8350000000000         1.370527802771372E-009
   66.0250000000000         1.378494205303830E-009
   66.2150000000000         1.386475988172405E-009
   66.4050000000000         1.394472448777551E-009
   66.5950000000000         1.402481536750509E-009
   66.7850000000000         1.410501469947738E-009
   66.9750000000000         1.418530806660367E-009
   67.1650000000000         1.426568904853026E-009
   67.3550000000000         1.434616031863026E-009
   67.5450000000000         1.442672806663181E-009
   67.7350000000000         1.450739829562728E-009
   67.9250000000000         1.458817439219362E-009
   68.1150000000000         1.466906895169432E-009
   68.3050000000000         1.475010267790153E-009
   68.4950000000000         1.483131628160755E-009
   68.6850000000000         1.491274563947310E-009
   68.8750000000000         1.499441581972052E-009
   69.0650000000000         1.507634829770921E-009
   69.2550000000000         1.515856191279567E-009
   69.4450000000000         1.524107534148419E-009
   69.6350000000000         1.532390463467178E-009
   69.8250000000000         1.540706278837436E-009
   70.0150000000000         1.549054708388884E-009
   70.2050000000000         1.557436115885000E-009
   70.3950000000000         1.565850171503368E-009
   70.5850000000000         1.574296310621129E-009
   70.7750000000000         1.582774668050589E-009
   70.9650000000000         1.591285504092391E-009
   71.1550000000000         1.599829217219051E-009
   71.3450000000000         1.608405591982012E-009
   71.5350000000000         1.617014585285555E-009
   71.7250000000000         1.625655903022176E-009
   71.9150000000000         1.634330525149259E-009
   72.1050000000000         1.643038749823021E-009
   72.2950000000000         1.651781879092319E-009
   72.4850000000000         1.660560028118356E-009
   72.6750000000000         1.669372915147768E-009
   72.8650000000000         1.678220585277428E-009
   73.0550000000000         1.687103572814709E-009
   73.2450000000000         1.696022857129674E-009
   73.4350000000000         1.704979290096830E-009
   73.6250000000000         1.713972712790677E-009
   73.8150000000000         1.723002225740910E-009
   74.0050000000000         1.732066021683527E-009
   74.1950000000000         1.741163454907594E-009
   74.3850000000000         1.750294187458754E-009
   74.5750000000000         1.759457580864440E-009
   74.7650000000000         1.768651857298943E-009
   74.9550000000000         1.777874900323942E-009
   75.1450000000000         1.787124599012183E-009
   75.3350000000000         1.796399146550795E-009
   75.5250000000000         1.805698858481002E-009
   75.7150000000000         1.815022162280376E-009
   75.9050000000000         1.824369175798725E-009
   76.0950000000000         1.833739086986822E-009
   76.2850000000000         1.843130808119662E-009
   76.4750000000000         1.852544032437717E-009
   76.6650000000000         1.861979233193840E-009
   76.8550000000000         1.871436958467958E-009
   77.0450000000000         1.880917598500029E-009
   77.2350000000000         1.890420536671648E-009
   77.4250000000000         1.899943975281176E-009
   77.6150000000000         1.909485200872545E-009
   77.8050000000000         1.919042669207512E-009
   77.9950000000000         1.928615414330420E-009
   78.1850000000000         1.938202183790365E-009
   78.3750000000000         1.947800885834457E-009
   78.5650000000000         1.957409950501750E-009
   78.7550000000000         1.967028343616532E-009
   78.9450000000000         1.976655381548173E-009
   79.1350000000000         1.986292418645456E-009
   79.3250000000000         1.995939145662785E-009
   79.5150000000000         2.005594827845874E-009
   79.7050000000000         2.015258371759932E-009
   79.8950000000000         2.024928981159335E-009
   80.0850000000000         2.034608500092240E-009
   80.2750000000000         2.044300267380025E-009
   80.4650000000000         2.054007593472297E-009
   80.6550000000000         2.063729220397481E-009
   80.8450000000000         2.073468339417144E-009
   81.0350000000000         2.083227901557160E-009
   81.2250000000000         2.093011125838007E-009
   81.4150000000000         2.102819336119536E-009
   81.6050000000000         2.112659144639426E-009
   81.7950000000000         2.122533014037486E-009
   81.9850000000000         2.132444234842789E-009
   82.1750000000000         2.142392533993442E-009
   82.3650000000000         2.152378206235988E-009
   82.5550000000000         2.162403292964235E-009
   82.7450000000000         2.172469032229793E-009
   82.9350000000000         2.182574000049293E-009
   83.1250000000000         2.192717671884009E-009
   83.3150000000000         2.202899180094522E-009
   83.5050000000000         2.213118089551805E-009
   83.6950000000000         2.223374780130877E-009
   83.8850000000000         2.233670783116793E-009
   84.0750000000000         2.244006373563070E-009
   84.2650000000000         2.254382442068359E-009
   84.4550000000000         2.264799116705159E-009
   84.6450000000000         2.275256499217896E-009
   84.8350000000000         2.285754929608131E-009
   85.0250000000000         2.296294919551113E-009
   85.2150000000000         2.306876323314266E-009
   85.4050000000000         2.317497799516039E-009
   85.5950000000000         2.328157367905046E-009
   85.7850000000000         2.338851341712825E-009
   85.9750000000000         2.349577799176288E-009
   86.1650000000000         2.360334483618104E-009
   86.3550000000000         2.371119144243721E-009
   86.5450000000000         2.381928867763669E-009
   86.7350000000000         2.392760350847132E-009
   86.9250000000000         2.403610309360158E-009
   87.1150000000000         2.414476140920201E-009
   87.3050000000000         2.425356768650710E-009
   87.4950000000000         2.436249963591552E-009
   87.6850000000000         2.447152787044373E-009
   87.8750000000000         2.458063082690940E-009
   88.0650000000000         2.468980754483608E-009
   88.2550000000000         2.479904743408752E-009
   88.4450000000000         2.490834876271408E-009
   88.6350000000000         2.501771709007725E-009
   88.8250000000000         2.512715840399303E-009
   89.0150000000000         2.523667979522519E-009
   89.2050000000000         2.534629363376051E-009
   89.3950000000000         2.545603763586348E-009
   89.5850000000000         2.556592362324920E-009
   89.7750000000000         2.567599656993302E-009
   89.9650000000000         2.578627488009676E-009
   90.1550000000000         2.589678894733361E-009
   90.3450000000000         2.600755970350117E-009
   90.5350000000000         2.611859808637423E-009
   90.7250000000000         2.622993579435956E-009
   90.9150000000000         2.634160267516647E-009
   91.1050000000000         2.645362927063639E-009
   91.2950000000000         2.656604177739711E-009
   91.4850000000000         2.667886298722381E-009
   91.6750000000000         2.679209894452114E-009
   91.8650000000000         2.690576325436411E-009
   92.0550000000000         2.701987311986516E-009
   92.2450000000000         2.713444479648666E-009
   92.4350000000000         2.724947714948542E-009
   92.6250000000000         2.736496714699565E-009
   92.8150000000000         2.748090866853607E-009
   93.0050000000000         2.759729401422822E-009
   93.1950000000000         2.771411208857971E-009
   93.3850000000000         2.783133402359720E-009
   93.5750000000000         2.794889945758394E-009
   93.7650000000000         2.806677233934720E-009
   93.9550000000000         2.818495147061038E-009
   94.1450000000000         2.830339646939643E-009
   94.3350000000000         2.842209612861470E-009
   94.5250000000000         2.854104530577439E-009
   94.7150000000000         2.866021171138887E-009
   94.9050000000000         2.877957553565590E-009
   95.0950000000000         2.889912657672362E-009
   95.2850000000000         2.901886258357964E-009
   95.4750000000000         2.913877358972946E-009
   95.6650000000000         2.925886214296677E-009
   95.8550000000000         2.937909755293309E-009
   96.0450000000000         2.949947096437646E-009
   96.2350000000000         2.961996533899231E-009
   96.4250000000000         2.974055755009854E-009
   96.6150000000000         2.986123152410277E-009
   96.8050000000000         2.998197365867894E-009
   96.9950000000000         3.010277282884530E-009
   97.1850000000000         3.022362494365812E-009
   97.3750000000000         3.034452682742708E-009
   97.5650000000000         3.046547356159059E-009
   97.7550000000000         3.058648112809768E-009
   97.9450000000000         3.070757022202843E-009
   98.1350000000000         3.082876825879918E-009
   98.3250000000000         3.095012059656094E-009
   98.5150000000000         3.107166955059046E-009
   98.7050000000000         3.119345384816162E-009
   98.8950000000000         3.131551131625752E-009
   99.0850000000000         3.143786769129611E-009
   99.2750000000000         3.156054453654770E-009
   99.4650000000000         3.168356104324540E-009
   99.6550000000000         3.180691867380240E-009
   99.8450000000000         3.193061573898077E-009
   100.035000000000         3.205465375002454E-009
   100.225000000000         3.217903913710003E-009
   100.415000000000         3.230377491632354E-009
   100.605000000000         3.242885310257618E-009
   100.795000000000         3.255425657754523E-009
   100.985000000000         3.267996277822811E-009
   101.175000000000         3.280595240255192E-009
   101.365000000000         3.293222538552932E-009
   101.555000000000         3.305877603509125E-009
   101.745000000000         3.318559438030790E-009
   101.935000000000         3.331267201991575E-009
   102.125000000000         3.344000368121643E-009
   102.315000000000         3.356760838088500E-009
   102.505000000000         3.369550625120547E-009
   102.695000000000         3.382370701025692E-009
   102.885000000000         3.395222390521101E-009
   103.075000000000         3.408105310093009E-009
   103.265000000000         3.421018252607863E-009
   103.455000000000         3.433960422618352E-009
   103.645000000000         3.446932918964109E-009
   103.835000000000         3.459933613384952E-009
   104.025000000000         3.472961675383771E-009
   104.215000000000         3.486015001771299E-009
   104.405000000000         3.499093684343346E-009
   104.595000000000         3.512197699461331E-009
   104.785000000000         3.525327375254111E-009
   104.975000000000         3.538483498770926E-009
   105.165000000000         3.551666804125977E-009
   105.355000000000         3.564877308511529E-009
   105.545000000000         3.578114466945096E-009
   105.735000000000         3.591377902379456E-009
   105.925000000000         3.604667674728449E-009
   106.115000000000         3.617983600916942E-009
   106.305000000000         3.631325219410026E-009
   106.495000000000         3.644691254309271E-009
   106.685000000000         3.658079781220641E-009
   106.875000000000         3.671488904134130E-009
   107.065000000000         3.684917527912263E-009
   107.255000000000         3.698365248514629E-009
   107.445000000000         3.711831622873566E-009
   107.635000000000         3.725316147337325E-009
   107.825000000000         3.738818204877211E-009
   108.015000000000         3.752337674292194E-009
   108.205000000000         3.765875152099836E-009
   108.395000000000         3.779431716378848E-009
   108.585000000000         3.793008644059263E-009
   108.775000000000         3.806606891066760E-009
   108.965000000000         3.820226909772959E-009
   109.155000000000         3.833868938171838E-009
   109.345000000000         3.847533640816427E-009
   109.535000000000         3.861221834229663E-009
   109.725000000000         3.874934222373256E-009
   109.915000000000         3.888670775948880E-009
   110.105000000000         3.902431027932433E-009