  -1.42500000000000         6.534043834191291E-020
  -1.23500000000000        -8.731180083948450E-019
  -1.04500000000000        -1.889621689003465E-017
 -0.855000000000000        -1.122796311018702E-016
 -0.665000000000000        -4.563436316967201E-016
 -0.475000000000000        -1.488142134060590E-015
 -0.285000000000000        -4.058642049259026E-015
 -9.499999999999975E-002   -9.637645123035674E-015
  9.500000000000020E-002   -2.032990465855597E-014
  0.285000000000000        -3.997695362375319E-014
  0.475000000000000        -7.427192447554039E-014
  0.665000000000000        -1.281507650344702E-013
  0.855000000000000        -2.023210049750948E-013
   1.04500000000000        -2.933939210218834E-013
   1.23500000000000        -4.001808028481689E-013
   1.42500000000000        -5.231970173511399E-013
   1.61500000000000        -6.623255928661109E-013
   1.80500000000000        -8.177057398627523E-013
   1.99500000000000        -9.858675897689085E-013
   2.18500000000000        -1.163080153996020E-012
   2.37500000000000        -1.346831308726804E-012
   2.56500000000000        -1.532993323347281E-012
   2.75500000000000        -1.718230197475981E-012
   2.94500000000000        -1.900913078779529E-012
   3.13500000000000        -2.081051786261299E-012
   3.32500000000000        -2.259702930354019E-012
   3.51500000000000        -2.436154867069553E-012
   3.70500000000000        -2.610044318780967E-012
   3.89500000000000        -2.782014877109133E-012
   4.08500000000000        -2.951732781369416E-012
   4.27500000000000        -3.118975335032805E-012
   4.46500000000000        -3.282418240526490E-012
   4.65500000000000        -3.439708746218707E-012
   4.84500000000000        -3.588849058605034E-012
   5.03500000000000        -3.729402391308875E-012
   5.22500000000000        -3.864967994739164E-012
   5.41500000000000        -3.996372684574499E-012
   5.60500000000000        -4.120775849315240E-012
   5.79500000000000        -4.235510223060046E-012
   5.98500000000000        -4.337098255235947E-012
   6.17500000000000        -4.424365952045066E-012
   6.36500000000000        -4.499146533844848E-012
   6.55500000000000        -4.563421681428520E-012
   6.74500000000000        -4.620489146734671E-012
   6.93500000000000        -4.675845737393495E-012
   7.12500000000000        -4.733778676067358E-012
   7.31500000000000        -4.801318794446303E-012
   7.50500000000000        -4.884414588731208E-012
   7.69500000000000        -4.984521005004584E-012
   7.88500000000000        -5.102767181372326E-012
   8.07500000000000        -5.240769506465936E-012
   8.26500000000000        -5.396259295566566E-012
   8.45500000000000        -5.565246292145180E-012
   8.64500000000000        -5.747369389719427E-012
   8.83500000000000        -5.940211215226733E-012
   9.02500000000000        -6.140784686234029E-012
   9.21500000000000        -6.338298748568570E-012
   9.40500000000000        -6.513456459544654E-012
   9.59500000000000        -6.658901860250486E-012
   9.78500000000000        -6.783388674930001E-012
   9.97500000000000        -6.892160731210114E-012
   10.1650000000000        -6.982825231924580E-012
   10.3550000000000        -7.058831147532876E-012
   10.5450000000000        -7.123612743952639E-012
   10.7350000000000        -7.181872189558649E-012
   10.9250000000000        -7.238763660593999E-012
   11.1150000000000        -7.293886150785237E-012
   11.3050000000000        -7.346293594670770E-012
   11.4950000000000        -7.395674194293495E-012
   11.6850000000000        -7.443403695323892E-012
   11.8750000000000        -7.492416730652794E-012
   12.0650000000000        -7.545658932510979E-012
   12.2550000000000        -7.604943878976167E-012
   12.4450000000000        -7.671662175647367E-012
   12.6350000000000        -7.743339194685931E-012
   12.8250000000000        -7.818604382673616E-012
   13.0150000000000        -7.897372907153567E-012
   13.2050000000000        -7.976264466058682E-012
   13.3950000000000        -8.051669534267660E-012
   13.5850000000000        -8.117981439749654E-012
   13.7750000000000        -8.172987662229625E-012
   13.9650000000000        -8.219339651391179E-012
   14.1550000000000        -8.261530724552733E-012
   14.3450000000000        -8.300550619202296E-012
   14.5350000000000        -8.336659711717430E-012
   14.7250000000000        -8.372029095809212E-012
   14.9150000000000        -8.408402616062206E-012
   15.1050000000000        -8.453184822565384E-012
   15.2950000000000        -8.514624355547300E-012
   15.4850000000000        -8.594323519591221E-012
   15.6750000000000        -8.690258211576163E-012
   15.8650000000000        -8.800160667881671E-012
   16.0550000000000        -8.922447801775229E-012
   16.2450000000000        -9.055182326006633E-012
   16.4350000000000        -9.194641396008438E-012
   16.6250000000000        -9.338435375277956E-012
   16.8150000000000        -9.486322138086154E-012
   17.0050000000000        -9.637230626972419E-012
   17.1950000000000        -9.790553744581090E-012
   17.3850000000000        -9.945915643319078E-012
   17.5750000000000        -1.010303498692068E-011
   17.7650000000000        -1.026174841021705E-011
   17.9550000000000        -1.042127727335241E-011
   18.1450000000000        -1.058146169844984E-011
   18.3350000000000        -1.074211657577153E-011
   18.5250000000000        -1.090325506535691E-011
   18.7150000000000        -1.106456656533199E-011
   18.9050000000000        -1.122474821544289E-011
   19.0950000000000        -1.138210459062259E-011
   19.2850000000000        -1.153528973355162E-011
   19.4750000000000        -1.168306209855221E-011
   19.6650000000000        -1.182395867632242E-011
   19.8550000000000        -1.195557905517331E-011
   20.0450000000000        -1.207692475888934E-011
   20.2350000000000        -1.218913261811166E-011
   20.4250000000000        -1.229247082735768E-011
   20.6150000000000        -1.238550422575883E-011
   20.8050000000000        -1.246791911926348E-011
   20.9950000000000        -1.254153165035641E-011
   21.1850000000000        -1.261068225679600E-011
   21.3750000000000        -1.267583694484091E-011
   21.5650000000000        -1.273720713690056E-011
   21.7550000000000        -1.279772471610041E-011
   21.9450000000000        -1.285781918077456E-011
   22.1350000000000        -1.292106122230748E-011
   22.3250000000000        -1.299616088599242E-011
   22.5150000000000        -1.309030885915684E-011
   22.7050000000000        -1.320594412047744E-011
   22.8950000000000        -1.334317811625839E-011
   23.0850000000000        -1.350051110238894E-011
   23.2750000000000        -1.367745885231437E-011
   23.4650000000000        -1.387228882739729E-011
   23.6550000000000        -1.408462169415871E-011
   23.8450000000000        -1.431491130332835E-011
   24.0350000000000        -1.455927168200938E-011
   24.2250000000000        -1.481310498813345E-011
   24.4150000000000        -1.507229202629181E-011
   24.6050000000000        -1.533178795927300E-011
   24.7950000000000        -1.558727569421203E-011
   24.9850000000000        -1.583393800470597E-011
   25.1750000000000        -1.606943965584969E-011
   25.3650000000000        -1.629205060374316E-011
   25.5550000000000        -1.650065729188172E-011
   25.7450000000000        -1.669182252073126E-011
   25.9350000000000        -1.686244110820527E-011
   26.1250000000000        -1.701764030402203E-011
   26.3150000000000        -1.716171672209031E-011
   26.5050000000000        -1.729495243546798E-011
   26.6950000000000        -1.741770552359126E-011
   26.8850000000000        -1.753178309798039E-011
   27.0750000000000        -1.763864558830253E-011
   27.2650000000000        -1.774090267148074E-011
   27.4550000000000        -1.784305937270214E-011
   27.6450000000000        -1.794857708659104E-011
   27.8350000000000        -1.805590608431212E-011
   28.0250000000000        -1.816400002557399E-011
   28.2150000000000        -1.827338323601896E-011
   28.4050000000000        -1.838010899625353E-011
   28.5950000000000        -1.847641570979463E-011
   28.7850000000000        -1.855630579536994E-011
   28.9750000000000        -1.861466710762252E-011
   29.1650000000000        -1.864387861803955E-011
   29.3550000000000        -1.863938228210511E-011
   29.5450000000000        -1.860498888871337E-011
   29.7350000000000        -1.854399864347448E-011
   29.9250000000000        -1.845576651949204E-011
   30.1150000000000        -1.834407781003608E-011
   30.3050000000000        -1.821588496575999E-011
   30.4950000000000        -1.808091758643230E-011
   30.6850000000000        -1.794456913021771E-011
   30.8750000000000        -1.780892833739679E-011
   31.0650000000000        -1.768714281890211E-011
   31.2550000000000        -1.759537826293620E-011
   31.4450000000000        -1.753773432709498E-011
   31.6350000000000        -1.751361812025456E-011
   31.8250000000000        -1.752813157062691E-011
   32.0150000000000        -1.758127516458816E-011
   32.2050000000000        -1.766490973476967E-011
   32.3950000000000        -1.777143593109489E-011
   32.5850000000000        -1.789871483535382E-011
   32.7750000000000        -1.804344835484723E-011
   32.9650000000000        -1.819862422360222E-011
   33.1550000000000        -1.835967528526904E-011
   33.3450000000000        -1.852496236059864E-011
   33.5350000000000        -1.869503399007643E-011
   33.7250000000000        -1.886779549677401E-011
   33.9150000000000        -1.903596473974918E-011
   34.1050000000000        -1.918833299288348E-011
   34.2950000000000        -1.931859121607890E-011
   34.4850000000000        -1.943148670086061E-011
   34.6750000000000        -1.953074095349470E-011
   34.8650000000000        -1.961469192647866E-011
   35.0550000000000        -1.968481748451374E-011
   35.2450000000000        -1.974398444425360E-011
   35.4350000000000        -1.979960931138431E-011
   35.6250000000000        -1.986117120426364E-011
   35.8150000000000        -1.993308968894619E-011
   36.0050000000000        -2.001667857974850E-011
   36.1950000000000        -2.011117048311073E-011
   36.3850000000000        -2.021090594329224E-011
   36.5750000000000        -2.031314718705090E-011
   36.7650000000000        -2.041729636278343E-011
   36.9550000000000        -2.052178614552407E-011
   37.1450000000000        -2.062695805303241E-011
   37.3350000000000        -2.073170005478819E-011
   37.5250000000000        -2.083566465234105E-011
   37.7150000000000        -2.093887196568521E-011
   37.9050000000000        -2.104149765234382E-011
   38.0950000000000        -2.114428111853782E-011
   38.2850000000000        -2.124940499173719E-011
   38.4750000000000        -2.136531945193502E-011
   38.6650000000000        -2.151012177243965E-011
   38.8550000000000        -2.168752230064348E-011
   39.0450000000000        -2.189188525948822E-011
   39.2350000000000        -2.212652159888702E-011
   39.4250000000000        -2.239093087778281E-011
   39.6150000000000        -2.267804835908593E-011
   39.8050000000000        -2.298328568648586E-011
   39.9950000000000        -2.330527296019177E-011
   40.1850000000000        -2.363941130886767E-011
   40.3750000000000        -2.397876854541499E-011
   40.5650000000000        -2.431936581884442E-011
   40.7550000000000        -2.466099338043027E-011
   40.9450000000000        -2.499998979195445E-011
   41.1350000000000        -2.532547847888437E-011
   41.3250000000000        -2.562607492954544E-011
   41.5150000000000        -2.589567653996686E-011
   41.7050000000000        -2.613489711412276E-011
   41.8950000000000        -2.634638944689579E-011
   42.0850000000000        -2.652978603209452E-011
   42.2750000000000        -2.668499758185393E-011
   42.4650000000000        -2.681211585436269E-011
   42.6550000000000        -2.691248502579569E-011
   42.8450000000000        -2.698841436582225E-011
   43.0350000000000        -2.704211229407472E-011
   43.2250000000000        -2.707765872538675E-011
   43.4150000000000        -2.709595144720063E-011
   43.6050000000000        -2.710298084208176E-011
   43.7950000000000        -2.710554751116934E-011
   43.9850000000000        -2.710326551983989E-011
   44.1750000000000        -2.709650356142684E-011
   44.3650000000000        -2.708446354725766E-011
   44.5550000000000        -2.707166296191016E-011
   44.7450000000000        -2.707299471612342E-011
   44.9350000000000        -2.710857506754036E-011
   45.1250000000000        -2.719035079132990E-011
   45.3150000000000        -2.731510755835884E-011
   45.5050000000000        -2.747555660078615E-011
   45.6950000000000        -2.766241486788004E-011
   45.8850000000000        -2.786746858558346E-011
   46.0750000000000        -2.808621240620118E-011
   46.2650000000000        -2.831266002299322E-011
   46.4550000000000        -2.854308917911172E-011
   46.6450000000000        -2.877539347754615E-011
   46.8350000000000        -2.900181140791281E-011
   47.0250000000000        -2.920533853311833E-011
   47.2150000000000        -2.936919755294270E-011
   47.4050000000000        -2.949395891872154E-011
   47.5950000000000        -2.958834921233421E-011
   47.7850000000000        -2.965610744651925E-011
   47.9750000000000        -2.970158813939636E-011
   48.1650000000000        -2.972702154500475E-011
   48.3550000000000        -2.973320203746807E-011
   48.5450000000000        -2.972425936537565E-011
   48.7350000000000        -2.970411926243299E-011
   48.9250000000000        -2.967540211139577E-011
   49.1150000000000        -2.964021889335653E-011
   49.3050000000000        -2.959868159754837E-011
   49.4950000000000        -2.955767013936197E-011
   49.6850000000000        -2.953561597237239E-011
   49.8750000000000        -2.954975682722770E-011
   50.0650000000000        -2.959977235129120E-011
   50.2550000000000        -2.968250251225583E-011
   50.4450000000000        -2.979903522915661E-011
   50.6350000000000        -2.993914389325471E-011
   50.8250000000000        -3.009866573223288E-011
   51.0150000000000        -3.027076219331528E-011
   51.2050000000000        -3.044599274794171E-011
   51.3950000000000        -3.062830625556968E-011
   51.5850000000000        -3.081998121390330E-011
   51.7750000000000        -3.101074210997753E-011
   51.9650000000000        -3.117997116504461E-011
   52.1550000000000        -3.132117477273265E-011
   52.3450000000000        -3.144233749955427E-011
   52.5350000000000        -3.154831703895759E-011
   52.7250000000000        -3.164229286454036E-011
   52.9150000000000        -3.172911252342569E-011
   53.1050000000000        -3.181276218418498E-011
   53.2950000000000        -3.189413315684901E-011
   53.4850000000000        -3.197588516407017E-011
   53.6750000000000        -3.206567767521385E-011
   53.8650000000000        -3.216888245163094E-011
   54.0550000000000        -3.228770299023876E-011
   54.2450000000000        -3.242436658041056E-011
   54.4350000000000        -3.258050211111617E-011
   54.6250000000000        -3.275529198009016E-011
   54.8150000000000        -3.294677775015123E-011
   55.0050000000000        -3.315257841835541E-011
   55.1950000000000        -3.336787158540283E-011
   55.3850000000000        -3.359030777970003E-011
   55.5750000000000        -3.381946611080333E-011
   55.7650000000000        -3.405284141993853E-011
   55.9550000000000        -3.428758422573377E-011
   56.1450000000000        -3.451563330340112E-011
   56.3350000000000        -3.472637855563859E-011
   56.5250000000000        -3.491552741378553E-011
   56.7150000000000        -3.508157764852710E-011
   56.9050000000000        -3.522208424711462E-011
   57.0950000000000        -3.533834153802637E-011
   57.2850000000000        -3.543211007115256E-011
   57.4750000000000        -3.550441928509569E-011
   57.6650000000000        -3.555827461834837E-011
   57.8550000000000        -3.560050995097954E-011
   58.0450000000000        -3.563885446343731E-011
   58.2350000000000        -3.567566783374830E-011
   58.4250000000000        -3.571175539198892E-011
   58.6150000000000        -3.574861482513611E-011
   58.8050000000000        -3.578732567197418E-011
   58.9950000000000        -3.582835434728801E-011
   59.1850000000000        -3.587136246680365E-011
   59.3750000000000        -3.591550021973640E-011
   59.5650000000000        -3.596044959077325E-011
   59.7550000000000        -3.600719041438382E-011
   59.9450000000000        -3.605783027731979E-011
   60.1350000000000        -3.611508706783860E-011
   60.3250000000000        -3.618176114799267E-011
   60.5150000000000        -3.625844957943613E-011
   60.7050000000000        -3.634260758899058E-011
   60.8950000000000        -3.642887390258505E-011
   61.0850000000000        -3.650806936824573E-011
   61.2750000000000        -3.657795453109817E-011
   61.4650000000000        -3.663889546089190E-011
   61.6550000000000        -3.668918877804614E-011
   61.8450000000000        -3.673026486056140E-011
   62.0350000000000        -3.676188141843121E-011
   62.2250000000000        -3.678888231661686E-011
   62.4150000000000        -3.681417533089007E-011
   62.6050000000000        -3.683481823588071E-011
   62.7950000000000        -3.685328839914477E-011
   62.9850000000000        -3.687181307120628E-011
   63.1750000000000        -3.688939716525103E-011
   63.3650000000000        -3.690612360712706E-011
   63.5550000000000        -3.692267553829514E-011
   63.7450000000000        -3.694027735065080E-011
   63.9350000000000        -3.696118556452760E-011
   64.1250000000000        -3.698745857734366E-011
   64.3150000000000        -3.702047403509250E-011
   64.5050000000000        -3.706139182500670E-011
   64.6950000000000        -3.711114354471659E-011
   64.8850000000000        -3.716910887714388E-011
   65.0750000000000        -3.723253713319487E-011
   65.2650000000000        -3.729942524376854E-011
   65.4550000000000        -3.736950357803438E-011
   65.6450000000000        -3.744301881313901E-011
   65.8350000000000        -3.751999430586130E-011
   66.0250000000000        -3.760104061660568E-011
   66.2150000000000        -3.768588454378869E-011
   66.4050000000000        -3.777304254950423E-011
   66.5950000000000        -3.786111853183162E-011
   66.7850000000000        -3.794906758457863E-011
   66.9750000000000        -3.803555474136693E-011
   67.1650000000000        -3.811918823759930E-011
   67.3550000000000        -3.819956265275775E-011
   67.5450000000000        -3.827737561959608E-011
   67.7350000000000        -3.835456126855522E-011
   67.9250000000000        -3.843416420452252E-011
   68.1150000000000        -3.851956384954095E-011
   68.3050000000000        -3.861409782369731E-011
   68.4950000000000        -3.871972475752923E-011
   68.6850000000000        -3.883592622828749E-011
   68.8750000000000        -3.896173594961335E-011
   69.0650000000000        -3.909639783377678E-011
   69.2550000000000        -3.923887567955937E-011
   69.4450000000000        -3.938780902979393E-011
   69.6350000000000        -3.954143263105612E-011
   69.8250000000000        -3.969791441318417E-011
   70.0150000000000        -3.985765363986722E-011
   70.2050000000000        -4.002283868718846E-011
   70.3950000000000        -4.019509234644583E-011
   70.5850000000000        -4.037525175279521E-011
   70.7750000000000        -4.056352821398132E-011
   70.9650000000000        -4.076014231719793E-011
   71.1550000000000        -4.096690430336242E-011
   71.3450000000000        -4.118276185030896E-011
   71.5350000000000        -4.140734006535621E-011
   71.7250000000000        -4.163889496681623E-011
   71.9150000000000        -4.187524512366317E-011
   72.1050000000000        -4.211651676871614E-011
   72.2950000000000        -4.236151243342471E-011
   72.4850000000000        -4.261069752721059E-011
   72.6750000000000        -4.286350398064649E-011
   72.8650000000000        -4.311978219523629E-011
   73.0550000000000        -4.337887715394995E-011
   73.2450000000000        -4.363866766959285E-011
   73.4350000000000        -4.389613637858603E-011
   73.6250000000000        -4.414594701205473E-011
   73.8150000000000        -4.438265967187120E-011
   74.0050000000000        -4.460115298831054E-011
   74.1950000000000        -4.479801593763026E-011
   74.3850000000000        -4.497227142214604E-011
   74.5750000000000        -4.512350798794249E-011
   74.7650000000000        -4.525186932489564E-011
   74.9550000000000        -4.535850554200003E-011
   75.1450000000000        -4.544641929185966E-011
   75.3350000000000        -4.552347934557247E-011
   75.5250000000000        -4.559185624978268E-011
   75.7150000000000        -4.565343617699757E-011
   75.9050000000000        -4.571393097123424E-011
   76.0950000000000        -4.577360309919997E-011
   76.2850000000000        -4.583506304272946E-011
   76.4750000000000        -4.590265409545675E-011
   76.6650000000000        -4.597847036133932E-011
   76.8550000000000        -4.605986972798311E-011
   77.0450000000000        -4.614296167519948E-011
   77.2350000000000        -4.622419236370554E-011
   77.4250000000000        -4.629602241646851E-011
   77.6150000000000        -4.634853039561073E-011
   77.8050000000000        -4.637821566997440E-011
   77.9950000000000        -4.638670949619840E-011
   78.1850000000000        -4.637512548846833E-011
   78.3750000000000        -4.634629696476805E-011
   78.5650000000000        -4.630424518716450E-011
   78.7550000000000        -4.625148863893991E-011
   78.9450000000000        -4.619238487468421E-011
   79.1350000000000        -4.612814491204477E-011
   79.3250000000000        -4.605714066463453E-011
   79.5150000000000        -4.597909411266991E-011
   79.7050000000000        -4.589329664797682E-011
   79.8950000000000        -4.580635895869505E-011
   80.0850000000000        -4.573320490028587E-011
   80.2750000000000        -4.568961573237140E-011
   80.4650000000000        -4.568478091282496E-011
   80.6550000000000        -4.572225935884469E-011
   80.8450000000000        -4.580116082205647E-011
   81.0350000000000        -4.591862436463242E-011
   81.2250000000000        -4.606973518121511E-011
   81.4150000000000        -4.624890915326326E-011
   81.6050000000000        -4.645514732413651E-011
   81.7950000000000        -4.668102331981117E-011
   81.9850000000000        -4.691918785410974E-011
   82.1750000000000        -4.716730057724642E-011
   82.3650000000000        -4.742485323250603E-011
   82.5550000000000        -4.769228986686860E-011
   82.7450000000000        -4.795955309505848E-011
   82.9350000000000        -4.820996995397974E-011
   83.1250000000000        -4.843687831232762E-011
   83.3150000000000        -4.864342064459946E-011
   83.5050000000000        -4.883198899950593E-011
   83.6950000000000        -4.900730077869291E-011
   83.8850000000000        -4.916876623234815E-011
   84.0750000000000        -4.931877763530041E-011
   84.2650000000000        -4.946402743024757E-011
   84.4550000000000        -4.960541131187306E-011
   84.6450000000000        -4.974401871659844E-011
   84.8350000000000        -4.987968814516471E-011
   85.0250000000000        -5.001125720020632E-011
   85.2150000000000        -5.013719565705975E-011
   85.4050000000000        -5.025741421912346E-011
   85.5950000000000        -5.037273595757493E-011
   85.7850000000000        -5.048762023219322E-011
   85.9750000000000        -5.060786623719552E-011
   86.1650000000000        -5.073592715432901E-011
   86.3550000000000        -5.087274101287910E-011
   86.5450000000000        -5.101739491349716E-011
   86.7350000000000        -5.116824525089985E-011
   86.9250000000000        -5.132386845282090E-011
   87.1150000000000        -5.148124010195734E-011
   87.3050000000000        -5.163795498026413E-011
   87.4950000000000        -5.179284029080493E-011
   87.6850000000000        -5.194552424114171E-011
   87.8750000000000        -5.209704682738188E-011
   88.0650000000000        -5.224691759044285E-011
   88.2550000000000        -5.239480250277031E-011
   88.4450000000000        -5.254207528649412E-011
   88.6350000000000        -5.268987435654277E-011
   88.8250000000000        -5.283957378844193E-011
   89.0150000000000        -5.299332994211163E-011
   89.2050000000000        -5.315403534513789E-011
   89.3950000000000        -5.332137960060896E-011
   89.5850000000000        -5.348659144040619E-011
   89.7750000000000        -5.364274548324425E-011
   89.9650000000000        -5.379082932926741E-011
   90.1550000000000        -5.393239011769436E-011
   90.3450000000000        -5.406948052755963E-011
   90.5350000000000        -5.420474435040048E-011
   90.7250000000000        -5.434013423996624E-011
   90.9150000000000        -5.447692162784093E-011
   91.1050000000000        -5.461568863763386E-011
   91.2950000000000        -5.475555616354119E-011
   91.4850000000000        -5.489392931233240E-011
   91.6750000000000        -5.502698168226293E-011
   91.8650000000000        -5.515037378075931E-011
   92.0550000000000        -5.526110292810646E-011
   92.2450000000000        -5.535874638572852E-011
   92.4350000000000        -5.544578039427484E-011
   92.6250000000000        -5.552342437018502E-011
   92.8150000000000        -5.559153894975931E-011
   93.0050000000000        -5.565036253612061E-011
   93.1950000000000        -5.569774312252522E-011
   93.3850000000000        -5.572966468125949E-011
   93.5750000000000        -5.575110987855902E-011
   93.7650000000000        -5.577501843536068E-011
   93.9550000000000        -5.581006235878295E-011
   94.1450000000000        -5.585812462630693E-011
   94.3350000000000        -5.591892641715885E-011
   94.5250000000000        -5.599221705737431E-011
   94.7150000000000        -5.607663799237171E-011
   94.9050000000000        -5.617067702424543E-011
   95.0950000000000        -5.627265621210327E-011
   95.2850000000000        -5.638203884261433E-011
   95.4750000000000        -5.649579536071131E-011
   95.6650000000000        -5.661263296016859E-011
   95.8550000000000        -5.673277931434771E-011
   96.0450000000000        -5.685481064446709E-011
   96.2350000000000        -5.697806863665474E-011
   96.4250000000000        -5.710079673168771E-011
   96.6150000000000        -5.722039027807704E-011
   96.8050000000000        -5.733391963821552E-011
   96.9950000000000        -5.743973895629842E-011
   97.1850000000000        -5.753796835630026E-011
   97.3750000000000        -5.763024594486780E-011
   97.5650000000000        -5.771865408759713E-011
   97.7550000000000        -5.780524978308591E-011
   97.9450000000000        -5.789306595924656E-011
   98.1350000000000        -5.798691333806656E-011
   98.3250000000000        -5.809124071461488E-011
   98.5150000000000        -5.820729035240304E-011
   98.7050000000000        -5.833376319818839E-011
   98.8950000000000        -5.846781409457050E-011
   99.0850000000000        -5.860597671754142E-011
   99.2750000000000        -5.874555626296932E-011
   99.4650000000000        -5.887937673325216E-011
   99.6550000000000        -5.899818687882509E-011
   99.8450000000000        -5.909584895548067E-011
   100.035000000000        -5.916769830539635E-011
   100.225000000000        -5.921136290528769E-011
   100.415000000000        -5.922567877437933E-011
   100.605000000000        -5.920996149612965E-011
   100.795000000000        -5.916715339900129E-011
   100.985000000000        -5.910232869228531E-011
   101.175000000000        -5.902434941075939E-011
   101.365000000000        -5.893936193226621E-011
   101.555000000000        -5.884980649851653E-011
   101.745000000000        -5.875770184812534E-011
   101.935000000000        -5.866203629883632E-011
   102.125000000000        -5.857401329194610E-011
   102.315000000000        -5.852050340572189E-011
   102.505000000000        -5.851555199786410E-011
   102.695000000000        -5.855249146162963E-011
   102.885000000000        -5.862625600685073E-011
   103.075000000000        -5.873429517010648E-011
   103.265000000000        -5.886911049979380E-011
   103.455000000000        -5.902396405751168E-011
   103.645000000000        -5.919482023392220E-011
   103.835000000000        -5.937806323559111E-011
   104.025000000000        -5.957128025984104E-011
   104.215000000000        -5.976996276351294E-011
   104.405000000000        -5.997110063269980E-011
   104.595000000000        -6.017422775763203E-011
   104.785000000000        -6.037783119104468E-011
   104.975000000000        -6.057923659883007E-011
   105.165000000000        -6.077485129276932E-011
   105.355000000000        -6.096248930893649E-011
   105.545000000000        -6.114212156096769E-011
   105.735000000000        -6.131459519994408E-011
   105.925000000000        -6.148124693452508E-011
   106.115000000000        -6.164413003931774E-011
   106.305000000000        -6.180368246615658E-011
   106.495000000000        -6.196047667683976E-011
   106.685000000000        -6.211353753910305E-011
   106.875000000000        -6.226205403310299E-011
   107.065000000000        -6.240557878324215E-011
   107.255000000000        -6.254184319687356E-011
   107.445000000000        -6.267074411090461E-011
   107.635000000000        -6.279312835570252E-011
   107.825000000000        -6.291054143148250E-011
   108.015000000000        -6.302491400212481E-011
   108.205000000000        -6.313802893058808E-011
   108.395000000000        -6.325109575374682E-011
   108.585000000000        -6.336487373062380E-011
   108.775000000000        -6.347975386211412E-011
   108.965000000000        -6.359512032236050E-011
   109.155000000000        -6.371079162643273E-011
   109.345000000000        -6.382569606910079E-011
   109.535000000000        -6.393908407637102E-011
   109.725000000000        -6.405139015338357E-011
   109.915000000000        -6.416218496757448E-011
   110.105000000000        -6.427140301504639E-011