  -1.42500000000000         0.000000000000000E+000
  -1.23500000000000         9.580684855375967E-011
  -1.04500000000000         6.855352573817529E-010
 -0.855000000000000         3.253932967578464E-009
 -0.665000000000000         1.227297409248081E-008
 -0.475000000000000         3.848396409035186E-008
 -0.285000000000000         1.025864432126293E-007
 -9.499999999999975E-002    2.350051428870440E-007
  9.500000000000020E-002    4.643292354857069E-007
  0.285000000000000         8.353489192547460E-007
  0.475000000000000         1.354236122115519E-006
  0.665000000000000         2.005516301853594E-006
  0.855000000000000         2.691826254147724E-006
   1.04500000000000         3.417628325062249E-006
   1.23500000000000         4.176454189611185E-006
   1.42500000000000         4.684865230371107E-006
   1.61500000000000         5.360779002173601E-006
   1.80500000000000         6.121496645764980E-006
   1.99500000000000         6.788735676237293E-006
   2.18500000000000         7.474808245563142E-006
   2.37500000000000         8.100161039253485E-006
   2.56500000000000         8.611561276220486E-006
   2.75500000000000         9.050193344888121E-006
   2.94500000000000         9.420587666010768E-006
   3.13500000000000         9.671248055226742E-006
   3.32500000000000         9.752217262319747E-006
   3.51500000000000         9.901574958551431E-006
   3.70500000000000         9.949869308927574E-006
   3.89500000000000         9.992756158023991E-006
   4.08500000000000         1.001504115723958E-005
   4.27500000000000         1.002491737200031E-005
   4.46500000000000         1.001200300312908E-005
   4.65500000000000         9.947512062211272E-006
   4.84500000000000         9.825200241050337E-006
   5.03500000000000         9.668341626536292E-006
   5.22500000000000         9.626796665018182E-006
   5.41500000000000         9.432891076055015E-006
   5.60500000000000         9.131464385556694E-006
   5.79500000000000         8.675556284558660E-006
   5.98500000000000         8.063550827606902E-006
   6.17500000000000         7.361609605471706E-006
   6.36500000000000         6.571264489677356E-006
   6.55500000000000         5.967903661359247E-006
   6.74500000000000         5.493105987184107E-006
   6.93500000000000         5.046690024237736E-006
   7.12500000000000         4.655060150835515E-006
   7.31500000000000         4.556305287183724E-006
   7.50500000000000         4.657738500727350E-006
   7.69500000000000         4.933449933036449E-006
   7.88500000000000         5.334201929714086E-006
   8.07500000000000         5.856322186564661E-006
   8.26500000000000         6.256861636203144E-006
   8.45500000000000         6.682316385239511E-006
   8.64500000000000         7.174709997339879E-006
   8.83500000000000         7.609567143790415E-006
   9.02500000000000         8.237788134573903E-006
   9.21500000000000         8.598773893658204E-006
   9.40500000000000         8.488707451644637E-006
   9.59500000000000         8.172597038932455E-006
   9.78500000000000         7.906884057229774E-006
   9.97500000000000         7.543249610235395E-006
   10.1650000000000         7.184166100519696E-006
   10.3550000000000         6.936254311997302E-006
   10.5450000000000         6.714666106497018E-006
   10.7350000000000         6.665622376656149E-006
   10.9250000000000         6.631195227382508E-006
   11.1150000000000         6.572749895045409E-006
   11.3050000000000         6.488018643086922E-006
   11.4950000000000         6.404284948467857E-006
   11.6850000000000         6.369889677997964E-006
   11.8750000000000         6.413677479618482E-006
   12.0650000000000         6.524672266961534E-006
   12.2550000000000         6.671945612098926E-006
   12.4450000000000         6.865433679907666E-006
   12.6350000000000         6.905947379601289E-006
   12.8250000000000         7.036809886820608E-006
   13.0150000000000         7.046904242613564E-006
   13.2050000000000         6.982609304269295E-006
   13.3950000000000         6.753679527025392E-006
   13.5850000000000         6.289282255751243E-006
   13.7750000000000         5.779212057432267E-006
   13.9650000000000         5.315363287290311E-006
   14.1550000000000         5.203921673045633E-006
   14.3450000000000         4.841303831914460E-006
   14.5350000000000         4.740363640900783E-006
   14.7250000000000         4.578974542905112E-006
   14.9150000000000         4.438117676718637E-006
   15.1050000000000         4.543748851658863E-006
   15.2950000000000         4.904539702287838E-006
   15.4850000000000         5.441279643469940E-006
   15.6750000000000         5.932513279213546E-006
   15.8650000000000         6.469714095513145E-006
   16.0550000000000         7.084083737710215E-006
   16.2450000000000         7.606630305829423E-006
   16.4350000000000         8.013058440278278E-006
   16.6250000000000         8.358295221206209E-006
   16.8150000000000         8.687939872690394E-006
   17.0050000000000         8.772045873551045E-006
   17.1950000000000         9.010266999510338E-006
   17.3850000000000         9.080931688631048E-006
   17.5750000000000         9.286549167111341E-006
   17.7650000000000         9.348534124122416E-006
   17.9550000000000         9.429269659933371E-006
   18.1450000000000         9.486961676674204E-006
   18.3350000000000         9.540494872479568E-006
   18.5250000000000         9.600001877793012E-006
   18.7150000000000         9.688151269700992E-006
   18.9050000000000         9.735621848172531E-006
   19.0950000000000         9.716011322707681E-006
   19.2850000000000         9.606083428546419E-006
   19.4750000000000         9.377594781411306E-006
   19.6650000000000         9.021013511188244E-006
   19.8550000000000         8.490902344073717E-006
   20.0450000000000         7.880736937076391E-006
   20.2350000000000         7.285315022852886E-006
   20.4250000000000         6.685902942642037E-006
   20.6150000000000         6.012260496405437E-006
   20.8050000000000         5.372006561888441E-006
   20.9950000000000         4.812378422779105E-006
   21.1850000000000         4.684051977807817E-006
   21.3750000000000         4.149480970975104E-006
   21.5650000000000         4.057511198517975E-006
   21.7550000000000         3.888045263238399E-006
   21.9450000000000         3.681847732846988E-006
   22.1350000000000         3.582838502411712E-006
   22.3250000000000         3.751758596658343E-006
   22.5150000000000         4.190328647533009E-006
   22.7050000000000         4.785830383805703E-006
   22.8950000000000         5.495967934787785E-006
   23.0850000000000         6.253232351143351E-006
   23.2750000000000         6.992533564589934E-006
   23.4650000000000         7.605736332107078E-006
   23.6550000000000         8.404524907919652E-006
   23.8450000000000         9.262403133487608E-006
   24.0350000000000         1.002967404947482E-005
   24.2250000000000         1.076025145315362E-005
   24.4150000000000         1.141402469681694E-005
   24.6050000000000         1.207321801023629E-005
   24.7950000000000         1.234595227161561E-005
   24.9850000000000         1.258874860000712E-005
   25.1750000000000         1.260595627287580E-005
   25.3650000000000         1.252408126835623E-005
   25.5550000000000         1.235896267451365E-005
   25.7450000000000         1.197418302736607E-005
   25.9350000000000         1.153050264490926E-005
   26.1250000000000         1.117482987455960E-005
   26.3150000000000         1.085337054233827E-005
   26.5050000000000         1.049309138845751E-005
   26.6950000000000         1.016400586997628E-005
   26.8850000000000         9.834621932032642E-006
   27.0750000000000         9.454478964217144E-006
   27.2650000000000         9.061218117362183E-006
   27.4550000000000         8.766134268530515E-006
   27.6450000000000         8.522614679856784E-006
   27.8350000000000         8.452513007386124E-006
   28.0250000000000         8.169535247236967E-006
   28.2150000000000         7.922903132399090E-006
   28.4050000000000         7.520025642100112E-006
   28.5950000000000         6.699144868420454E-006
   28.7850000000000         5.739206079490775E-006
   28.9750000000000         4.535967361770361E-006
   29.1650000000000         3.221539269520254E-006
   29.3550000000000         1.845555559023502E-006
   29.5450000000000         6.080329168556686E-007
   29.7350000000000        -4.851514364122988E-007
   29.9250000000000        -1.455759112804290E-006
   30.1150000000000        -2.190948621080339E-006
   30.3050000000000        -2.632150419278943E-006
   30.4950000000000        -2.773306597359483E-006
   30.6850000000000        -2.839058028981946E-006
   30.8750000000000        -2.690571906237337E-006
   31.0650000000000        -1.812074583141145E-006
   31.2550000000000        -4.246123225145431E-007
   31.4450000000000         1.065694145789330E-006
   31.6350000000000         2.736185531026520E-006
   31.8250000000000         4.382275246375659E-006
   32.0150000000000         5.883341132165384E-006
   32.2050000000000         7.167243437397413E-006
   32.3950000000000         8.308338559031895E-006
   32.5850000000000         9.267430850099277E-006
   32.7750000000000         9.885061971005412E-006
   32.9650000000000         1.035281836817495E-005
   33.1550000000000         1.057846685756099E-005
   33.3450000000000         1.085741225931004E-005
   33.5350000000000         1.118021314656969E-005
   33.7250000000000         1.145093693428854E-005
   33.9150000000000         1.151459665125212E-005
   34.1050000000000         1.124297231840700E-005
   34.2950000000000         1.077400357202247E-005
   34.4850000000000         1.038482975115295E-005
   34.6750000000000         9.886875950563965E-006
   34.8650000000000         9.306576783934892E-006
   35.0550000000000         8.697942606297622E-006
   35.2450000000000         7.984076791657087E-006
   35.4350000000000         7.435035412463419E-006
   35.6250000000000         7.091010672614307E-006
   35.8150000000000         6.868933794768228E-006
   36.0050000000000         6.764870698403627E-006
   36.1950000000000         6.686449838557956E-006
   36.3850000000000         6.647502304977226E-006
   36.5750000000000         6.594604825360686E-006
   36.7650000000000         6.544574606259318E-006
   36.9550000000000         6.450465912360216E-006
   37.1450000000000         6.307838777943490E-006
   37.3350000000000         6.146405453431372E-006
   37.5250000000000         5.984901808415387E-006
   37.7150000000000         5.820867193403604E-006
   37.9050000000000         5.673813257999932E-006
   38.0950000000000         5.594843744078285E-006
   38.2850000000000         5.574330325257063E-006
   38.4750000000000         6.025818649092809E-006
   38.6650000000000         7.197758773018999E-006
   38.8550000000000         8.378877781633966E-006
   39.0450000000000         9.598436977200920E-006
   39.2350000000000         1.086174745126069E-005
   39.4250000000000         1.200672094762176E-005
   39.6150000000000         1.292583310576085E-005
   39.8050000000000         1.373991330352706E-005
   39.9950000000000         1.419111650819534E-005
   40.1850000000000         1.458578751858241E-005
   40.3750000000000         1.465168068354647E-005
   40.5650000000000         1.476359866418324E-005
   40.7550000000000         1.490935428657723E-005
   40.9450000000000         1.496413070336589E-005
   41.1350000000000         1.465138607591000E-005
   41.3250000000000         1.390404521313308E-005
   41.5150000000000         1.298741386790857E-005
   41.7050000000000         1.207926379309009E-005
   41.8950000000000         1.107557719549363E-005
   42.0850000000000         1.009776179477508E-005
   42.2750000000000         9.161394693898684E-006
   42.4650000000000         8.246254913531622E-006
   42.6550000000000         7.428143013179720E-006
   42.8450000000000         6.643381678339466E-006
   43.0350000000000         5.980569430736913E-006
   43.2250000000000         5.522899564045034E-006
   43.4150000000000         4.925632815596390E-006
   43.6050000000000         4.762815681144860E-006
   43.7950000000000         4.534954294990701E-006
   43.9850000000000         4.345727479993401E-006
   44.1750000000000         4.098994264330112E-006
   44.3650000000000         3.782564117861826E-006
   44.5550000000000         3.565192418383176E-006
   44.7450000000000         3.847672999632609E-006
   44.9350000000000         4.823503768753052E-006
   45.1250000000000         6.177657432554860E-006
   45.3150000000000         7.498088437118177E-006
   45.5050000000000         8.787547167084639E-006
   45.6950000000000         9.805248256642931E-006
   45.8850000000000         1.061815182930935E-005
   46.0750000000000         1.098675605383425E-005
   46.2650000000000         1.128611396797059E-005
   46.4550000000000         1.150547877677338E-005
   46.6450000000000         1.179981406931717E-005
   46.8350000000000         1.191963009234405E-005
   47.0250000000000         1.148166033039184E-005
   47.2150000000000         1.045791334591276E-005
   47.4050000000000         9.431004915575906E-006
   47.5950000000000         8.354649694493735E-006
   47.7850000000000         7.292659487076367E-006
   47.9750000000000         6.268870010193452E-006
   48.1650000000000         5.400125840796263E-006
   48.3550000000000         4.566859370489029E-006
   48.5450000000000         4.011559143640511E-006
   48.7350000000000         3.508202264317393E-006
   48.9250000000000         3.183407655477698E-006
   49.1150000000000         2.912238861371764E-006
   49.3050000000000         2.478321669741491E-006
   49.4950000000000         2.153672333168702E-006
   49.6850000000000         2.271756742290599E-006
   49.8750000000000         2.763165463986664E-006
   50.0650000000000         3.328536899004731E-006
   50.2550000000000         4.001772685592933E-006
   50.4450000000000         4.649400827913736E-006
   50.6350000000000         5.011205782161940E-006
   50.8250000000000         5.593957378838248E-006
   51.0150000000000         5.692908961188668E-006
   51.2050000000000         5.883098459715026E-006
   51.3950000000000         6.234656187905950E-006
   51.5850000000000         6.800065335007144E-006
   51.7750000000000         7.169546618390001E-006
   51.9650000000000         7.131926580236427E-006
   52.1550000000000         7.000420427468626E-006
   52.3450000000000         6.932431942466165E-006
   52.5350000000000         6.917349101299861E-006
   52.7250000000000         6.985162837303893E-006
   52.9150000000000         7.062557141719292E-006
   53.1050000000000         7.297886147627607E-006
   53.2950000000000         7.554064713812094E-006
   53.4850000000000         7.997482924594740E-006
   53.6750000000000         8.807487082438726E-006
   53.8650000000000         9.583499424639346E-006
   54.0550000000000         1.033547956482077E-005
   54.2450000000000         1.108347720811924E-005
   54.4350000000000         1.181969410961271E-005
   54.6250000000000         1.247361644688876E-005
   54.8150000000000         1.305395765682330E-005
   55.0050000000000         1.353171389580202E-005
   55.1950000000000         1.383786876467386E-005
   55.3850000000000         1.410189277887379E-005
   55.5750000000000         1.421809280597808E-005
   55.7650000000000         1.425858181784094E-005
   55.9550000000000         1.416121784274439E-005
   56.1450000000000         1.364495447200086E-005
   56.3350000000000         1.261140206125391E-005
   56.5250000000000         1.144741262018201E-005
   56.7150000000000         1.023601676645851E-005
   56.9050000000000         8.968489980156750E-006
   57.0950000000000         7.813352476257596E-006
   57.2850000000000         7.000879810101633E-006
   57.4750000000000         6.102762672773082E-006
   57.6650000000000         5.180625452588757E-006
   57.8550000000000         4.543502065810504E-006
   58.0450000000000         4.191582816956667E-006
   58.2350000000000         3.863601113453450E-006
   58.4250000000000         3.514420243321713E-006
   58.6150000000000         3.276686119042717E-006
   58.8050000000000         3.123408252245814E-006
   58.9950000000000         3.005264726040571E-006
   59.1850000000000         2.955654342925387E-006
   59.3750000000000         2.935939034838515E-006
   59.5650000000000         2.931567695512992E-006
   59.7550000000000         2.936494389605748E-006
   59.9450000000000         2.956257871693852E-006
   60.1350000000000         3.006546070317336E-006
   60.3250000000000         3.110329573349034E-006
   60.5150000000000         3.264596933424278E-006
   60.7050000000000         3.456167326524407E-006
   60.8950000000000         3.747178215865829E-006
   61.0850000000000         4.030167545004677E-006
   61.2750000000000         4.360243679566234E-006
   61.4650000000000         4.721076196802221E-006
   61.6550000000000         5.087811865563534E-006
   61.8450000000000         5.468854944459719E-006
   62.0350000000000         5.784615387799800E-006
   62.2250000000000         6.030381290819526E-006
   62.4150000000000         6.290622766067671E-006
   62.6050000000000         6.454571553362889E-006
   62.7950000000000         6.527350900912669E-006
   62.9850000000000         6.596371449634838E-006
   63.1750000000000         6.695516624839647E-006
   63.3650000000000         6.813293709409449E-006
   63.5550000000000         6.948015682509735E-006
   63.7450000000000         7.063482889448206E-006
   63.9350000000000         7.134238813285347E-006
   64.1250000000000         7.148310685236112E-006
   64.3150000000000         7.112421963772931E-006
   64.5050000000000         7.030695370309792E-006
   64.6950000000000         6.854056631056645E-006
   64.8850000000000         6.783651509800773E-006
   65.0750000000000         6.595005874350017E-006
   65.2650000000000         6.395936135912239E-006
   65.4550000000000         6.214920464474950E-006
   65.6450000000000         6.024147987992971E-006
   65.8350000000000         5.828062860029801E-006
   66.0250000000000         5.671816925772621E-006
   66.2150000000000         5.511513104183443E-006
   66.4050000000000         5.350006455691627E-006
   66.5950000000000         5.299468386713068E-006
   66.7850000000000         5.181565257104560E-006
   66.9750000000000         5.117279532832418E-006
   67.1650000000000         5.036425744620769E-006
   67.3550000000000         4.944657035970580E-006
   67.5450000000000         4.850496793042420E-006
   67.7350000000000         4.780627672692416E-006
   67.9250000000000         4.777369559191971E-006
   68.1150000000000         4.875515706331683E-006
   68.3050000000000         5.126134770996868E-006
   68.4950000000000         5.482325204850501E-006
   68.6850000000000         5.911094357392483E-006
   68.8750000000000         6.401385073786969E-006
   69.0650000000000         6.931580914721814E-006
   69.2550000000000         7.494885876730358E-006
   69.4450000000000         8.041400688343726E-006
   69.6350000000000         8.491657529382772E-006
   69.8250000000000         8.744114674349418E-006
   70.0150000000000         9.032328706027003E-006
   70.2050000000000         9.285229760843762E-006
   70.3950000000000         9.562271170962027E-006
   70.5850000000000         9.809165060994575E-006
   70.7750000000000         1.007540991340681E-005
   70.9650000000000         1.033993555015288E-005
   71.1550000000000         1.070065175891383E-005
   71.3450000000000         1.097499206113045E-005
   71.5350000000000         1.133612085059592E-005
   71.7250000000000         1.147442678585105E-005
   71.9150000000000         1.171775669772861E-005
   72.1050000000000         1.178604434231107E-005
   72.2950000000000         1.185964326680489E-005
   72.4850000000000         1.191140436802503E-005
   72.6750000000000         1.194218039309776E-005
   72.8650000000000         1.200969605195155E-005
   73.0550000000000         1.206043232726285E-005
   73.2450000000000         1.208857258790502E-005
   73.4350000000000         1.206246542629659E-005
   73.6250000000000         1.189633876163203E-005
   73.8150000000000         1.159120093370239E-005
   74.0050000000000         1.112515256622751E-005
   74.1950000000000         1.057249358043825E-005
   74.3850000000000         9.901621760091713E-006
   74.5750000000000         9.214580132086896E-006
   74.7650000000000         8.514624076012796E-006
   74.9550000000000         7.912571589666035E-006
   75.1450000000000         7.414963079904002E-006
   75.3350000000000         7.281357527730840E-006
   75.5250000000000         6.882277237602896E-006
   75.7150000000000         6.822647205040972E-006
   75.9050000000000         6.722301041213141E-006
   76.0950000000000         6.582126642169895E-006
   76.2850000000000         6.477577558660297E-006
   76.4750000000000         6.465320379337145E-006
   76.6650000000000         6.501414798693219E-006
   76.8550000000000         6.513520076135684E-006
   77.0450000000000         6.512256468930241E-006
   77.2350000000000         6.426929675685217E-006
   77.4250000000000         6.052117078967924E-006
   77.6150000000000         5.321867345339707E-006
   77.8050000000000         4.488577547281315E-006
   77.9950000000000         3.677170470461320E-006
   78.1850000000000         2.871565513881813E-006
   78.3750000000000         2.134272722744077E-006
   78.5650000000000         1.578097312716906E-006
   78.7550000000000         1.075068239337121E-006
   78.9450000000000         9.205478212662207E-007
   79.1350000000000         6.588976766497470E-007
   79.3250000000000         5.324791774197047E-007
   79.5150000000000         3.440777390755113E-007
   79.7050000000000         1.076883708515470E-007
   79.8950000000000         3.571798809954514E-008
   80.0850000000000         4.108286782262538E-007
   80.2750000000000         1.264225629061349E-006
   80.4650000000000         2.430282182537301E-006
   80.6550000000000         3.720605459809745E-006
   80.8450000000000         5.056520820242695E-006
   81.0350000000000         6.460034260905080E-006
   81.2250000000000         7.757061861118230E-006
   81.4150000000000         8.958470478887445E-006
   81.6050000000000         1.009616916845557E-005
   81.7950000000000         1.068029649102883E-005
   81.9850000000000         1.129049744738990E-005
   82.1750000000000         1.165392131384614E-005
   82.3650000000000         1.210616269798542E-005
   82.5550000000000         1.268556965182342E-005
   82.7450000000000         1.294282255525962E-005
   82.9350000000000         1.278348571136376E-005
   83.1250000000000         1.243251145824807E-005
   83.3150000000000         1.203746222684256E-005
   83.5050000000000         1.165873904271768E-005
   83.6950000000000         1.144642127490810E-005
   83.8850000000000         1.105275457698439E-005
   84.0750000000000         1.096183738495345E-005
   84.2650000000000         1.084760596653810E-005
   84.4550000000000         1.079199512664311E-005
   84.6450000000000         1.073781385133557E-005
   84.8350000000000         1.068324572362440E-005
   85.0250000000000         1.057691265203607E-005
   85.2150000000000         1.042439637604196E-005
   85.4050000000000         1.023455580278625E-005
   85.5950000000000         9.975122396576520E-006
   85.7850000000000         9.727692549400459E-006
   85.9750000000000         9.528656274481789E-006
   86.1650000000000         9.320388577535920E-006
   86.3550000000000         9.073363826119430E-006
   86.5450000000000         8.738057762881036E-006
   86.7350000000000         8.328265701130447E-006
   86.9250000000000         7.874592238417442E-006
   87.1150000000000         7.420141665439677E-006
   87.3050000000000         6.943335259541738E-006
   87.4950000000000         6.485114383087180E-006
   87.6850000000000         6.104488235032922E-006
   87.8750000000000         5.888874522611346E-006
   88.0650000000000         5.686989606844610E-006
   88.2550000000000         5.595262099793729E-006
   88.4450000000000         5.513201249896351E-006
   88.6350000000000         5.447369929835179E-006
   88.8250000000000         5.375504402564332E-006
   89.0150000000000         5.376670669616164E-006
   89.2050000000000         5.516687470926616E-006
   89.3950000000000         5.798580614729706E-006
   89.5850000000000         6.069773183663157E-006
   89.7750000000000         6.239662341584029E-006
   89.9650000000000         6.446975328569191E-006
   90.1550000000000         6.715197436751126E-006
   90.3450000000000         6.989417984603283E-006
   90.5350000000000         7.343137715196714E-006
   90.7250000000000         7.722716818263172E-006
   90.9150000000000         8.138429358426758E-006
   91.1050000000000         8.544010747421424E-006
   91.2950000000000         8.929656160779604E-006
   91.4850000000000         9.303586981614597E-006
   91.6750000000000         9.625551857213195E-006
   91.8650000000000         9.805735068455542E-006
   92.0550000000000         9.880763100312093E-006
   92.2450000000000         9.877198381647310E-006
   92.4350000000000         9.859261958852813E-006
   92.6250000000000         9.787801581115452E-006
   92.8150000000000         9.675619815964402E-006
   93.0050000000000         9.494922559873509E-006
   93.1950000000000         9.148382203220517E-006
   93.3850000000000         8.549946759303780E-006
   93.5750000000000         7.780946850720213E-006
   93.7650000000000         7.176510563985177E-006
   93.9550000000000         6.737519316999277E-006
   94.1450000000000         6.378575155445795E-006
   94.3350000000000         6.071736854399988E-006
   94.5250000000000         5.822029027740305E-006
   94.7150000000000         5.640708583108929E-006
   94.9050000000000         5.469984106259052E-006
   95.0950000000000         5.419847586440870E-006
   95.2850000000000         5.311111497392366E-006
   95.4750000000000         5.282330652687825E-006
   95.6650000000000         5.152761519255160E-006
   95.8550000000000         5.128917928910776E-006
   96.0450000000000         5.096545598082677E-006
   96.2350000000000         5.013413660581618E-006
   96.4250000000000         4.869265033694519E-006
   96.6150000000000         4.651329522543898E-006
   96.8050000000000         4.362548985551093E-006
   96.9950000000000         4.070560608925588E-006
   97.1850000000000         3.835146700703333E-006
   97.3750000000000         3.721787677718172E-006
   97.5650000000000         3.650094592668554E-006
   97.7550000000000         3.676415315731873E-006
   97.9450000000000         3.824129656834061E-006
   98.1350000000000         4.173286766290757E-006
   98.3250000000000         4.689380013153009E-006
   98.5150000000000         5.299342831225977E-006
   98.7050000000000         5.927218137765201E-006
   98.8950000000000         6.500571784458762E-006
   99.0850000000000         6.987300491486043E-006
   99.2750000000000         7.455169561861006E-006
   99.4650000000000         7.855091479159605E-006
   99.6550000000000         7.927366985257018E-006
   99.8450000000000         7.750706599433406E-006
   100.035000000000         7.347104909483268E-006
   100.225000000000         6.760188167201375E-006
   100.415000000000         6.081145595262593E-006
   100.605000000000         5.323460170674520E-006
   100.795000000000         4.671299341700579E-006
   100.985000000000         4.033090672677620E-006
   101.175000000000         3.822183117153642E-006
   101.365000000000         3.488141453222059E-006
   101.555000000000         3.378023976426851E-006
   101.745000000000         3.172432315344106E-006
   101.935000000000         2.886031883921804E-006
   102.125000000000         2.993917805543355E-006
   102.315000000000         3.836632646580036E-006
   102.505000000000         4.880673281493152E-006
   102.695000000000         5.896892951263623E-006
   102.885000000000         6.880895816060386E-006
   103.075000000000         7.764245387979476E-006
   103.265000000000         8.410104464275952E-006
   103.455000000000         8.902242208841924E-006
   103.645000000000         9.224359730850682E-006
   103.835000000000         9.420589636182763E-006
   104.025000000000         9.527076661965090E-006
   104.215000000000         9.536470628131494E-006
   104.405000000000         9.556473213365086E-006
   104.595000000000         9.550962386987226E-006
   104.785000000000         9.503394180730229E-006
   104.975000000000         9.381360804908007E-006
   105.165000000000         9.188076651028839E-006
   105.355000000000         8.970873620874703E-006
   105.545000000000         8.751313433874879E-006
   105.735000000000         8.528225981718205E-006
   105.925000000000         8.320474232367263E-006
   106.115000000000         8.153320958955459E-006
   106.305000000000         7.935250245213299E-006
   106.495000000000         7.825144243928836E-006
   106.685000000000         7.596819446096703E-006
   106.875000000000         7.503984304341619E-006
   107.065000000000         7.321582513330329E-006
   107.255000000000         7.135585078147413E-006
   107.445000000000         6.957735363706334E-006
   107.635000000000         6.794787029675629E-006
   107.825000000000         6.659680088285068E-006
   108.015000000000         6.554738770166583E-006
   108.205000000000         6.460045143470994E-006
   108.395000000000         6.353073166998201E-006
   108.585000000000         6.258675056548721E-006
   108.775000000000         6.199646765460045E-006
   108.965000000000         6.146017378079677E-006
   109.155000000000         6.138924945774035E-006
   109.345000000000         6.100675579841755E-006
   109.535000000000         6.098635016160477E-006
   109.725000000000         6.092958416089813E-006
   109.915000000000         6.085355761226824E-006
   110.105000000000         6.080157418046396E-006