  -1.42500000000000         5.772410150125411E-019
  -1.23500000000000        -2.533613037470514E-017
  -1.04500000000000        -1.317695379774792E-016
 -0.855000000000000        -7.565662372507202E-016
 -0.665000000000000        -3.281410293380301E-015
 -0.475000000000000        -1.138992015865839E-014
 -0.285000000000000        -3.116042563775087E-014
 -9.499999999999975E-002   -6.929414825782019E-014
  9.500000000000020E-002   -1.236232849768679E-013
  0.285000000000000        -1.954125014374172E-013
  0.475000000000000        -2.928081887713891E-013
  0.665000000000000        -4.310160394197253E-013
  0.855000000000000        -5.909738527781825E-013
   1.04500000000000        -6.935793017373460E-013
   1.23500000000000        -7.799895466511651E-013
   1.42500000000000        -8.844736108741704E-013
   1.61500000000000        -9.935323376064602E-013
   1.80500000000000        -1.109934474052990E-012
   1.99500000000000        -1.181982368220160E-012
   2.18500000000000        -1.228891058988057E-012
   2.37500000000000        -1.247847736120240E-012
   2.56500000000000        -1.236045115571607E-012
   2.75500000000000        -1.205415502415999E-012
   2.94500000000000        -1.168438147884804E-012
   3.13500000000000        -1.141588148106884E-012
   3.32500000000000        -1.141538553880502E-012
   3.51500000000000        -1.112539920576073E-012
   3.70500000000000        -1.100587140720853E-012
   3.89500000000000        -1.082283970676853E-012
   4.08500000000000        -1.065263261709889E-012
   4.27500000000000        -1.044373768391384E-012
   4.46500000000000        -1.007395221767781E-012
   4.65500000000000        -9.557568394796455E-013
   4.84500000000000        -8.994689992294898E-013
   5.03500000000000        -8.558236111644323E-013
   5.22500000000000        -8.468046037060717E-013
   5.41500000000000        -8.160499728371981E-013
   5.60500000000000        -7.717604913610168E-013
   5.79500000000000        -6.904988758212695E-013
   5.98500000000000        -6.043885635435198E-013
   6.17500000000000        -5.227149856384171E-013
   6.36500000000000        -4.355927287350555E-013
   6.55500000000000        -3.959710868575091E-013
   6.74500000000000        -3.686563776791837E-013
   6.93500000000000        -3.625831511039133E-013
   7.12500000000000        -4.287291579240383E-013
   7.31500000000000        -5.285356597740921E-013
   7.50500000000000        -6.409671898964401E-013
   7.69500000000000        -7.573933435638427E-013
   7.88500000000000        -8.802638001661232E-013
   8.07500000000000        -1.012583724782909E-012
   8.26500000000000        -1.112108732652274E-012
   8.45500000000000        -1.205797177730827E-012
   8.64500000000000        -1.292711741039247E-012
   8.83500000000000        -1.334122591356179E-012
   9.02500000000000        -1.352184704094695E-012
   9.21500000000000        -1.207655749856020E-012
   9.40500000000000        -1.004661175434683E-012
   9.59500000000000        -8.292380849162965E-013
   9.78500000000000        -7.062410858773950E-013
   9.97500000000000        -5.936786220948069E-013
   10.1650000000000        -5.011564312943550E-013
   10.3550000000000        -4.210967298511677E-013
   10.5450000000000        -3.503248018682883E-013
   10.7350000000000        -3.401406867768257E-013
   10.9250000000000        -3.296667827442867E-013
   11.1150000000000        -3.140736919305907E-013
   11.3050000000000        -2.938785955113469E-013
   11.4950000000000        -2.788238939190595E-013
   11.6850000000000        -2.870978328062527E-013
   11.8750000000000        -3.219252715993332E-013
   12.0650000000000        -3.730875598654088E-013
   12.2550000000000        -4.280362267170768E-013
   12.4450000000000        -4.928881770796814E-013
   12.6350000000000        -5.021098352938760E-013
   12.8250000000000        -5.389971049866760E-013
   13.0150000000000        -5.477731296262870E-013
   13.2050000000000        -5.317468692359524E-013
   13.3950000000000        -4.776791598528494E-013
   13.5850000000000        -3.803784510195950E-013
   13.7750000000000        -3.134460500549175E-013
   13.9650000000000        -2.696529661316694E-013
   14.1550000000000        -2.649544751670029E-013
   14.3450000000000        -2.325526163556527E-013
   14.5350000000000        -2.276984860371523E-013
   14.7250000000000        -2.236649404369963E-013
   14.9150000000000        -2.511173582730676E-013
   15.1050000000000        -3.565508653343739E-013
   15.2950000000000        -4.738966805414268E-013
   15.4850000000000        -5.954860347694302E-013
   15.6750000000000        -6.744803367896264E-013
   15.8650000000000        -7.515854444256003E-013
   16.0550000000000        -8.316208486919206E-013
   16.2450000000000        -8.907576817126436E-013
   16.4350000000000        -9.346557074149309E-013
   16.6250000000000        -9.603070309933047E-013
   16.8150000000000        -9.922533031158438E-013
   17.0050000000000        -1.006210148213722E-012
   17.1950000000000        -1.026498894946681E-012
   17.3850000000000        -1.034536580065968E-012
   17.5750000000000        -1.048465915744346E-012
   17.7650000000000        -1.053455384640355E-012
   17.9550000000000        -1.057849349516155E-012
   18.1450000000000        -1.061435231956220E-012
   18.3350000000000        -1.065996295863454E-012
   18.5250000000000        -1.070304480889315E-012
   18.7150000000000        -1.067274905110781E-012
   18.9050000000000        -1.050567758628249E-012
   19.0950000000000        -1.025559942481489E-012
   19.2850000000000        -9.933523233100960E-013
   19.4750000000000        -9.482750103161129E-013
   19.6650000000000        -8.930108115202771E-013
   19.8550000000000        -8.090773173016678E-013
   20.0450000000000        -7.412461409001778E-013
   20.2350000000000        -6.855127224467524E-013
   20.4250000000000        -6.271636177755954E-013
   20.6150000000000        -5.585364742838649E-013
   20.8050000000000        -4.963318136647985E-013
   20.9950000000000        -4.545584728662296E-013
   21.1850000000000        -4.549030188629621E-013
   21.3750000000000        -4.090541688876585E-013
   21.5650000000000        -4.061039460101796E-013
   21.7550000000000        -3.982463355762168E-013
   21.9450000000000        -4.024381106390719E-013
   22.1350000000000        -4.549503431492464E-013
   22.3250000000000        -5.791946127393343E-013
   22.5150000000000        -7.235503783987486E-013
   22.7050000000000        -8.604401500546341E-013
   22.8950000000000        -1.011886505485497E-012
   23.0850000000000        -1.161449655479979E-012
   23.2750000000000        -1.288753233832940E-012
   23.4650000000000        -1.392322367321258E-012
   23.6550000000000        -1.499120645199564E-012
   23.8450000000000        -1.598431658645491E-012
   24.0350000000000        -1.668333909601358E-012
   24.2250000000000        -1.702884219244007E-012
   24.4150000000000        -1.719291205041887E-012
   24.6050000000000        -1.689960687069953E-012
   24.7950000000000        -1.648498437614576E-012
   24.9850000000000        -1.582013976634826E-012
   25.1750000000000        -1.505414122660752E-012
   25.3650000000000        -1.393729593598353E-012
   25.5550000000000        -1.299683613350237E-012
   25.7450000000000        -1.144841665281781E-012
   25.9350000000000        -1.002562874101147E-012
   26.1250000000000        -9.190344152390605E-013
   26.3150000000000        -8.531773167299473E-013
   26.5050000000000        -7.817686519605829E-013
   26.6950000000000        -7.250705392921750E-013
   26.8850000000000        -6.824211316427184E-013
   27.0750000000000        -6.568291943464825E-013
   27.2650000000000        -6.586182860290847E-013
   27.4550000000000        -6.911630296766894E-013
   27.6450000000000        -7.285484275527908E-013
   27.8350000000000        -7.234182010796842E-013
   28.0250000000000        -7.338008670297767E-013
   28.2150000000000        -7.434957255617443E-013
   28.4050000000000        -7.002793833075651E-013
   28.5950000000000        -6.082245615590476E-013
   28.7850000000000        -4.905083604819630E-013
   28.9750000000000        -2.703342961417532E-013
   29.1650000000000        -8.393342570701147E-014
   29.3550000000000         1.134517492329788E-013
   29.5450000000000         2.935247217789144E-013
   29.7350000000000         4.886666812685354E-013
   29.9250000000000         6.855614367747264E-013
   30.1150000000000         8.325098917982139E-013
   30.3050000000000         9.495298109064281E-013
   30.4950000000000         9.522433259111644E-013
   30.6850000000000         9.750159387038130E-013
   30.8750000000000         9.466575436968285E-013
   31.0650000000000         7.549044492342617E-013
   31.2550000000000         5.552720082793822E-013
   31.4450000000000         3.288995966698846E-013
   31.6350000000000         8.071437052724374E-014
   31.8250000000000        -1.944251086876237E-013
   32.0150000000000        -4.766102636137958E-013
   32.2050000000000        -6.864830716505293E-013
   32.3950000000000        -7.966063983767923E-013
   32.5850000000000        -9.273788243183811E-013
   32.7750000000000        -1.038743216225382E-012
   32.9650000000000        -1.083070129324999E-012
   33.1550000000000        -1.108109927265032E-012
   33.3450000000000        -1.137764630974766E-012
   33.5350000000000        -1.162645605178471E-012
   33.7250000000000        -1.147288674184051E-012
   33.9150000000000        -1.048055676937583E-012
   34.1050000000000        -8.792042228798568E-013
   34.2950000000000        -7.215407539401733E-013
   34.4850000000000        -6.456470887734545E-013
   34.6750000000000        -5.413784144712220E-013
   34.8650000000000        -4.448213120892354E-013
   35.0550000000000        -3.701052749577738E-013
   35.2450000000000        -3.350012513199145E-013
   35.4350000000000        -3.728278622406604E-013
   35.6250000000000        -4.491388010561471E-013
   35.8150000000000        -5.377821045719125E-013
   36.0050000000000        -6.057421410233846E-013
   36.1950000000000        -6.839198767491239E-013
   36.3850000000000        -7.164397596387769E-013
   36.5750000000000        -7.548781725913680E-013
   36.7650000000000        -7.613702787496893E-013
   36.9550000000000        -7.754275311654841E-013
   37.1450000000000        -7.702173400703228E-013
   37.3350000000000        -7.528075091021031E-013
   37.5250000000000        -7.298334556784678E-013
   37.7150000000000        -7.034439016236108E-013
   37.9050000000000        -6.785688179993684E-013
   38.0950000000000        -6.676816854099139E-013
   38.2850000000000        -6.936127798372717E-013
   38.4750000000000        -8.155939927598213E-013
   38.6650000000000        -1.085944905339992E-012
   38.8550000000000        -1.253591017163112E-012
   39.0450000000000        -1.458808620509675E-012
   39.2350000000000        -1.672318645271044E-012
   39.4250000000000        -1.876736768183546E-012
   39.6150000000000        -2.003908448239054E-012
   39.8050000000000        -2.111571018229875E-012
   39.9950000000000        -2.188723053968767E-012
   40.1850000000000        -2.247027845436297E-012
   40.3750000000000        -2.255651026996747E-012
   40.5650000000000        -2.271362489595058E-012
   40.7550000000000        -2.280909388584076E-012
   40.9450000000000        -2.233732897719332E-012
   41.1350000000000        -2.094477835326186E-012
   41.3250000000000        -1.875413884334338E-012
   41.5150000000000        -1.691093256115255E-012
   41.7050000000000        -1.513891448192980E-012
   41.8950000000000        -1.305018218327117E-012
   42.0850000000000        -1.113178095770543E-012
   42.2750000000000        -9.273035402519634E-013
   42.4650000000000        -7.423852000357801E-013
   42.6550000000000        -5.733675304099462E-013
   42.8450000000000        -4.128996748210816E-013
   43.0350000000000        -2.770235051779618E-013
   43.2250000000000        -1.822534347721049E-013
   43.4150000000000        -5.931490339708507E-014
   43.6050000000000        -1.710712160285357E-014
   43.7950000000000         2.970871641401626E-014
   43.9850000000000         7.132032440232505E-014
   44.1750000000000         1.169508133292919E-013
   44.3650000000000         1.545759287410052E-013
   44.5550000000000         1.035347101173572E-013
   44.7450000000000        -8.656895037393185E-014
   44.9350000000000        -4.242573621113579E-013
   45.1250000000000        -7.164871811016668E-013
   45.3150000000000        -9.488656830198504E-013
   45.5050000000000        -1.159254753825833E-012
   45.6950000000000        -1.305479544357694E-012
   45.8850000000000        -1.377042456421268E-012
   46.0750000000000        -1.437403460524361E-012
   46.2650000000000        -1.456988563116380E-012
   46.4550000000000        -1.479370152196246E-012
   46.6450000000000        -1.492606970990215E-012
   46.8350000000000        -1.408521454881390E-012
   47.0250000000000        -1.180688933757104E-012
   47.2150000000000        -8.900181809141638E-013
   47.4050000000000        -6.938646220247191E-013
   47.5950000000000        -5.073346768529588E-013
   47.7850000000000        -3.426332206617899E-013
   47.9750000000000        -2.070434791517772E-013
   48.1650000000000        -8.398409242427996E-014
   48.3550000000000         5.337945268516711E-014
   48.5450000000000         1.476427770497275E-013
   48.7350000000000         2.141127965137634E-013
   48.9250000000000         2.447104335468841E-013
   49.1150000000000         2.693228183005351E-013
   49.3050000000000         2.885650302685907E-013
   49.4950000000000         1.887790042786650E-013
   49.6850000000000        -4.231871087410007E-014
   49.8750000000000        -3.507272140631921E-013
   50.0650000000000        -5.312137880796972E-013
   50.2550000000000        -7.517190451902258E-013
   50.4450000000000        -9.164796498830264E-013
   50.6350000000000        -1.023309458553420E-012
   50.8250000000000        -1.166152151267792E-012
   51.0150000000000        -1.199845363666969E-012
   51.2050000000000        -1.235164185225691E-012
   51.3950000000000        -1.296127223623744E-012
   51.5850000000000        -1.331478107306420E-012
   51.7750000000000        -1.157011184692294E-012
   51.9650000000000        -9.426836648078007E-013
   52.1550000000000        -7.517140150484698E-013
   52.3450000000000        -6.488206047997441E-013
   52.5350000000000        -5.230991342803065E-013
   52.7250000000000        -4.958494027794473E-013
   52.9150000000000        -4.674257314171700E-013
   53.1050000000000        -4.719338472050306E-013
   53.2950000000000        -4.930606132007986E-013
   53.4850000000000        -5.268557013996211E-013
   53.6750000000000        -6.188980146940193E-013
   53.8650000000000        -7.219163818701476E-013
   54.0550000000000        -8.387645441872028E-013
   54.2450000000000        -9.667675443020537E-013
   54.4350000000000        -1.104418757741149E-012
   54.6250000000000        -1.224852721922449E-012
   54.8150000000000        -1.344782342011884E-012
   55.0050000000000        -1.446191578216545E-012
   55.1950000000000        -1.520651712508580E-012
   55.3850000000000        -1.576865259003376E-012
   55.5750000000000        -1.619437567833584E-012
   55.7650000000000        -1.625489109492403E-012
   55.9550000000000        -1.582698246061811E-012
   56.1450000000000        -1.463921899723648E-012
   56.3350000000000        -1.296315914138344E-012
   56.5250000000000        -1.140607715618135E-012
   56.7150000000000        -9.674731168995961E-013
   56.9050000000000        -7.974480758319239E-013
   57.0950000000000        -6.408881890114063E-013
   57.2850000000000        -5.357294928521521E-013
   57.4750000000000        -4.215520636136818E-013
   57.6650000000000        -3.100144395091480E-013
   57.8550000000000        -2.779487843783849E-013
   58.0450000000000        -2.794389233080434E-013
   58.2350000000000        -2.611808372554966E-013
   58.4250000000000        -2.517222551165193E-013
   58.6150000000000        -2.564521173701180E-013
   58.8050000000000        -2.685012780924571E-013
   58.9950000000000        -2.909215132790521E-013
   59.1850000000000        -3.100329263222605E-013
   59.3750000000000        -3.234378873623939E-013
   59.5650000000000        -3.323842600629151E-013
   59.7550000000000        -3.478883332589238E-013
   59.9450000000000        -3.721572630533334E-013
   60.1350000000000        -4.115623272939118E-013
   60.3250000000000        -4.611355363948447E-013
   60.5150000000000        -5.025323922632967E-013
   60.7050000000000        -5.174005967929036E-013
   60.8950000000000        -4.882551333513087E-013
   61.0850000000000        -4.476078360142957E-013
   61.2750000000000        -3.766682530803104E-013
   61.4650000000000        -3.067594854588886E-013
   61.6550000000000        -2.609999830788144E-013
   61.8450000000000        -2.079060457985914E-013
   62.0350000000000        -1.659111840610369E-013
   62.2250000000000        -1.336644186021529E-013
   62.4150000000000        -1.209089290363669E-013
   62.6050000000000        -9.375586276468069E-014
   62.7950000000000        -1.018095270835128E-013
   62.9850000000000        -1.059646254302653E-013
   63.1750000000000        -1.129402196163157E-013
   63.3650000000000        -1.199848611919790E-013
   63.5550000000000        -1.306390028758818E-013
   63.7450000000000        -1.410899031288299E-013
   63.9350000000000        -1.615497691940781E-013
   64.1250000000000        -2.023121092376847E-013
   64.3150000000000        -2.429037657874630E-013
   64.5050000000000        -2.758748301568105E-013
   64.6950000000000        -3.253163394133207E-013
   64.8850000000000        -3.500843628562195E-013
   65.0750000000000        -3.919723032176730E-013
   65.2650000000000        -4.321639417630311E-013
   65.4550000000000        -4.585466207185353E-013
   65.6450000000000        -4.837031094009849E-013
   65.8350000000000        -5.099367193238000E-013
   66.0250000000000        -5.476468669244951E-013
   66.2150000000000        -5.650238967281155E-013
   66.4050000000000        -5.689565536436727E-013
   66.5950000000000        -5.631092729086244E-013
   66.7850000000000        -5.664393148520959E-013
   66.9750000000000        -5.685388543293155E-013
   67.1650000000000        -5.748086429016484E-013
   67.3550000000000        -5.842395027773281E-013
   67.5450000000000        -5.982064794053307E-013
   67.7350000000000        -6.164129240830706E-013
   67.9250000000000        -6.441616681739235E-013
   68.1150000000000        -6.778420938625567E-013
   68.3050000000000        -7.168357808122037E-013
   68.4950000000000        -7.372752687129336E-013
   68.6850000000000        -7.648695647884251E-013
   68.8750000000000        -7.985659284719608E-013
   69.0650000000000        -8.373155431369301E-013
   69.2550000000000        -8.769789750516409E-013
   69.4450000000000        -9.156206789581924E-013
   69.6350000000000        -9.617376370255806E-013
   69.8250000000000        -9.781992837210201E-013
   70.0150000000000        -1.015462270872233E-012
   70.2050000000000        -1.060885911331715E-012
   70.3950000000000        -1.111327703471189E-012
   70.5850000000000        -1.165354150148466E-012
   70.7750000000000        -1.230708933447591E-012
   70.9650000000000        -1.301861692452797E-012
   71.1550000000000        -1.403225839791847E-012
   71.3450000000000        -1.480648368392249E-012
   71.5350000000000        -1.581574771641239E-012
   71.7250000000000        -1.627088816775057E-012
   71.9150000000000        -1.683165788509397E-012
   72.1050000000000        -1.702945746287074E-012
   72.2950000000000        -1.725002231792103E-012
   72.4850000000000        -1.739855720862867E-012
   72.6750000000000        -1.750918202510182E-012
   72.8650000000000        -1.769100503379420E-012
   73.0550000000000        -1.779214228032230E-012
   73.2450000000000        -1.775258721865144E-012
   73.4350000000000        -1.742374042248107E-012
   73.6250000000000        -1.658123717477667E-012
   73.8150000000000        -1.543784314149366E-012
   74.0050000000000        -1.393644635227227E-012
   74.1950000000000        -1.231405348325468E-012
   74.3850000000000        -1.035117388714144E-012
   74.5750000000000        -8.689168514198503E-013
   74.7650000000000        -7.056825712424130E-013
   74.9550000000000        -5.863446005762319E-013
   75.1450000000000        -4.750170863883014E-013
   75.3350000000000        -4.453238693429180E-013
   75.5250000000000        -3.769919645636579E-013
   75.7150000000000        -3.758530455560500E-013
   75.9050000000000        -3.661750638538662E-013
   76.0950000000000        -3.589916790608471E-013
   76.2850000000000        -3.795907980193549E-013
   76.4750000000000        -4.243226192970537E-013
   76.6650000000000        -4.654608708937006E-013
   76.8550000000000        -4.813506532364887E-013
   77.0450000000000        -4.835890229871232E-013
   77.2350000000000        -4.607236699627892E-013
   77.4250000000000        -3.720304455261359E-013
   77.6150000000000        -2.391241063612233E-013
   77.8050000000000        -9.411964030762729E-014
   77.9950000000000         3.305043220971229E-014
   78.1850000000000         1.534561416633720E-013
   78.3750000000000         2.704387572481489E-013
   78.5650000000000         3.722678915803207E-013
   78.7550000000000         4.535171205926783E-013
   78.9450000000000         4.893172239653809E-013
   79.1350000000000         5.405616818216428E-013
   79.3250000000000         5.746537672628713E-013
   79.5150000000000         6.101112476203877E-013
   79.7050000000000         6.286742077167532E-013
   79.8950000000000         5.487323739730086E-013
   80.0850000000000         3.525184465725804E-013
   80.2750000000000         8.482565010047423E-014
   80.4650000000000        -2.203733473460095E-013
   80.6550000000000        -4.604610292854703E-013
   80.8450000000000        -7.067541685391772E-013
   81.0350000000000        -9.568855916412802E-013
   81.2250000000000        -1.166018486764435E-012
   81.4150000000000        -1.331114425711304E-012
   81.6050000000000        -1.479846177747240E-012
   81.7950000000000        -1.609775339314132E-012
   81.9850000000000        -1.689234093448789E-012
   82.1750000000000        -1.731795953545083E-012
   82.3650000000000        -1.792570582255723E-012
   82.5550000000000        -1.803131235235703E-012
   82.7450000000000        -1.672217830864053E-012
   82.9350000000000        -1.473922354602247E-012
   83.1250000000000        -1.314919217942252E-012
   83.3150000000000        -1.185708242327587E-012
   83.5050000000000        -1.065818298177760E-012
   83.6950000000000        -1.005409340853620E-012
   83.8850000000000        -8.959551876516263E-013
   84.0750000000000        -8.606354948579125E-013
   84.2650000000000        -8.434992482229644E-013
   84.4550000000000        -8.395645597603346E-013
   84.6450000000000        -8.375397748758751E-013
   84.8350000000000        -8.354055072776368E-013
   85.0250000000000        -8.223600759091227E-013
   85.2150000000000        -8.088080949174104E-013
   85.4050000000000        -8.023152922243271E-013
   85.5950000000000        -8.056516568133633E-013
   85.7850000000000        -8.547194432398692E-013
   85.9750000000000        -9.216861688201121E-013
   86.1650000000000        -9.703922115724443E-013
   86.3550000000000        -9.958847963226381E-013
   86.5450000000000        -1.007892601263316E-012
   86.7350000000000        -1.007433087399472E-012
   86.9250000000000        -9.904017737602234E-013
   87.1150000000000        -9.642185570468444E-013
   87.3050000000000        -9.436414321700076E-013
   87.4950000000000        -9.335409122144858E-013
   87.6850000000000        -9.363416445522400E-013
   87.8750000000000        -9.583380740508628E-013
   88.0650000000000        -9.685456140813202E-013
   88.2550000000000        -9.817086355742723E-013
   88.4450000000000        -9.980015859813787E-013
   88.6350000000000        -1.012303642936676E-012
   88.8250000000000        -1.034007275692746E-012
   89.0150000000000        -1.066695182718940E-012
   89.2050000000000        -1.125955082806342E-012
   89.3950000000000        -1.135471443160762E-012
   89.5850000000000        -1.066535661831512E-012
   89.7750000000000        -1.002421848679722E-012
   89.9650000000000        -9.542420533459597E-013
   90.1550000000000        -9.251715269950805E-013
   90.3450000000000        -9.169541265724980E-013
   90.5350000000000        -9.097190541053531E-013
   90.7250000000000        -8.995095950040022E-013
   90.9150000000000        -8.912961151729180E-013
   91.1050000000000        -8.726798902520339E-013
   91.2950000000000        -8.531035957037681E-013
   91.4850000000000        -8.097235903381295E-013
   91.6750000000000        -7.485617715134709E-013
   91.8650000000000        -6.719072254369469E-013
   92.0550000000000        -5.879529457393509E-013
   92.2450000000000        -5.202861442410485E-013
   92.4350000000000        -4.754801021505423E-013
   92.6250000000000        -4.256555695802824E-013
   92.8150000000000        -3.758013943883061E-013
   93.0050000000000        -3.171360749974343E-013
   93.1950000000000        -2.247473974593212E-013
   93.3850000000000        -1.366990848157604E-013
   93.5750000000000        -1.224700547904638E-013
   93.7650000000000        -2.129430043426793E-013
   93.9550000000000        -2.965015357741331E-013
   94.1450000000000        -3.838460135515560E-013
   94.3350000000000        -4.468563267083418E-013
   94.5250000000000        -5.052942156882716E-013
   94.7150000000000        -5.674201546244700E-013
   94.9050000000000        -6.343865759934520E-013
   95.0950000000000        -6.767352979189372E-013
   95.2850000000000        -7.253603020926549E-013
   95.4750000000000        -7.567357854952305E-013
   95.6650000000000        -7.924091403546450E-013
   95.8550000000000        -8.078509368705757E-013
   96.0450000000000        -8.176532554414961E-013
   96.2350000000000        -8.141308155106390E-013
   96.4250000000000        -7.889084115900892E-013
   96.6150000000000        -7.389897785098083E-013
   96.8050000000000        -6.755136977186841E-013
   96.9950000000000        -6.166270990002547E-013
   97.1850000000000        -5.710107224015921E-013
   97.3750000000000        -5.412604346265590E-013
   97.5650000000000        -5.402538813358857E-013
   97.7550000000000        -5.612782689443104E-013
   97.9450000000000        -6.104996213651703E-013
   98.1350000000000        -6.981351720657754E-013
   98.3250000000000        -7.759919003676027E-013
   98.5150000000000        -8.409327552895787E-013
   98.7050000000000        -8.948793054890022E-013
   98.8950000000000        -9.296137401274726E-013
   99.0850000000000        -9.395800652918309E-013
   99.2750000000000        -8.940046846902516E-013
   99.4650000000000        -8.175549050477078E-013
   99.6550000000000        -6.695988559494113E-013
   99.8450000000000        -4.849123444921029E-013
   100.035000000000        -2.910766943114486E-013
   100.225000000000        -7.284889299065145E-014
   100.415000000000         1.250921517607719E-013
   100.605000000000         3.228178187894977E-013
   100.795000000000         4.571796949202552E-013
   100.985000000000         5.995024922233640E-013
   101.175000000000         6.601991574334504E-013
   101.365000000000         7.403611502790511E-013
   101.555000000000         7.659315381614796E-013
   101.745000000000         8.096500421932005E-013
   101.935000000000         8.178984834689576E-013
   102.125000000000         6.385629435241358E-013
   102.315000000000         2.454683454892274E-013
   102.505000000000        -2.771394519809464E-014
   102.695000000000        -2.954992534833018E-013
   102.885000000000        -5.616325203335289E-013
   103.075000000000        -8.310591803050791E-013
   103.265000000000        -1.030944950757781E-012
   103.455000000000        -1.162327155559757E-012
   103.645000000000        -1.223903819167086E-012
   103.835000000000        -1.296154285035266E-012
   104.025000000000        -1.327771980724629E-012
   104.215000000000        -1.347114760827869E-012
   104.405000000000        -1.353405721697868E-012
   104.595000000000        -1.356412105550789E-012
   104.785000000000        -1.349367858215859E-012
   104.975000000000        -1.319529708488622E-012
   105.165000000000        -1.273538678697737E-012
   105.355000000000        -1.223210064441771E-012
   105.545000000000        -1.173626865417243E-012
   105.735000000000        -1.122979445409404E-012
   105.925000000000        -1.074351010654518E-012
   106.115000000000        -1.037305256048668E-012
   106.305000000000        -9.875491378434424E-013
   106.495000000000        -9.602299562114802E-013
   106.685000000000        -9.059164016143639E-013
   106.875000000000        -8.808715011729005E-013
   107.065000000000        -8.407255125434794E-013
   107.255000000000        -8.037304911109254E-013
   107.445000000000        -7.732785936294556E-013
   107.635000000000        -7.507778660629676E-013
   107.825000000000        -7.373756614783070E-013
   108.015000000000        -7.320240180064627E-013
   108.205000000000        -7.308424874733978E-013
   108.395000000000        -7.297000237983961E-013
   108.585000000000        -7.269552578763793E-013
   108.775000000000        -7.207706821829117E-013
   108.965000000000        -7.043948615816708E-013
   109.155000000000        -6.971229276814915E-013
   109.345000000000        -6.670862716051043E-013
   109.535000000000        -6.516158184307024E-013
   109.725000000000        -6.310094167336425E-013
   109.915000000000        -6.133905898049587E-013
   110.105000000000        -5.988239057126411E-013