  -1.42500000000000         5.483789642619142E-020
  -1.23500000000000        -2.297256592744605E-018
  -1.04500000000000        -1.722229508620212E-017
 -0.855000000000000        -1.016141937328811E-016
 -0.665000000000000        -4.852219641428281E-016
 -0.475000000000000        -1.878998357086504E-015
 -0.285000000000000        -5.921281207745382E-015
 -9.499999999999975E-002   -1.546446572782463E-014
  9.500000000000020E-002   -3.379162188512000E-014
  0.285000000000000        -6.410002159447711E-014
  0.475000000000000        -1.104809871643137E-013
  0.665000000000000        -1.792442888424696E-013
  0.855000000000000        -2.763333286012708E-013
   1.04500000000000        -3.983658782802459E-013
   1.23500000000000        -5.383549188771546E-013
   1.42500000000000        -6.964789188420614E-013
   1.61500000000000        -8.748894839477216E-013
   1.80500000000000        -1.074718831055369E-012
   1.99500000000000        -1.292450931071318E-012
   2.18500000000000        -1.521483906656099E-012
   2.37500000000000        -1.756774092191387E-012
   2.56500000000000        -1.992743913102113E-012
   2.75500000000000        -2.224682671810936E-012
   2.94500000000000        -2.450198768589512E-012
   3.13500000000000        -2.669651266708722E-012
   3.32500000000000        -2.886548303397524E-012
   3.51500000000000        -3.100685758470898E-012
   3.70500000000000        -3.310932829294106E-012
   3.89500000000000        -3.518305584876888E-012
   4.08500000000000        -3.722322571953628E-012
   4.27500000000000        -3.922738089813250E-012
   4.46500000000000        -4.117656143878370E-012
   4.65500000000000        -4.304155589696876E-012
   4.84500000000000        -4.480402044374244E-012
   5.03500000000000        -4.647154842361668E-012
   5.22500000000000        -4.808904522774366E-012
   5.41500000000000        -4.966875707545976E-012
   5.60500000000000        -5.117717701644807E-012
   5.79500000000000        -5.256632341527122E-012
   5.98500000000000        -5.379646648266777E-012
   6.17500000000000        -5.486721485439062E-012
   6.36500000000000        -5.577760718304541E-012
   6.55500000000000        -5.656759280785835E-012
   6.74500000000000        -5.729398889916821E-012
   6.93500000000000        -5.798866645151215E-012
   7.12500000000000        -5.874041314508871E-012
   7.31500000000000        -5.964981472190191E-012
   7.50500000000000        -6.076084242908893E-012
   7.69500000000000        -6.208928493587619E-012
   7.88500000000000        -6.364505922241967E-012
   8.07500000000000        -6.544326437112128E-012
   8.26500000000000        -6.746172220568470E-012
   8.45500000000000        -6.966373282054864E-012
   8.64500000000000        -7.203731629338022E-012
   8.83500000000000        -7.453280890915585E-012
   9.02500000000000        -7.708480083983418E-012
   9.21500000000000        -7.951664927108733E-012
   9.40500000000000        -8.161835035011352E-012
   9.59500000000000        -8.336055464744698E-012
   9.78500000000000        -8.481925985970097E-012
   9.97500000000000        -8.605418358227458E-012
   10.1650000000000        -8.709427688299428E-012
   10.3550000000000        -8.797041738608252E-012
   10.5450000000000        -8.870326784121601E-012
   10.7350000000000        -8.935921005542888E-012
   10.9250000000000        -8.999552715147391E-012
   11.1150000000000        -9.060708060241506E-012
   11.3050000000000        -9.118463527548488E-012
   11.4950000000000        -9.172870264044378E-012
   11.6850000000000        -9.226632828083282E-012
   11.8750000000000        -9.284490023001817E-012
   12.0650000000000        -9.350516241990964E-012
   12.2550000000000        -9.426623001716302E-012
   12.4450000000000        -9.514110820076993E-012
   12.6350000000000        -9.608635631252483E-012
   12.8250000000000        -9.707540790579135E-012
   13.0150000000000        -9.810783962867366E-012
   13.2050000000000        -9.913338362759280E-012
   13.3950000000000        -1.000923383552272E-011
   13.5850000000000        -1.009074930855560E-011
   13.7750000000000        -1.015666263615768E-011
   13.9650000000000        -1.021205704269540E-011
   14.1550000000000        -1.026284474961878E-011
   14.3450000000000        -1.031010792331343E-011
   14.5350000000000        -1.035383177804075E-011
   14.7250000000000        -1.039671130355579E-011
   14.9150000000000        -1.044181562193325E-011
   15.1050000000000        -1.049954410317595E-011
   15.2950000000000        -1.057843662003415E-011
   15.4850000000000        -1.068002797798868E-011
   15.6750000000000        -1.080067478328680E-011
   15.8650000000000        -1.093615103250224E-011
   16.0550000000000        -1.108655563034841E-011
   16.2450000000000        -1.125018159073685E-011
   16.4350000000000        -1.142359586270397E-011
   16.6250000000000        -1.160361732285275E-011
   16.8150000000000        -1.178911055459311E-011
   17.0050000000000        -1.197896458246942E-011
   17.1950000000000        -1.217207194156966E-011
   17.3850000000000        -1.236787031169586E-011
   17.5750000000000        -1.256575554879784E-011
   17.7650000000000        -1.276543807233439E-011
   17.9550000000000        -1.296601202207926E-011
   18.1450000000000        -1.316734405731913E-011
   18.3350000000000        -1.336945005246200E-011
   18.5250000000000        -1.357239862625351E-011
   18.7150000000000        -1.377546866792352E-011
   18.9050000000000        -1.397666372097873E-011
   19.0950000000000        -1.417389585258415E-011
   19.2850000000000        -1.436569251783435E-011
   19.4750000000000        -1.455014711452884E-011
   19.6650000000000        -1.472506926760330E-011
   19.8550000000000        -1.488676763984139E-011
   20.0450000000000        -1.503404836837057E-011
   20.2350000000000        -1.516959046038852E-011
   20.4250000000000        -1.529429471270965E-011
   20.6150000000000        -1.540693622145530E-011
   20.8050000000000        -1.550714870881042E-011
   20.9950000000000        -1.559748328603087E-011
   21.1850000000000        -1.568388212774514E-011
   21.3750000000000        -1.576595806058145E-011
   21.5650000000000        -1.584339808149674E-011
   21.7550000000000        -1.591981135824745E-011
   21.9450000000000        -1.599587638063791E-011
   22.1350000000000        -1.607732828374780E-011
   22.3250000000000        -1.617557205455721E-011
   22.5150000000000        -1.629933282871533E-011
   22.7050000000000        -1.644981192891840E-011
   22.8950000000000        -1.662768296119471E-011
   23.0850000000000        -1.683414989648644E-011
   23.2750000000000        -1.706691917097116E-011
   23.4650000000000        -1.732162135308082E-011
   23.6550000000000        -1.759630843927029E-011
   23.8450000000000        -1.789057590813557E-011
   24.0350000000000        -1.820091863711902E-011
   24.2250000000000        -1.852118435935933E-011
   24.4150000000000        -1.884629102466649E-011
   24.6050000000000        -1.917016995441711E-011
   24.7950000000000        -1.948732357126214E-011
   24.9850000000000        -1.979422225061584E-011
   25.1750000000000        -2.008752792004892E-011
   25.3650000000000        -2.036294657309353E-011
   25.5550000000000        -2.061882082775365E-011
   25.7450000000000        -2.085105072922369E-011
   25.9350000000000        -2.105505416046507E-011
   26.1250000000000        -2.123760590295239E-011
   26.3150000000000        -2.140596601748944E-011
   26.5050000000000        -2.156128588451504E-011
   26.6950000000000        -2.170443560768405E-011
   26.8850000000000        -2.183814731642287E-011
   27.0750000000000        -2.196537609739185E-011
   27.2650000000000        -2.209034360802753E-011
   27.4550000000000        -2.221857283301958E-011
   27.6450000000000        -2.235344542145637E-011
   27.8350000000000        -2.249138225117646E-011
   28.0250000000000        -2.262981806264686E-011
   28.2150000000000        -2.277016123894306E-011
   28.4050000000000        -2.290731987428565E-011
   28.5950000000000        -2.303162774904797E-011
   28.7850000000000        -2.313600737664186E-011
   28.9750000000000        -2.320828742902111E-011
   29.1650000000000        -2.324194286259675E-011
   29.3550000000000        -2.323913862186178E-011
   29.5450000000000        -2.320047585711566E-011
   29.7350000000000        -2.312616767382615E-011
   29.9250000000000        -2.301461600261203E-011
   30.1150000000000        -2.287039922639761E-011
   30.3050000000000        -2.270110545464067E-011
   30.4950000000000        -2.252043700664300E-011
   30.6850000000000        -2.233734737650458E-011
   30.8750000000000        -2.215478839567651E-011
   31.0650000000000        -2.199314000634806E-011
   31.2550000000000        -2.186867324288427E-011
   31.4450000000000        -2.178467694041409E-011
   31.6350000000000        -2.174576361353037E-011
   31.8250000000000        -2.175656613365561E-011
   32.0150000000000        -2.182031449402424E-011
   32.2050000000000        -2.193080836087436E-011
   32.3950000000000        -2.207170186052695E-011
   32.5850000000000        -2.223548045668299E-011
   32.7750000000000        -2.242226205053464E-011
   32.9650000000000        -2.262383431836193E-011
   33.1550000000000        -2.283199642373799E-011
   33.3450000000000        -2.304535450677076E-011
   33.5350000000000        -2.326389347920532E-011
   33.7250000000000        -2.348333723574475E-011
   33.9150000000000        -2.369189494910131E-011
   34.1050000000000        -2.387498463958397E-011
   34.2950000000000        -2.402705541238188E-011
   34.4850000000000        -2.415693825743967E-011
   34.6750000000000        -2.426970568024792E-011
   34.8650000000000        -2.436339465427117E-011
   35.0550000000000        -2.444081268004063E-011
   35.2450000000000        -2.450779780003700E-011
   35.4350000000000        -2.457504156582525E-011
   35.6250000000000        -2.465312839883844E-011
   35.8150000000000        -2.474688588487311E-011
   36.0050000000000        -2.485552068820466E-011
   36.1950000000000        -2.497803857989306E-011
   36.3850000000000        -2.511107274534990E-011
   36.5750000000000        -2.525084794891176E-011
   36.7650000000000        -2.539489155178917E-011
   36.9550000000000        -2.554088734373110E-011
   37.1450000000000        -2.568772360649851E-011
   37.3350000000000        -2.583241096716989E-011
   37.5250000000000        -2.597326185882404E-011
   37.7150000000000        -2.610942320776774E-011
   37.9050000000000        -2.624071441613192E-011
   38.0950000000000        -2.636860821395581E-011
   38.2850000000000        -2.649793118815428E-011
   38.4750000000000        -2.664130583155101E-011
   38.6650000000000        -2.682195202687048E-011
   38.8550000000000        -2.704420793950828E-011
   39.0450000000000        -2.730188590508720E-011
   39.2350000000000        -2.759934299533637E-011
   39.4250000000000        -2.793650325961455E-011
   39.6150000000000        -2.830516455517470E-011
   39.8050000000000        -2.869613510448925E-011
   39.9950000000000        -2.910466304134811E-011
   40.1850000000000        -2.952605937679160E-011
   40.3750000000000        -2.995381386967274E-011
   40.5650000000000        -3.038388015374897E-011
   40.7550000000000        -3.081634598217598E-011
   40.9450000000000        -3.124523699937480E-011
   41.1350000000000        -3.165641701901413E-011
   41.3250000000000        -3.203355673238188E-011
   41.5150000000000        -3.237237491072460E-011
   41.7050000000000        -3.267684845763386E-011
   41.8950000000000        -3.294464487595329E-011
   42.0850000000000        -3.317437352579257E-011
   42.2750000000000        -3.336821928121471E-011
   42.4650000000000        -3.352683971154204E-011
   42.6550000000000        -3.365183622093439E-011
   42.8450000000000        -3.374553160543132E-011
   43.0350000000000        -3.381107430753123E-011
   43.2250000000000        -3.385470561682650E-011
   43.4150000000000        -3.387765460895258E-011
   43.6050000000000        -3.388491470132757E-011
   43.7950000000000        -3.388371754982051E-011
   43.9850000000000        -3.387411979094295E-011
   44.1750000000000        -3.385623403285845E-011
   44.3650000000000        -3.383043899236178E-011
   44.5550000000000        -3.380591848167024E-011
   44.7450000000000        -3.380430673449462E-011
   44.9350000000000        -3.385283523418071E-011
   45.1250000000000        -3.396120596578595E-011
   45.3150000000000        -3.411941448787750E-011
   45.5050000000000        -3.431968592937784E-011
   45.6950000000000        -3.455383568770527E-011
   45.8850000000000        -3.480867527777926E-011
   46.0750000000000        -3.507604763988910E-011
   46.2650000000000        -3.535101488213497E-011
   46.4550000000000        -3.562996896008968E-011
   46.6450000000000        -3.591230678679240E-011
   46.8350000000000        -3.618791398725020E-011
   47.0250000000000        -3.643388897417086E-011
   47.2150000000000        -3.663060615006463E-011
   47.4050000000000        -3.678107501634382E-011
   47.5950000000000        -3.689518894973720E-011
   47.7850000000000        -3.697593590000109E-011
   47.9750000000000        -3.702815518648339E-011
   48.1650000000000        -3.705580280578311E-011
   48.3550000000000        -3.705871024655832E-011
   48.5450000000000        -3.703961313473350E-011
   48.7350000000000        -3.700524635524497E-011
   48.9250000000000        -3.696165814838921E-011
   49.1150000000000        -3.691282498946370E-011
   49.3050000000000        -3.685982564384964E-011
   49.4950000000000        -3.681447796056765E-011
   49.6850000000000        -3.680056423269421E-011
   49.8750000000000        -3.683790359556325E-011
   50.0650000000000        -3.692168799076682E-011
   50.2550000000000        -3.704356660992747E-011
   50.4450000000000        -3.720204548595943E-011
   50.6350000000000        -3.738632545126089E-011
   50.8250000000000        -3.759432430419391E-011
   51.0150000000000        -3.781909406811271E-011
   51.2050000000000        -3.805041997525751E-011
   51.3950000000000        -3.829089265909821E-011
   51.5850000000000        -3.854051516553658E-011
   51.7750000000000        -3.877692164827645E-011
   51.9650000000000        -3.897639265897896E-011
   52.1550000000000        -3.913736043856530E-011
   52.3450000000000        -3.927041122745088E-011
   52.5350000000000        -3.938174360266348E-011
   52.7250000000000        -3.947854371368416E-011
   52.9150000000000        -3.957005485143283E-011
   53.1050000000000        -3.965929401140194E-011
   53.2950000000000        -3.975096848514049E-011
   53.4850000000000        -3.984786053502754E-011
   53.6750000000000        -3.995670713805643E-011
   53.8650000000000        -4.008408450573004E-011
   54.0550000000000        -4.023234919370548E-011
   54.2450000000000        -4.040387474211197E-011
   54.4350000000000        -4.060063744080606E-011
   54.6250000000000        -4.082191823137411E-011
   54.8150000000000        -4.106603356244788E-011
   55.0050000000000        -4.133117608486958E-011
   55.1950000000000        -4.161302619748845E-011
   55.3850000000000        -4.190729030978209E-011
   55.5750000000000        -4.221093907833161E-011
   55.7650000000000        -4.251920711267757E-011
   55.9550000000000        -4.282398491145522E-011
   56.1450000000000        -4.311341382530482E-011
   56.3350000000000        -4.337563641762171E-011
   56.5250000000000        -4.360714416244858E-011
   56.7150000000000        -4.380741184153776E-011
   56.9050000000000        -4.397507935484726E-011
   57.0950000000000        -4.411172130000737E-011
   57.2850000000000        -4.422349997978442E-011
   57.4750000000000        -4.431444172764866E-011
   57.6650000000000        -4.438394054544534E-011
   57.8550000000000        -4.443979705171464E-011
   58.0450000000000        -4.449274888394486E-011
   58.2350000000000        -4.454410776119839E-011
   58.4250000000000        -4.459283355497374E-011
   58.6150000000000        -4.464111012035997E-011
   58.8050000000000        -4.469098069292892E-011
   58.9950000000000        -4.474412585810921E-011
   59.1850000000000        -4.480121652987135E-011
   59.3750000000000        -4.486139625717139E-011
   59.5650000000000        -4.492369936117678E-011
   59.7550000000000        -4.498832525754238E-011
   59.9450000000000        -4.505672958919204E-011
   60.1350000000000        -4.513118295027503E-011
   60.3250000000000        -4.521408924732547E-011
   60.5150000000000        -4.530563770054800E-011
   60.7050000000000        -4.540253133450834E-011
   60.8950000000000        -4.549806862887203E-011
   61.0850000000000        -4.558697561096176E-011
   61.2750000000000        -4.566528183942575E-011
   61.4650000000000        -4.573020747458698E-011
   61.6550000000000        -4.578414462409805E-011
   61.8450000000000        -4.582869069684141E-011
   62.0350000000000        -4.586420333367808E-011
   62.2250000000000        -4.589266301593108E-011
   62.4150000000000        -4.591684748395674E-011
   62.6050000000000        -4.593724063917783E-011
   62.7950000000000        -4.595581935121342E-011
   62.9850000000000        -4.597555789570222E-011
   63.1750000000000        -4.599635385598164E-011
   63.3650000000000        -4.601848173865845E-011
   63.5550000000000        -4.604229100574489E-011
   63.7450000000000        -4.606810525181534E-011
   63.9350000000000        -4.609685602068601E-011
   64.1250000000000        -4.613142289913702E-011
   64.3150000000000        -4.617371840726441E-011
   64.5050000000000        -4.622300237387912E-011
   64.6950000000000        -4.628011553498829E-011
   64.8850000000000        -4.634427860170389E-011
   65.0750000000000        -4.641477398498091E-011
   65.2650000000000        -4.649306692825409E-011
   65.4550000000000        -4.657768443168985E-011
   65.6450000000000        -4.666719815605120E-011
   65.8350000000000        -4.676159393978005E-011
   66.0250000000000        -4.686206438047364E-011
   66.2150000000000        -4.696776810302063E-011
   66.4050000000000        -4.707549624580595E-011
   66.5950000000000        -4.718304249932843E-011
   66.7850000000000        -4.729034961516570E-011
   66.9750000000000        -4.739817254123794E-011
   67.1650000000000        -4.750679055347489E-011
   67.3550000000000        -4.761690012731439E-011
   67.5450000000000        -4.772923249562172E-011
   67.7350000000000        -4.784462133895313E-011
   67.9250000000000        -4.796437592521754E-011
   68.1150000000000        -4.808996628261099E-011
   68.3050000000000        -4.822246068070511E-011
   68.4950000000000        -4.836060123040998E-011
   68.6850000000000        -4.850330498959262E-011
   68.8750000000000        -4.865183136145234E-011
   69.0650000000000        -4.880724010125520E-011
   69.2550000000000        -4.897009808048312E-011
   69.4450000000000        -4.914039504761405E-011
   69.6350000000000        -4.931874408763252E-011
   69.8250000000000        -4.950303809510344E-011
   70.0150000000000        -4.969243594278982E-011
   70.2050000000000        -4.988968902009917E-011
   70.3950000000000        -5.009604931350547E-011
   70.5850000000000        -5.031233408959931E-011
   70.7750000000000        -5.053996008254094E-011
   70.9650000000000        -5.078055429200148E-011
   71.1550000000000        -5.103753760756471E-011
   71.3450000000000        -5.131150565734221E-011
   71.5350000000000        -5.160241685564536E-011
   71.7250000000000        -5.190723989654494E-011
   71.9150000000000        -5.222171408404696E-011
   72.1050000000000        -5.254339467985261E-011
   72.2950000000000        -5.286904973777015E-011
   72.4850000000000        -5.319821124327235E-011
   72.6750000000000        -5.352983476599282E-011
   72.8650000000000        -5.386423654305232E-011
   73.0550000000000        -5.420132644253644E-011
   73.2450000000000        -5.453900137277667E-011
   73.4350000000000        -5.487317648536743E-011
   73.6250000000000        -5.519622377254137E-011
   73.8150000000000        -5.550040503554595E-011
   74.0050000000000        -5.577946078573673E-011
   74.1950000000000        -5.602884053417424E-011
   74.3850000000000        -5.624416019419301E-011
   74.5750000000000        -5.642504344700574E-011
   74.7650000000000        -5.657463039215866E-011
   74.9550000000000        -5.669737297348146E-011
   75.1450000000000        -5.679820233374308E-011
   75.3350000000000        -5.688563472453756E-011
   75.5250000000000        -5.696375472875869E-011
   75.7150000000000        -5.703527500472005E-011
   75.9050000000000        -5.710576767511397E-011
   76.0950000000000        -5.717465851569087E-011
   76.2850000000000        -5.724482385101351E-011
   76.4750000000000        -5.732119562565856E-011
   76.6650000000000        -5.740572505722669E-011
   76.8550000000000        -5.749567215201907E-011
   77.0450000000000        -5.758734142126031E-011
   77.2350000000000        -5.767705112709056E-011
   77.4250000000000        -5.775616276806201E-011
   77.6150000000000        -5.781422245049132E-011
   77.8050000000000        -5.784588060642487E-011
   77.9950000000000        -5.785168218119417E-011
   78.1850000000000        -5.783396405667622E-011
   78.3750000000000        -5.779369404127962E-011
   78.5650000000000        -5.773263690964094E-011
   78.7550000000000        -5.765418733348451E-011
   78.9450000000000        -5.756461807075148E-011
   79.1350000000000        -5.746677957470173E-011
   79.3250000000000        -5.736083410703870E-011
   79.5150000000000        -5.724828143062479E-011
   79.7050000000000        -5.713059681236776E-011
   79.8950000000000        -5.701874318710723E-011
   80.0850000000000        -5.693312435915539E-011
   80.2750000000000        -5.689157666997144E-011
   80.4650000000000        -5.690445370120978E-011
   80.6550000000000        -5.696913296698978E-011
   80.8450000000000        -5.708001841078312E-011
   81.0350000000000        -5.723806418800028E-011
   81.2250000000000        -5.743974007544883E-011
   81.4150000000000        -5.767696770213402E-011
   81.6050000000000        -5.794400895946258E-011
   81.7950000000000        -5.823752300358343E-011
   81.9850000000000        -5.855092889969589E-011
   82.1750000000000        -5.887592675416030E-011
   82.3650000000000        -5.921074157506139E-011
   82.5550000000000        -5.955233324772305E-011
   82.7450000000000        -5.988249140900256E-011
   82.9350000000000        -6.018137472662187E-011
   83.1250000000000        -6.044631467601360E-011
   83.3150000000000        -6.068387428473922E-011
   83.5050000000000        -6.089776930608723E-011
   83.6950000000000        -6.109453593179522E-011
   83.8850000000000        -6.127516556200323E-011
   84.0750000000000        -6.144204167684163E-011
   84.2650000000000        -6.160393447743432E-011
   84.4550000000000        -6.176382553919273E-011
   84.6450000000000        -6.192315045098317E-011
   84.8350000000000        -6.208208025278776E-011
   85.0250000000000        -6.223956798319049E-011
   85.2150000000000        -6.239452895941901E-011
   85.4050000000000        -6.254758568119748E-011
   85.5950000000000        -6.270034254135607E-011
   85.7850000000000        -6.285807779586112E-011
   85.9750000000000        -6.302683632900682E-011
   86.1650000000000        -6.320658377514408E-011
   86.3550000000000        -6.339338009089413E-011
   86.5450000000000        -6.358373894366479E-011
   86.7350000000000        -6.377519488408776E-011
   86.9250000000000        -6.396498919589794E-011
   87.1150000000000        -6.415067812732463E-011
   87.3050000000000        -6.433192482630022E-011
   87.4950000000000        -6.451025714901675E-011
   87.6850000000000        -6.468789599190959E-011
   87.8750000000000        -6.486789056517688E-011
   88.0650000000000        -6.505094451554943E-011
   88.2550000000000        -6.523621866926672E-011
   88.4450000000000        -6.542429114031453E-011
   88.6350000000000        -6.561527013706172E-011
   88.8250000000000        -6.580966967433149E-011
   89.0150000000000        -6.600923640788061E-011
   89.2050000000000        -6.621753818310552E-011
   89.3950000000000        -6.643237370307239E-011
   89.5850000000000        -6.664156437804664E-011
   89.7750000000000        -6.683811534154519E-011
   89.9650000000000        -6.702399841223766E-011
   90.1550000000000        -6.720254270237004E-011
   90.3450000000000        -6.737754463945897E-011
   90.5350000000000        -6.755107859162336E-011
   90.7250000000000        -6.772295531328874E-011
   90.9150000000000        -6.789308185575558E-011
   91.1050000000000        -6.806065957627094E-011
   91.2950000000000        -6.822460900743673E-011
   91.4850000000000        -6.838257759011072E-011
   91.6750000000000        -6.853061469948664E-011
   91.8650000000000        -6.866555925419690E-011
   92.0550000000000        -6.878524597045866E-011
   92.2450000000000        -6.889052868400679E-011
   92.4350000000000        -6.898512647741400E-011
   92.6250000000000        -6.907073436622841E-011
   92.8150000000000        -6.914687277780543E-011
   93.0050000000000        -6.921270183739708E-011
   93.1950000000000        -6.926418076728048E-011
   93.3850000000000        -6.929851818309663E-011
   93.5750000000000        -6.932313925135921E-011
   93.7650000000000        -6.935500349197686E-011
   93.9550000000000        -6.940340072328797E-011
   94.1450000000000        -6.946803374047394E-011
   94.3350000000000        -6.954695046279861E-011
   94.5250000000000        -6.963740476432630E-011
   94.7150000000000        -6.973931262950602E-011
   94.9050000000000        -6.985348426891473E-011
   95.0950000000000        -6.997804084693641E-011
   95.2850000000000        -7.011123992893752E-011
   95.4750000000000        -7.025203905725836E-011
   95.6650000000000        -7.039920782521409E-011
   95.8550000000000        -7.055123253255049E-011
   96.0450000000000        -7.070565543082014E-011
   96.2350000000000        -7.086067491756060E-011
   96.4250000000000        -7.101296364413517E-011
   96.6150000000000        -7.115811397219465E-011
   96.8050000000000        -7.129249180243637E-011
   96.9950000000000        -7.141524517812467E-011
   97.1850000000000        -7.152807077115784E-011
   97.3750000000000        -7.163373653107552E-011
   97.5650000000000        -7.173648039109195E-011
   97.7550000000000        -7.184112594536857E-011
   97.9450000000000        -7.195244484494796E-011
   98.1350000000000        -7.207676515032391E-011
   98.3250000000000        -7.221680722220507E-011
   98.5150000000000        -7.237041506449250E-011
   98.7050000000000        -7.253531721026646E-011
   98.8950000000000        -7.270864404960004E-011
   99.0850000000000        -7.288621746111487E-011
   99.2750000000000        -7.306040801236316E-011
   99.4650000000000        -7.322300617338829E-011
   99.6550000000000        -7.336428578068300E-011
   99.8450000000000        -7.347396434472494E-011
   100.035000000000        -7.354768330341126E-011
   100.225000000000        -7.358225623420496E-011
   100.415000000000        -7.357729312462182E-011
   100.605000000000        -7.353474167741954E-011
   100.795000000000        -7.346064191361711E-011
   100.985000000000        -7.336025710583846E-011
   101.175000000000        -7.324058544912108E-011
   101.365000000000        -7.310753221988838E-011
   101.555000000000        -7.296443441448654E-011
   101.745000000000        -7.281475416435284E-011
   101.935000000000        -7.266013705441492E-011
   102.125000000000        -7.252177321885059E-011
   102.315000000000        -7.243779024639431E-011
   102.505000000000        -7.241710357836667E-011
   102.695000000000        -7.244780883224139E-011
   102.885000000000        -7.252923635075398E-011
   103.075000000000        -7.266154206231465E-011
   103.265000000000        -7.283843245476563E-011
   103.455000000000        -7.304679330486579E-011
   103.645000000000        -7.327348524746483E-011
   103.835000000000        -7.351289076736407E-011
   104.025000000000        -7.376216376261126E-011
   104.215000000000        -7.401627800305874E-011
   104.405000000000        -7.427282744889868E-011
   104.595000000000        -7.453026014248731E-011
   104.785000000000        -7.478730923904514E-011
   104.975000000000        -7.504085450788205E-011
   105.165000000000        -7.528719600466477E-011
   105.355000000000        -7.552438713526301E-011
   105.545000000000        -7.575208664359964E-011
   105.735000000000        -7.597026424312815E-011
   105.925000000000        -7.617901063645420E-011
   106.115000000000        -7.637961798179101E-011
   106.305000000000        -7.657197914921077E-011
   106.495000000000        -7.675701816314601E-011
   106.685000000000        -7.693430206713946E-011
   106.875000000000        -7.710404691790425E-011
   107.065000000000        -7.726759863420730E-011
   107.255000000000        -7.742382195455446E-011
   107.445000000000        -7.757363781760480E-011
   107.635000000000        -7.771842318127556E-011
   107.825000000000        -7.785979776639198E-011
   108.015000000000        -7.799939073594306E-011
   108.205000000000        -7.813836305396364E-011
   108.395000000000        -7.827711459253444E-011
   108.585000000000        -7.841549684429355E-011
   108.775000000000        -7.855303080859920E-011
   108.965000000000        -7.868842153525683E-011
   109.155000000000        -7.882156572523684E-011
   109.345000000000        -7.895116559916906E-011
   109.535000000000        -7.907644229772247E-011
   109.725000000000        -7.919829169506306E-011
   109.915000000000        -7.931650969568425E-011
   110.105000000000        -7.943167007275840E-011