  -1.42500000000000         3.233887230152074E-019
  -1.23500000000000         9.768559940436929E-019
  -1.04500000000000         5.140594076504742E-018
 -0.855000000000000         2.373221336164389E-017
 -0.665000000000000         9.492208754514166E-017
 -0.475000000000000         2.973111310376203E-016
 -0.285000000000000         8.106126517643763E-016
 -9.499999999999975E-002    1.878927074125752E-015
  9.500000000000020E-002    3.836019577128985E-015
  0.285000000000000         6.883823438025818E-015
  0.475000000000000         1.130606045760685E-014
  0.665000000000000         1.706483720570397E-014
  0.855000000000000         2.327022137097860E-014
   1.04500000000000         2.978311187969476E-014
   1.23500000000000         3.656228662915274E-014
   1.42500000000000         4.180638786756362E-014
   1.61500000000000         4.785343219440024E-014
   1.80500000000000         5.533808678550323E-014
   1.99500000000000         6.243783236062183E-014
   2.18500000000000         6.976087959064466E-014
   2.37500000000000         7.687559311940298E-014
   2.56500000000000         8.302110865646662E-014
   2.75500000000000         8.816709083404713E-014
   2.94500000000000         9.220938684984070E-014
   3.13500000000000         9.458030214256344E-014
   3.32500000000000         9.532060062273662E-014
   3.51500000000000         9.663588385370003E-014
   3.70500000000000         9.700198138031006E-014
   3.89500000000000         9.728416092606198E-014
   4.08500000000000         9.741130033256891E-014
   4.27500000000000         9.742402117964638E-014
   4.46500000000000         9.715692092748849E-014
   4.65500000000000         9.630481201769263E-014
   4.84500000000000         9.453922861185156E-014
   5.03500000000000         9.201808616683709E-014
   5.22500000000000         9.140645941278305E-014
   5.41500000000000         8.860491167814813E-014
   5.60500000000000         8.642487867809024E-014
   5.79500000000000         8.516028184431941E-014
   5.98500000000000         8.546337662126495E-014
   6.17500000000000         8.757526626654286E-014
   6.36500000000000         9.178677080592423E-014
   6.55500000000000         9.662762000327979E-014
   6.74500000000000         1.014640240789887E-013
   6.93500000000000         1.072328580359220E-013
   7.12500000000000         1.148676722359638E-013
   7.31500000000000         1.208183726414959E-013
   7.50500000000000         1.248524323371435E-013
   7.69500000000000         1.267176638731245E-013
   7.88500000000000         1.265795866996214E-013
   8.07500000000000         1.244757325107320E-013
   8.26500000000000         1.217689895458064E-013
   8.45500000000000         1.184188344981114E-013
   8.64500000000000         1.134296040201437E-013
   8.83500000000000         1.076051046094179E-013
   9.02500000000000         9.613454842324866E-014
   9.21500000000000         7.865802363108999E-014
   9.40500000000000         6.060155157807006E-014
   9.59500000000000         4.585405506363082E-014
   9.78500000000000         3.684629683910812E-014
   9.97500000000000         2.867968563537714E-014
   10.1650000000000         2.282756321355566E-014
   10.3550000000000         1.986662587431213E-014
   10.5450000000000         1.776425828176426E-014
   10.7350000000000         1.745871166744216E-014
   10.9250000000000         1.730931595740698E-014
   11.1150000000000         1.707522051564515E-014
   11.3050000000000         1.689343124044888E-014
   11.4950000000000         1.751130204031865E-014
   11.6850000000000         1.992492934380439E-014
   11.8750000000000         2.424314009846205E-014
   12.0650000000000         2.974356186241147E-014
   12.2550000000000         3.565510204738674E-014
   12.4450000000000         4.301097293671548E-014
   12.6350000000000         4.474500509919753E-014
   12.8250000000000         5.069721994455457E-014
   13.0150000000000         5.529372319964349E-014
   13.2050000000000         5.902721054754107E-014
   13.3950000000000         6.276911058704821E-014
   13.5850000000000         6.521285918091716E-014
   13.7750000000000         6.630395172439271E-014
   13.9650000000000         6.679209786748125E-014
   14.1550000000000         6.684197430825765E-014
   14.3450000000000         6.724401465412365E-014
   14.5350000000000         6.746447578823397E-014
   14.7250000000000         6.833951639816675E-014
   14.9150000000000         7.109698169139368E-014
   15.1050000000000         7.816121161405976E-014
   15.2950000000000         8.849194378866891E-014
   15.4850000000000         1.001469992936517E-013
   15.6750000000000         1.094412786910203E-013
   15.8650000000000         1.179205940413058E-013
   16.0550000000000         1.259886779704687E-013
   16.2450000000000         1.315048947332057E-013
   16.4350000000000         1.346416922428686E-013
   16.6250000000000         1.361215417665625E-013
   16.8150000000000         1.363076273183372E-013
   17.0050000000000         1.362338103678476E-013
   17.1950000000000         1.350687995021242E-013
   17.3850000000000         1.345851309177653E-013
   17.5750000000000         1.319682971797128E-013
   17.7650000000000         1.309247046448432E-013
   17.9550000000000         1.292899067434797E-013
   18.1450000000000         1.279165902045533E-013
   18.3350000000000         1.264374964291589E-013
   18.5250000000000         1.244023469026292E-013
   18.7150000000000         1.197298633504447E-013
   18.9050000000000         1.124901032826799E-013
   19.0950000000000         1.035021825493341E-013
   19.2850000000000         9.421576483353453E-014
   19.4750000000000         8.609509484599239E-014
   19.6650000000000         7.946308845325884E-014
   19.8550000000000         7.345278234110971E-014
   20.0450000000000         6.800764172151805E-014
   20.2350000000000         6.293761351304862E-014
   20.4250000000000         5.781527125439506E-014
   20.6150000000000         5.179117908248398E-014
   20.8050000000000         4.526231871378136E-014
   20.9950000000000         3.871477368867582E-014
   21.1850000000000         3.726075912621326E-014
   21.3750000000000         2.974401556720798E-014
   21.5650000000000         2.818207658715577E-014
   21.7550000000000         2.450812812628588E-014
   21.9450000000000         1.907857549382011E-014
   22.1350000000000         1.310794774179259E-014
   22.3250000000000         8.516713373318403E-015
   22.5150000000000         9.907832658668189E-015
   22.7050000000000         1.601823555300606E-014
   22.8950000000000         2.557281251000758E-014
   23.0850000000000         3.721221559707315E-014
   23.2750000000000         4.936211759631111E-014
   23.4650000000000         5.974908760781876E-014
   23.6550000000000         7.265905236868110E-014
   23.8450000000000         8.703935193542405E-014
   24.0350000000000         9.983730644064356E-014
   24.2250000000000         1.114864629726041E-013
   24.4150000000000         1.214627563847468E-013
   24.6050000000000         1.307413295588927E-013
   24.7950000000000         1.347737517457722E-013
   24.9850000000000         1.371569560119651E-013
   25.1750000000000         1.368760773935555E-013
   25.3650000000000         1.347924884188298E-013
   25.5550000000000         1.318975957653543E-013
   25.7450000000000         1.264701260577634E-013
   25.9350000000000         1.204934447489705E-013
   26.1250000000000         1.160689369475615E-013
   26.3150000000000         1.126182699072294E-013
   26.5050000000000         1.090078160329165E-013
   26.6950000000000         1.059794911626827E-013
   26.8850000000000         1.031262290393621E-013
   27.0750000000000         1.002102687924005E-013
   27.2650000000000         9.822365839507710E-014
   27.4550000000000         9.826145919940140E-014
   27.6450000000000         9.968558508097351E-014
   27.8350000000000         1.002603639687614E-013
   28.0250000000000         1.031181671882336E-013
   28.2150000000000         1.055939121957302E-013
   28.4050000000000         1.085243388872703E-013
   28.5950000000000         1.107801769202053E-013
   28.7850000000000         1.099748109696349E-013
   28.9750000000000         1.048322524720205E-013
   29.1650000000000         9.527420966300129E-014
   29.3550000000000         8.162537986016766E-014
   29.5450000000000         6.676665684290242E-014
   29.7350000000000         5.207883997954536E-014
   29.9250000000000         3.717448588819447E-014
   30.1150000000000         2.398481677420846E-014
   30.3050000000000         1.340239771360135E-014
   30.4950000000000         6.983954132947689E-015
   30.6850000000000         2.267437257443897E-015
   30.8750000000000        -3.860856479568029E-015
   31.0650000000000        -1.255134077779165E-014
   31.2550000000000        -1.488948261221330E-014
   31.4450000000000        -1.234805747881628E-014
   31.6350000000000        -7.252459637665740E-015
   31.8250000000000        -4.044613672964820E-016
   32.0150000000000         6.561553066936649E-015
   32.2050000000000         1.347506874674702E-014
   32.3950000000000         2.030893913195019E-014
   32.5850000000000         2.765615699661615E-014
   32.7750000000000         3.297427937819718E-014
   32.9650000000000         3.733082655094458E-014
   33.1550000000000         3.926729710282174E-014
   33.3450000000000         4.239171888885978E-014
   33.5350000000000         4.716354662869158E-014
   33.7250000000000         5.450415893463368E-014
   33.9150000000000         6.481101895099037E-014
   34.1050000000000         7.615074287059590E-014
   34.2950000000000         8.589760135373705E-014
   34.4850000000000         9.191351969736321E-014
   34.6750000000000         9.777145529475432E-014
   34.8650000000000         1.031178135110905E-013
   35.0550000000000         1.078886690587874E-013
   35.2450000000000         1.127052206216708E-013
   35.4350000000000         1.162803624924428E-013
   35.6250000000000         1.179506030897506E-013
   35.8150000000000         1.179660163728539E-013
   36.0050000000000         1.167399104448435E-013
   36.1950000000000         1.146511385101815E-013
   36.3850000000000         1.140438021736622E-013
   36.5750000000000         1.122024331383756E-013
   36.7650000000000         1.116984812635441E-013
   36.9550000000000         1.096953031795085E-013
   37.1450000000000         1.072201502415469E-013
   37.3350000000000         1.046731102351277E-013
   37.5250000000000         1.023701777017807E-013
   37.7150000000000         1.001206365455611E-013
   37.9050000000000         9.804335192215321E-014
   38.0950000000000         9.660155271494725E-014
   38.2850000000000         9.469371943617180E-014
   38.4750000000000         9.240666924478117E-014
   38.6650000000000         9.048136081089407E-014
   38.8550000000000         8.946000173650944E-014
   39.0450000000000         8.832027965583526E-014
   39.2350000000000         8.656917507386824E-014
   39.4250000000000         8.430265463851567E-014
   39.6150000000000         8.103375115488681E-014
   39.8050000000000         7.700413646451548E-014
   39.9950000000000         7.352566121549278E-014
   40.1850000000000         6.938871999184390E-014
   40.3750000000000         6.826966451690822E-014
   40.5650000000000         6.607254832960456E-014
   40.7550000000000         6.208055904868931E-014
   40.9450000000000         5.367335812186641E-014
   41.1350000000000         3.954982005382794E-014
   41.3250000000000         2.398700430700341E-014
   41.5150000000000         1.351267897464712E-014
   41.7050000000000         8.181528263682359E-015
   41.8950000000000         6.350714653331714E-015
   42.0850000000000         7.777051560442916E-015
   42.2750000000000         1.141279783803877E-014
   42.4650000000000         1.705590026340336E-014
   42.6550000000000         2.406854132069587E-014
   42.8450000000000         3.226875020172028E-014
   43.0350000000000         4.048672751042651E-014
   43.2250000000000         4.658257042355711E-014
   43.4150000000000         5.541973801884488E-014
   43.6050000000000         5.775368924476071E-014
   43.7950000000000         6.150574909404488E-014
   43.9850000000000         6.475971008744779E-014
   44.1750000000000         6.970342136184949E-014
   44.3650000000000         7.736201369375743E-014
   44.5550000000000         8.772285616330970E-014
   44.7450000000000         9.750443793968527E-014
   44.9350000000000         1.016931602194287E-013
   45.1250000000000         1.003381390732346E-013
   45.3150000000000         9.717303881360576E-014
   45.5050000000000         9.317265908151839E-014
   45.6950000000000         9.003475861435609E-014
   45.8850000000000         8.768695697414293E-014
   46.0750000000000         8.656574638333411E-014
   46.2650000000000         8.597305955999001E-014
   46.4550000000000         8.575147619816572E-014
   46.6450000000000         8.572818934342627E-014
   46.8350000000000         8.706499809342641E-014
   47.0250000000000         9.043541338102535E-014
   47.2150000000000         9.472261874513362E-014
   47.4050000000000         9.747144200495542E-014
   47.5950000000000         9.845499732032265E-014
   47.7850000000000         9.779381919873149E-014
   47.9750000000000         9.529550385036576E-014
   48.1650000000000         9.171736745094645E-014
   48.3550000000000         8.697800822965806E-014
   48.5450000000000         8.280754212204432E-014
   48.7350000000000         7.872563537104961E-014
   48.9250000000000         7.583719861702332E-014
   49.1150000000000         7.329620310808350E-014
   49.3050000000000         6.819840429344480E-014
   49.4950000000000         6.116699542295919E-014
   49.6850000000000         5.749885968008949E-014
   49.8750000000000         5.802279632975661E-014
   50.0650000000000         6.145669385302846E-014
   50.2550000000000         6.695505420963607E-014
   50.4450000000000         7.289957484888508E-014
   50.6350000000000         7.639117056289202E-014
   50.8250000000000         8.225651832634935E-014
   51.0150000000000         8.349352316203745E-014
   51.2050000000000         8.580366860570415E-014
   51.3950000000000         8.904578518537723E-014
   51.5850000000000         9.204289848221693E-014
   51.7750000000000         8.933138944195026E-014
   51.9650000000000         7.931932476855249E-014
   52.1550000000000         6.528028104844671E-014
   52.3450000000000         5.113264593163797E-014
   52.5350000000000         3.576223406616253E-014
   52.7250000000000         2.176106620760721E-014
   52.9150000000000         1.132649097665883E-014
   53.1050000000000         1.220838141297448E-015
   53.2950000000000        -7.112104854474094E-015
   53.4850000000000        -1.469865740590877E-014
   53.6750000000000        -2.028612710211134E-014
   53.8650000000000        -1.843897562674658E-014
   54.0550000000000        -1.095859251864280E-014
   54.2450000000000         1.139968100325481E-015
   54.4350000000000         1.701318946918360E-014
   54.6250000000000         3.424508667000311E-014
   54.8150000000000         5.219767385612932E-014
   55.0050000000000         6.931335900108406E-014
   55.1950000000000         8.167398081958188E-014
   55.3850000000000         9.533388579106234E-014
   55.5750000000000         1.030964128895703E-013
   55.7650000000000         1.104057070397949E-013
   55.9550000000000         1.184462855042301E-013
   56.1450000000000         1.272828989581783E-013
   56.3350000000000         1.318966616530556E-013
   56.5250000000000         1.303855733960313E-013
   56.7150000000000         1.250003811849804E-013
   56.9050000000000         1.175968439215273E-013
   57.0950000000000         1.095967317548048E-013
   57.2850000000000         1.034233571987037E-013
   57.4750000000000         9.696138503495123E-014
   57.6650000000000         8.994245455389672E-014
   57.8550000000000         8.474069410316382E-014
   58.0450000000000         8.213116128067343E-014
   58.2350000000000         7.970410844472321E-014
   58.4250000000000         7.717549215826159E-014
   58.6150000000000         7.553451865791916E-014
   58.8050000000000         7.461472627127643E-014
   58.9950000000000         7.415626619213742E-014
   59.1850000000000         7.435767741909719E-014
   59.3750000000000         7.483495041644199E-014
   59.5650000000000         7.533160812775583E-014
   59.7550000000000         7.571141631572250E-014
   59.9450000000000         7.592375926097619E-014
   60.1350000000000         7.595963008724745E-014
   60.3250000000000         7.546320308713694E-014
   60.5150000000000         7.334600575767235E-014
   60.7050000000000         6.941718247048668E-014
   60.8950000000000         6.350043485924356E-014
   61.0850000000000         5.747240447324342E-014
   61.2750000000000         5.161191515451164E-014
   61.4650000000000         4.591762688408250E-014
   61.6550000000000         4.066825619929455E-014
   61.8450000000000         3.537765477291721E-014
   62.0350000000000         3.031245335235934E-014
   62.2250000000000         2.620655737575055E-014
   62.4150000000000         2.184171819528202E-014
   62.6050000000000         1.788569051820403E-014
   62.7950000000000         1.668970962718080E-014
   62.9850000000000         1.488046120610001E-014
   63.1750000000000         1.246126433143631E-014
   63.3650000000000         9.091981196477325E-015
   63.5550000000000         4.345530687263887E-015
   63.7450000000000        -9.061442510653590E-016
   63.9350000000000        -4.802200983376564E-015
   64.1250000000000        -7.154588323599521E-015
   64.3150000000000        -7.634117368459667E-015
   64.5050000000000        -6.376819276816835E-015
   64.6950000000000        -2.429278206201321E-015
   64.8850000000000         1.603666096797499E-015
   65.0750000000000         7.558622194853901E-015
   65.2650000000000         1.617393325525830E-014
   65.4550000000000         2.537969728327038E-014
   65.6450000000000         3.551935081954676E-014
   65.8350000000000         4.676206007476204E-014
   66.0250000000000         5.685754275563765E-014
   66.2150000000000         6.577387793489430E-014
   66.4050000000000         7.432059695642236E-014
   66.5950000000000         7.710540923556499E-014
   66.7850000000000         8.309269610525083E-014
   66.9750000000000         8.573506839727208E-014
   67.1650000000000         8.894140823230781E-014
   67.3550000000000         9.283742506121105E-014
   67.5450000000000         9.773795734550396E-014
   67.7350000000000         1.030628037732134E-013
   67.9250000000000         1.071559579038163E-013
   68.1150000000000         1.084410133823069E-013
   68.3050000000000         1.067231190813879E-013
   68.4950000000000         1.024563114645740E-013
   68.6850000000000         9.709379858879639E-014
   68.8750000000000         9.147487846366666E-014
   69.0650000000000         8.610072332939013E-014
   69.2550000000000         8.119254377976573E-014
   69.4450000000000         7.729480456484482E-014
   69.6350000000000         7.479354790390346E-014
   69.8250000000000         7.346078710902330E-014
   70.0150000000000         7.281469433323611E-014
   70.2050000000000         7.303926958407955E-014
   70.3950000000000         7.409808138160489E-014
   70.5850000000000         7.556981037997354E-014
   70.7750000000000         7.706520265964224E-014
   70.9650000000000         7.776142885580456E-014
   71.1550000000000         7.692083511512003E-014
   71.3450000000000         7.534294766224430E-014
   71.5350000000000         7.160974455600360E-014
   71.7250000000000         6.985423990036960E-014
   71.9150000000000         6.552547673423031E-014
   72.1050000000000         6.384621930515522E-014
   72.2950000000000         6.181212245295587E-014
   72.4850000000000         6.012420156640604E-014
   72.6750000000000         5.895384711336221E-014
   72.8650000000000         5.585610458946583E-014
   73.0550000000000         5.159585469739269E-014
   73.2450000000000         4.519397313452579E-014
   73.4350000000000         3.479318366930973E-014
   73.6250000000000         2.168550719707059E-014
   73.8150000000000         1.030924645594042E-014
   74.0050000000000         1.893429833607151E-015
   74.1950000000000        -1.992977503257061E-015
   74.3850000000000        -2.948924684024788E-015
   74.5750000000000        -1.485958624286268E-015
   74.7650000000000         1.668080982557044E-015
   74.9550000000000         5.670113434781216E-015
   75.1450000000000         1.031167554447790E-014
   75.3350000000000         1.170302240326175E-014
   75.5250000000000         1.805338324944879E-014
   75.7150000000000         1.969375888076338E-014
   75.9050000000000         2.329137906961952E-014
   76.0950000000000         2.934364299398115E-014
   76.2850000000000         4.009958753268202E-014
   76.4750000000000         5.425091357796312E-014
   76.6650000000000         6.658413023674026E-014
   76.8550000000000         7.332281106321772E-014
   77.0450000000000         7.931787850236701E-014
   77.2350000000000         8.768522894983695E-014
   77.4250000000000         9.824179073105024E-014
   77.6150000000000         1.073499580119009E-013
   77.8050000000000         1.108080443028526E-013
   77.9950000000000         1.102157611940851E-013
   78.1850000000000         1.072453737059291E-013
   78.3750000000000         1.029692548856881E-013
   78.5650000000000         9.924250768492137E-014
   78.7550000000000         9.540115350309286E-014
   78.9450000000000         9.456307760927500E-014
   79.1350000000000         9.173610394758146E-014
   79.3250000000000         8.976413498682112E-014
   79.5150000000000         8.578977593297059E-014
   79.7050000000000         7.890461064917857E-014
   79.8950000000000         6.836526393727618E-014
   80.0850000000000         5.651441667877962E-014
   80.2750000000000         4.727116891963737E-014
   80.4650000000000         4.133081846426081E-014
   80.6550000000000         3.787671923287292E-014
   80.8450000000000         3.571849281373665E-014
   81.0350000000000         3.419129456268383E-014
   81.2250000000000         3.321548938619881E-014
   81.4150000000000         3.188082314009574E-014
   81.6050000000000         3.050968681276610E-014
   81.7950000000000         2.934533990871354E-014
   81.9850000000000         2.765726749599627E-014
   82.1750000000000         2.624250390247561E-014
   82.3650000000000         2.431146555983786E-014
   82.5550000000000         2.084954747815936E-014
   82.7450000000000         1.632219556961984E-014
   82.9350000000000         1.238207282086213E-014
   83.1250000000000         9.614827449022644E-015
   83.3150000000000         7.790666256879736E-015
   83.5050000000000         6.707603066366266E-015
   83.6950000000000         6.654226554849830E-015
   83.8850000000000         6.950745338876951E-015
   84.0750000000000         7.368542251143553E-015
   84.2650000000000         7.757329228504774E-015
   84.4550000000000         7.792206622765034E-015
   84.6450000000000         7.667720853581095E-015
   84.8350000000000         7.493797887587087E-015
   85.0250000000000         8.096430304616173E-015
   85.2150000000000         1.031043087389901E-014
   85.4050000000000         1.501491442141825E-014
   85.5950000000000         2.222954109357163E-014
   85.7850000000000         2.955040887733221E-014
   85.9750000000000         3.555370265019670E-014
   86.1650000000000         4.058490885962351E-014
   86.3550000000000         4.508254455755267E-014
   86.5450000000000         4.990991313138421E-014
   86.7350000000000         5.530277059529157E-014
   86.9250000000000         6.096176828137013E-014
   87.1150000000000         6.649430420081286E-014
   87.3050000000000         7.215049416116089E-014
   87.4950000000000         7.793582902799823E-014
   87.6850000000000         8.323645033984301E-014
   87.8750000000000         8.656455144576380E-014
   88.0650000000000         8.978351389551231E-014
   88.2550000000000         9.174940801765794E-014
   88.4450000000000         9.411856367563946E-014
   88.6350000000000         9.657433474506422E-014
   88.8250000000000         1.000469083250357E-013
   89.0150000000000         1.034735276532653E-013
   89.2050000000000         1.048898811901055E-013
   89.3950000000000         1.010402473562766E-013
   89.5850000000000         9.191641561124072E-014
   89.7750000000000         8.228305194756397E-014
   89.9650000000000         7.257989707229835E-014
   90.1550000000000         6.210719858380566E-014
   90.3450000000000         5.269888136136552E-014
   90.5350000000000         4.392461058730366E-014
   90.7250000000000         3.657764824401532E-014
   90.9150000000000         3.106567542012034E-014
   91.1050000000000         2.759733723906808E-014
   91.2950000000000         2.595712170078326E-014
   91.4850000000000         2.588723279057732E-014
   91.6750000000000         2.740370986980526E-014
   91.8650000000000         3.004555616587311E-014
   92.0550000000000         3.292790350004636E-014
   92.2450000000000         3.490728610425699E-014
   92.4350000000000         3.616684684747768E-014
   92.6250000000000         3.728591680453679E-014
   92.8150000000000         3.778867104179471E-014
   93.0050000000000         3.823412026515679E-014
   93.1950000000000         3.825905627520858E-014
   93.3850000000000         3.626956624372909E-014
   93.5750000000000         3.014385148990798E-014
   93.7650000000000         2.141756020451530E-014
   93.9550000000000         1.254885528626031E-014
   94.1450000000000         3.720886690571999E-015
   94.3350000000000        -4.922407460581444E-015
   94.5250000000000        -1.272528606670637E-014
   94.7150000000000        -1.902386245683876E-014
   94.9050000000000        -2.420467697567184E-014
   95.0950000000000        -2.682207781346592E-014
   95.2850000000000        -2.856874034295146E-014
   95.4750000000000        -2.896689680449750E-014
   95.6650000000000        -2.771684792140258E-014
   95.8550000000000        -2.686673437064852E-014
   96.0450000000000        -2.481484852055467E-014
   96.2350000000000        -2.112603678594059E-014
   96.4250000000000        -1.487627395812998E-014
   96.6150000000000        -5.080930796421270E-015
   96.8050000000000         7.911550059736613E-015
   96.9950000000000         2.140299387761034E-014
   97.1850000000000         3.301869457717347E-014
   97.3750000000000         3.971661902404718E-014
   97.5650000000000         4.734774432223827E-014
   97.7550000000000         5.443574609021992E-014
   97.9450000000000         6.153412824110333E-014
   98.1350000000000         6.860735547747894E-014
   98.3250000000000         7.420596634132140E-014
   98.5150000000000         7.767488327342859E-014
   98.7050000000000         7.900527339866243E-014
   98.8950000000000         7.855562648780998E-014
   99.0850000000000         7.658302240722268E-014
   99.2750000000000         7.253479137360239E-014
   99.4650000000000         6.483841853578754E-014
   99.6550000000000         5.638688864945393E-014
   99.8450000000000         4.727615383702628E-014
   100.035000000000         3.824631427924001E-014
   100.225000000000         3.001453225279743E-014
   100.415000000000         2.313706028837609E-014
   100.605000000000         1.751017282533520E-014
   100.795000000000         1.390070953702605E-014
   100.985000000000         1.117342208759708E-014
   101.175000000000         1.070767092030182E-014
   101.365000000000         9.581950651247222E-015
   101.555000000000         9.435394324902032E-015
   101.745000000000         8.644904416518440E-015
   101.935000000000         7.231786188759059E-015
   102.125000000000         6.241280137576416E-015
   102.315000000000         6.722268782294132E-015
   102.505000000000         8.024611397111721E-015
   102.695000000000         9.291913778608642E-015
   102.885000000000         1.038289258150708E-014
   103.075000000000         1.154310710794181E-014
   103.265000000000         1.239862720217227E-014
   103.455000000000         1.299856866164179E-014
   103.645000000000         1.299716840353625E-014
   103.835000000000         1.261171784814338E-014
   104.025000000000         1.154402339343079E-014
   104.215000000000         1.081750510386867E-014
   104.405000000000         9.747755616016992E-015
   104.595000000000         8.175500098747419E-015
   104.785000000000         5.387509801148300E-015
   104.975000000000         5.768464081339737E-016
   105.165000000000        -5.447632674426404E-015
   105.355000000000        -1.110155539099779E-014
   105.545000000000        -1.592549610469106E-014
   105.735000000000        -1.961653953303017E-014
   105.925000000000        -2.160014851362061E-014
   106.115000000000        -2.201426466969519E-014
   106.305000000000        -2.161043617119720E-014
   106.495000000000        -2.045529669474066E-014
   106.685000000000        -1.843889439890139E-014
   106.875000000000        -1.706650188711462E-014
   107.065000000000        -1.451289384763422E-014
   107.255000000000        -1.134348129095928E-014
   107.445000000000        -7.491139635604028E-015
   107.635000000000        -3.187891899122858E-015
   107.825000000000         1.051799781167256E-015
   108.015000000000         4.956923276401628E-015
   108.205000000000         9.487371348980838E-015
   108.395000000000         1.704426720813730E-014
   108.585000000000         2.793957794852783E-014
   108.775000000000         3.834807580546393E-014
   108.965000000000         4.897681987799540E-014
   109.155000000000         5.161141739225536E-014
   109.345000000000         5.848024599875176E-014
   109.535000000000         5.971404466484131E-014
   109.725000000000         6.107588787453786E-014
   109.915000000000         6.228994248712227E-014
   110.105000000000         6.377257928971151E-014