  -1.42500000000000         3.072192868644469E-020
  -1.23500000000000         1.542451768070402E-019
  -1.04500000000000         7.354029335091414E-019
 -0.855000000000000         3.478319640133262E-018
 -0.665000000000000         1.475047822627789E-017
 -0.475000000000000         5.201263399164028E-017
 -0.285000000000000         1.572653933578300E-016
 -9.499999999999975E-002    4.127716673173922E-016
  9.500000000000020E-002    9.556915991865924E-016
  0.285000000000000         1.974076685626299E-015
  0.475000000000000         3.702115655711401E-015
  0.665000000000000         6.397350933725930E-015
  0.855000000000000         1.022918149851077E-014
   1.04500000000000         1.526924815732474E-014
   1.23500000000000         2.157206101566526E-014
   1.42500000000000         2.901708509285331E-014
   1.61500000000000         3.753476799873988E-014
   1.80500000000000         4.733796230183071E-014
   1.99500000000000         5.852667462071259E-014
   2.18500000000000         7.108555225608293E-014
   2.37500000000000         8.501601716353746E-014
   2.56500000000000         1.002062038322451E-013
   2.75500000000000         1.164690827838439E-013
   2.94500000000000         1.336048481638133E-013
   3.13500000000000         1.513498686180917E-013
   3.32500000000000         1.693904543807951E-013
   3.51500000000000         1.876263204060566E-013
   3.70500000000000         2.060219176032876E-013
   3.89500000000000         2.244791011223928E-013
   4.08500000000000         2.429751699419628E-013
   4.27500000000000         2.614845254856233E-013
   4.46500000000000         2.799697149858011E-013
   4.65500000000000         2.983485796155933E-013
   4.84500000000000         3.164787634754000E-013
   5.03500000000000         3.342017083793754E-013
   5.22500000000000         3.516270402094393E-013
   5.41500000000000         3.687281204630778E-013
   5.60500000000000         3.853559505469204E-013
   5.79500000000000         4.016565407965493E-013
   5.98500000000000         4.178657883507798E-013
   6.17500000000000         4.343044594251215E-013
   6.36500000000000         4.513438529470059E-013
   6.55500000000000         4.692432200738802E-013
   6.74500000000000         4.880619262616959E-013
   6.93500000000000         5.078881300626125E-013
   7.12500000000000         5.289876804384415E-013
   7.31500000000000         5.513778547018003E-013
   7.50500000000000         5.747165811747711E-013
   7.69500000000000         5.986157403147466E-013
   7.88500000000000         6.226789791191573E-013
   8.07500000000000         6.465292344441409E-013
   8.26500000000000         6.699224830395119E-013
   8.45500000000000         6.927403263236841E-013
   8.64500000000000         7.147659279829184E-013
   8.83500000000000         7.357642253027267E-013
   9.02500000000000         7.551194923408300E-013
   9.21500000000000         7.717247866859920E-013
   9.40500000000000         7.849544463308622E-013
   9.59500000000000         7.950677289618241E-013
   9.78500000000000         8.029242623925843E-013
   9.97500000000000         8.091492307276604E-013
   10.1650000000000         8.140424193683088E-013
   10.3550000000000         8.180983673316561E-013
   10.5450000000000         8.216733013264835E-013
   10.7350000000000         8.250194834716581E-013
   10.9250000000000         8.283224460960191E-013
   11.1150000000000         8.315889770609589E-013
   11.3050000000000         8.348159989777880E-013
   11.4950000000000         8.380844486394607E-013
   11.6850000000000         8.416408906209526E-013
   11.8750000000000         8.458368572179678E-013
   12.0650000000000         8.509655939042507E-013
   12.2550000000000         8.571784669756815E-013
   12.4450000000000         8.646517440991712E-013
   12.6350000000000         8.729885620125830E-013
   12.8250000000000         8.820555733917395E-013
   13.0150000000000         8.921247129904384E-013
   13.2050000000000         9.029852016964208E-013
   13.3950000000000         9.145558522042068E-013
   13.5850000000000         9.267141393321636E-013
   13.7750000000000         9.392082363681681E-013
   13.9650000000000         9.518523610793962E-013
   14.1550000000000         9.645475979360913E-013
   14.3450000000000         9.772857668875174E-013
   14.5350000000000         9.900830734795414E-013
   14.7250000000000         1.002984452737250E-012
   14.9150000000000         1.016230920055758E-012
   15.1050000000000         1.030410448419776E-012
   15.2950000000000         1.046242498183035E-012
   15.4850000000000         1.064163197775856E-012
   15.6750000000000         1.084074084184400E-012
   15.8650000000000         1.105673462093970E-012
   16.0550000000000         1.128844842935089E-012
   16.2450000000000         1.153306732341938E-012
   16.4350000000000         1.178590658104666E-012
   16.6250000000000         1.204313165335562E-012
   16.8150000000000         1.230193936398627E-012
   17.0050000000000         1.256085372978814E-012
   17.1950000000000         1.281859120916462E-012
   17.3850000000000         1.307476244306351E-012
   17.5750000000000         1.332798819975612E-012
   17.7650000000000         1.357773655148945E-012
   17.9550000000000         1.382494043230835E-012
   18.1450000000000         1.406928660440898E-012
   18.3350000000000         1.431092298671101E-012
   18.5250000000000         1.454922083787621E-012
   18.7150000000000         1.478114643761663E-012
   18.9050000000000         1.500175540591810E-012
   19.0950000000000         1.520694807745851E-012
   19.2850000000000         1.539478012747223E-012
   19.4750000000000         1.556607544416779E-012
   19.6650000000000         1.572335571830208E-012
   19.8550000000000         1.586862579555672E-012
   20.0450000000000         1.600301319841622E-012
   20.2350000000000         1.612741119088906E-012
   20.4250000000000         1.624212643141814E-012
   20.6150000000000         1.634625255923817E-012
   20.8050000000000         1.643845338214463E-012
   20.9950000000000         1.651823161992696E-012
   21.1850000000000         1.659040837610110E-012
   21.3750000000000         1.665406291205985E-012
   21.5650000000000         1.670909269960650E-012
   21.7550000000000         1.675914839408427E-012
   21.9450000000000         1.680055576252337E-012
   22.1350000000000         1.683113295959720E-012
   22.3250000000000         1.685167638765656E-012
   22.5150000000000         1.686917970638695E-012
   22.7050000000000         1.689380947118804E-012
   22.8950000000000         1.693332096684790E-012
   23.0850000000000         1.699296674354963E-012
   23.2750000000000         1.707521236008334E-012
   23.4650000000000         1.717886800502727E-012
   23.6550000000000         1.730465573800494E-012
   23.8450000000000         1.745636922209384E-012
   24.0350000000000         1.763390204755111E-012
   24.2250000000000         1.783465962849369E-012
   24.4150000000000         1.805596138688318E-012
   24.6050000000000         1.829555526852963E-012
   24.7950000000000         1.854779459576906E-012
   24.9850000000000         1.880612876813892E-012
   25.1750000000000         1.906646014987416E-012
   25.3650000000000         1.932454528739593E-012
   25.5550000000000         1.957790086737091E-012
   25.7450000000000         1.982335020310286E-012
   25.9350000000000         2.005796559536926E-012
   26.1250000000000         2.028269985798096E-012
   26.3150000000000         2.049995270449302E-012
   26.5050000000000         2.071049748613616E-012
   26.6950000000000         2.091473542797197E-012
   26.8850000000000         2.111338586216392E-012
   27.0750000000000         2.130655553510410E-012
   27.2650000000000         2.149506776593220E-012
   27.4550000000000         2.168172862764695E-012
   27.6450000000000         2.186977831971330E-012
   27.8350000000000         2.205972697131055E-012
   28.0250000000000         2.225293657590970E-012
   28.2150000000000         2.245121305132446E-012
   28.4050000000000         2.265462538985331E-012
   28.5950000000000         2.286296467987041E-012
   28.7850000000000         2.307268191836576E-012
   28.9750000000000         2.327674862863533E-012
   29.1650000000000         2.346684976766360E-012
   29.3550000000000         2.363490437771062E-012
   29.5450000000000         2.377587681257853E-012
   29.7350000000000         2.388878003455986E-012
   29.9250000000000         2.397357069413421E-012
   30.1150000000000         2.403167203166349E-012
   30.3050000000000         2.406718988542691E-012
   30.4950000000000         2.408655691968114E-012
   30.6850000000000         2.409534574150201E-012
   30.8750000000000         2.409383199324099E-012
   31.0650000000000         2.407824040584650E-012
   31.2550000000000         2.405217162362600E-012
   31.4450000000000         2.402629596053952E-012
   31.6350000000000         2.400767546927887E-012
   31.8250000000000         2.400040139432415E-012
   32.0150000000000         2.400625063143881E-012
   32.2050000000000         2.402528542216181E-012
   32.3950000000000         2.405738022964657E-012
   32.5850000000000         2.410294707096871E-012
   32.7750000000000         2.416054598552478E-012
   32.9650000000000         2.422733583615747E-012
   33.1550000000000         2.430010405362854E-012
   33.3450000000000         2.437768011882064E-012
   33.5350000000000         2.446275762106231E-012
   33.7250000000000         2.455934194134747E-012
   33.9150000000000         2.467269136033881E-012
   34.1050000000000         2.480660503406932E-012
   34.2950000000000         2.496055096108244E-012
   34.4850000000000         2.512947152608099E-012
   34.6750000000000         2.530967225232349E-012
   34.8650000000000         2.550051705768905E-012
   35.0550000000000         2.570097321613043E-012
   35.2450000000000         2.591053741132687E-012
   35.4350000000000         2.612807371528527E-012
   35.6250000000000         2.635059313258836E-012
   35.8150000000000         2.657471392107783E-012
   36.0050000000000         2.679768455155465E-012
   36.1950000000000         2.701750604806192E-012
   36.3850000000000         2.723476624171157E-012
   36.5750000000000         2.744970016525801E-012
   36.7650000000000         2.766240603393984E-012
   36.9550000000000         2.787273012916074E-012
   37.1450000000000         2.807879980991074E-012
   37.3350000000000         2.828009840736358E-012
   37.5250000000000         2.847678953090364E-012
   37.7150000000000         2.866915580443861E-012
   37.9050000000000         2.885741159348294E-012
   38.0950000000000         2.904232425288819E-012
   38.2850000000000         2.922405476143175E-012
   38.4750000000000         2.940180013067866E-012
   38.6650000000000         2.957554375923155E-012
   38.8550000000000         2.974648805365159E-012
   39.0450000000000         2.991537932097431E-012
   39.2350000000000         3.008152430296753E-012
   39.4250000000000         3.024385254119430E-012
   39.6150000000000         3.040092212669803E-012
   39.8050000000000         3.055105811993646E-012
   39.9950000000000         3.069406142773247E-012
   40.1850000000000         3.082983008987945E-012
   40.3750000000000         3.096060555516276E-012
   40.5650000000000         3.108823065736694E-012
   40.7550000000000         3.120997610937632E-012
   40.9450000000000         3.131994233068835E-012
   41.1350000000000         3.140850434995527E-012
   41.3250000000000         3.146886433309806E-012
   41.5150000000000         3.150448903221563E-012
   41.7050000000000         3.152509852909205E-012
   41.8950000000000         3.153890415986321E-012
   42.0850000000000         3.155232553776630E-012
   42.2750000000000         3.157055589469485E-012
   42.4650000000000         3.159760115789122E-012
   42.6550000000000         3.163666937739612E-012
   42.8450000000000         3.169018980434242E-012
   43.0350000000000         3.175930750816896E-012
   43.2250000000000         3.184202334120625E-012
   43.4150000000000         3.193892553422652E-012
   43.6050000000000         3.204644029012695E-012
   43.7950000000000         3.215973675654882E-012
   43.9850000000000         3.227968894277122E-012
   44.1750000000000         3.240742891764806E-012
   44.3650000000000         3.254714108095087E-012
   44.5550000000000         3.270397170731509E-012
   44.7450000000000         3.287993763671294E-012
   44.9350000000000         3.306917535496409E-012
   45.1250000000000         3.326110508929212E-012
   45.3150000000000         3.344874070828462E-012
   45.5050000000000         3.362956912128499E-012
   45.6950000000000         3.380361616809607E-012
   45.8850000000000         3.397245179790514E-012
   46.0750000000000         3.413799186609474E-012
   46.2650000000000         3.430190373174091E-012
   46.4550000000000         3.446504204071116E-012
   46.6450000000000         3.462794772297567E-012
   46.8350000000000         3.479210125104067E-012
   47.0250000000000         3.496072664194140E-012
   47.2150000000000         3.513662677246125E-012
   47.4050000000000         3.531921113017385E-012
   47.5950000000000         3.550534124753286E-012
   47.7850000000000         3.569177762322595E-012
   47.9750000000000         3.587521248012260E-012
   48.1650000000000         3.605287470785885E-012
   48.3550000000000         3.622263531475542E-012
   48.5450000000000         3.638393158758953E-012
   48.7350000000000         3.653738810620798E-012
   48.9250000000000         3.668422279849664E-012
   49.1150000000000         3.682589953013549E-012
   49.3050000000000         3.696031940716694E-012
   49.4950000000000         3.708321653689753E-012
   49.6850000000000         3.719594909924540E-012
   49.8750000000000         3.730569467245476E-012
   50.0650000000000         3.741920018812841E-012
   50.2550000000000         3.754119134878795E-012
   50.4450000000000         3.767405324639353E-012
   50.6350000000000         3.781587945453472E-012
   50.8250000000000         3.796659475897950E-012
   51.0150000000000         3.812405729839347E-012
   51.2050000000000         3.828488963057283E-012
   51.3950000000000         3.845099661167436E-012
   51.5850000000000         3.862303086115857E-012
   51.7750000000000         3.879533643468653E-012
   51.9650000000000         3.895555461318651E-012
   52.1550000000000         3.909292423871265E-012
   52.3450000000000         3.920351651934373E-012
   52.5350000000000         3.928606665534165E-012
   52.7250000000000         3.934071379060174E-012
   52.9150000000000         3.937214696992680E-012
   53.1050000000000         3.938406693258885E-012
   53.2950000000000         3.937847022921133E-012
   53.4850000000000         3.935775000506396E-012
   53.6750000000000         3.932451445978136E-012
   53.8650000000000         3.928772561218894E-012
   54.0550000000000         3.925979792245083E-012
   54.2450000000000         3.925047022925341E-012
   54.4350000000000         3.926771572894445E-012
   54.6250000000000         3.931641109127668E-012
   54.8150000000000         3.939853171377650E-012
   55.0050000000000         3.951396719499084E-012
   55.1950000000000         3.965740516782047E-012
   55.3850000000000         3.982556264110059E-012
   55.5750000000000         4.001407142484720E-012
   55.7650000000000         4.021689843878010E-012
   55.9550000000000         4.043430783169692E-012
   56.1450000000000         4.066775055693621E-012
   56.3350000000000         4.091397113951687E-012
   56.5250000000000         4.116313926281351E-012
   56.7150000000000         4.140575591966547E-012
   56.9050000000000         4.163622328351664E-012
   57.0950000000000         4.185205718040917E-012
   57.2850000000000         4.205442626491501E-012
   57.4750000000000         4.224479177003697E-012
   57.6650000000000         4.242235041764637E-012
   57.8550000000000         4.258829940887058E-012
   58.0450000000000         4.274682767148522E-012
   58.2350000000000         4.290057117772436E-012
   58.4250000000000         4.304960679829720E-012
   58.6150000000000         4.319468130857257E-012
   58.8050000000000         4.333732309125530E-012
   58.9950000000000         4.347865553409556E-012
   59.1850000000000         4.361974378052622E-012
   59.3750000000000         4.376147677696999E-012
   59.5650000000000         4.390413500758698E-012
   59.7550000000000         4.404762588080828E-012
   59.9450000000000         4.419167929760616E-012
   60.1350000000000         4.433596851748696E-012
   60.3250000000000         4.447982020900262E-012
   60.5150000000000         4.462118895740518E-012
   60.7050000000000         4.475681398622194E-012
   60.8950000000000         4.488308572268518E-012
   61.0850000000000         4.499800992005104E-012
   61.2750000000000         4.510164002369741E-012
   61.4650000000000         4.519429308863406E-012
   61.6550000000000         4.527654967756328E-012
   61.8450000000000         4.534879329298689E-012
   62.0350000000000         4.541119889570590E-012
   62.2250000000000         4.546489195589760E-012
   62.4150000000000         4.551053781769008E-012
   62.6050000000000         4.554827885596789E-012
   62.7950000000000         4.558112548610601E-012
   62.9850000000000         4.561111714839762E-012
   63.1750000000000         4.563709178765829E-012
   63.3650000000000         4.565756737090980E-012
   63.5550000000000         4.567033300719936E-012
   63.7450000000000         4.567360042431375E-012
   63.9350000000000         4.566817749634103E-012
   64.1250000000000         4.565681854649940E-012
   64.3150000000000         4.564276927609195E-012
   64.5050000000000         4.562945888627894E-012
   64.6950000000000         4.562109309367007E-012
   64.8850000000000         4.562030876216614E-012
   65.0750000000000         4.562901293604321E-012
   65.2650000000000         4.565155886372082E-012
   65.4550000000000         4.569103481273242E-012
   65.6450000000000         4.574888890843010E-012
   65.8350000000000         4.582705624877970E-012
   66.0250000000000         4.592549487146857E-012
   66.2150000000000         4.604199472112459E-012
   66.4050000000000         4.617508447227134E-012
   66.5950000000000         4.631893917815372E-012
   66.7850000000000         4.647112737822750E-012
   66.9750000000000         4.663151375450489E-012
   67.1650000000000         4.679745640730301E-012
   67.3550000000000         4.697014629893185E-012
   67.5450000000000         4.715119291221821E-012
   67.7350000000000         4.734195363528099E-012
   67.9250000000000         4.754166145887417E-012
   68.1150000000000         4.774647858159598E-012
   68.3050000000000         4.795088450743650E-012
   68.4950000000000         4.814960496645517E-012
   68.6850000000000         4.833917757100587E-012
   68.8750000000000         4.851831781420572E-012
   69.0650000000000         4.868701463590911E-012
   69.2550000000000         4.884594323966281E-012
   69.4450000000000         4.899650622059019E-012
   69.6350000000000         4.914099015543549E-012
   69.8250000000000         4.928183177369779E-012
   70.0150000000000         4.942079348106793E-012
   70.2050000000000         4.955935474678939E-012
   70.3950000000000         4.969913523020678E-012
   70.5850000000000         4.984131972738028E-012
   70.7750000000000         4.998632298976792E-012
   70.9650000000000         5.013340828970759E-012
   71.1550000000000         5.028035644047996E-012
   71.3450000000000         5.042500703411846E-012
   71.5350000000000         5.056461209172580E-012
   71.7250000000000         5.069900287695935E-012
   71.9150000000000         5.082761360776223E-012
   72.1050000000000         5.095051671899963E-012
   72.2950000000000         5.106989214366984E-012
   72.4850000000000         5.118573165148822E-012
   72.6750000000000         5.129885579773400E-012
   72.8650000000000         5.140792525185168E-012
   73.0550000000000         5.151000461317420E-012
   73.2450000000000         5.160195494961453E-012
   73.4350000000000         5.167794274857818E-012
   73.6250000000000         5.173159750490124E-012
   73.8150000000000         5.176199252087159E-012
   74.0050000000000         5.177358506334667E-012
   74.1950000000000         5.177349049306049E-012
   74.3850000000000         5.176879568598259E-012
   74.5750000000000         5.176458254683970E-012
   74.7650000000000         5.176475556308005E-012
   74.9550000000000         5.177172684777652E-012
   75.1450000000000         5.178690954730682E-012
   75.3350000000000         5.180782351035717E-012
   75.5250000000000         5.183609209572724E-012
   75.7150000000000         5.187195188075094E-012
   75.9050000000000         5.191278776180381E-012
   76.0950000000000         5.196279103276423E-012
   76.2850000000000         5.202876210176457E-012
   76.4750000000000         5.211839507781968E-012
   76.6650000000000         5.223318836944365E-012
   76.8550000000000         5.236609996367861E-012
   77.0450000000000         5.251110861876591E-012
   77.2350000000000         5.266976157084551E-012
   77.4250000000000         5.284639223954236E-012
   77.6150000000000         5.304170440084815E-012
   77.8050000000000         5.324895450304718E-012
   77.9950000000000         5.345892711826927E-012
   78.1850000000000         5.366551519642428E-012
   78.3750000000000         5.386521909358632E-012
   78.5650000000000         5.405732026802840E-012
   78.7550000000000         5.424223174615701E-012
   78.9450000000000         5.442269776571376E-012
   79.1350000000000         5.459968198819277E-012
   79.3250000000000         5.477210721518045E-012
   79.5150000000000         5.493888343055427E-012
   79.7050000000000         5.509534309780730E-012
   79.8950000000000         5.523524947866443E-012
   80.0850000000000         5.535388517524968E-012
   80.2750000000000         5.545248148156818E-012
   80.4650000000000         5.553665336958289E-012
   80.6550000000000         5.561190053039516E-012
   80.8450000000000         5.568181598183945E-012
   81.0350000000000         5.574823027984703E-012
   81.2250000000000         5.581226672459848E-012
   81.4150000000000         5.587410822149846E-012
   81.6050000000000         5.593337920595368E-012
   81.7950000000000         5.599024148133910E-012
   81.9850000000000         5.604439395837356E-012
   82.1750000000000         5.609559874120211E-012
   82.3650000000000         5.614362501219129E-012
   82.5550000000000         5.618652797457740E-012
   82.7450000000000         5.622184113047279E-012
   82.9350000000000         5.624911018544374E-012
   83.1250000000000         5.627000724070013E-012
   83.3150000000000         5.628654245972073E-012
   83.5050000000000         5.630031581557783E-012
   83.6950000000000         5.631300955371797E-012
   83.8850000000000         5.632593427701701E-012
   84.0750000000000         5.633953760022754E-012
   84.2650000000000         5.635390717813321E-012
   84.4550000000000         5.636867923719191E-012
   84.6450000000000         5.638336616829444E-012
   84.8350000000000         5.639776961109855E-012
   85.0250000000000         5.641258032788114E-012
   85.2150000000000         5.643006684600074E-012
   85.4050000000000         5.645412592403129E-012
   85.5950000000000         5.648950815677054E-012
   85.7850000000000         5.653869910924289E-012
   85.9750000000000         5.660054801519405E-012
   86.1650000000000         5.667287969612838E-012
   86.3550000000000         5.675426377687470E-012
   86.5450000000000         5.684450661167919E-012
   86.7350000000000         5.694445866121954E-012
   86.9250000000000         5.705490997315238E-012
   87.1150000000000         5.717599324201045E-012
   87.3050000000000         5.730770580045432E-012
   87.4950000000000         5.745028780748403E-012
   87.6850000000000         5.760340147288347E-012
   87.8750000000000         5.776471242457979E-012
   88.0650000000000         5.793224308665401E-012
   88.2550000000000         5.810469936247152E-012
   88.4450000000000         5.828127393558017E-012
   88.6350000000000         5.846243218907983E-012
   88.8250000000000         5.864922236999641E-012
   89.0150000000000         5.884256678417580E-012
   89.2050000000000         5.904051202257700E-012
   89.3950000000000         5.923614564469606E-012
   89.5850000000000         5.941945447451521E-012
   89.7750000000000         5.958494396869607E-012
   89.9650000000000         5.973206377026493E-012
   90.1550000000000         5.986001651113823E-012
   90.3450000000000         5.996908228708615E-012
   90.5350000000000         6.006087460443738E-012
   90.7250000000000         6.013735175032715E-012
   90.9150000000000         6.020161290780807E-012
   91.1050000000000         6.025734276983430E-012
   91.2950000000000         6.030821950582716E-012
   91.4850000000000         6.035747164259395E-012
   91.6750000000000         6.040809803812132E-012
   91.8650000000000         6.046267484085522E-012
   92.0550000000000         6.052249962753783E-012
   92.2450000000000         6.058694305766192E-012
   92.4350000000000         6.065446348396607E-012
   92.6250000000000         6.072424360943548E-012
   92.8150000000000         6.079556446788949E-012
   93.0050000000000         6.086778611963109E-012
   93.1950000000000         6.094045463734445E-012
   93.3850000000000         6.101125682873744E-012
   93.5750000000000         6.107434957558440E-012
   93.7650000000000         6.112333291669411E-012
   93.9550000000000         6.115560101141034E-012
   94.1450000000000         6.117105726628834E-012
   94.3350000000000         6.116991582155682E-012
   94.5250000000000         6.115315051270589E-012
   94.7150000000000         6.112298882160850E-012
   94.9050000000000         6.108192170914761E-012
   95.0950000000000         6.103344629209794E-012
   95.2850000000000         6.098082501484934E-012
   95.4750000000000         6.092616615955928E-012
   95.6650000000000         6.087231660206966E-012
   95.8550000000000         6.082046219889222E-012
   96.0450000000000         6.077136469514558E-012
   96.2350000000000         6.072772085410441E-012
   96.4250000000000         6.069351865889755E-012
   96.6150000000000         6.067455931438072E-012
   96.8050000000000         6.067724840268088E-012
   96.9950000000000         6.070509721942135E-012
   97.1850000000000         6.075679782345341E-012
   97.3750000000000         6.082589637137457E-012
   97.5650000000000         6.090860751655354E-012
   97.7550000000000         6.100530183244538E-012
   97.9450000000000         6.111547321306013E-012
   98.1350000000000         6.123910762259281E-012
   98.3250000000000         6.137478027832068E-012
   98.5150000000000         6.151906708545468E-012
   98.7050000000000         6.166791323429315E-012
   98.8950000000000         6.181759608918530E-012
   99.0850000000000         6.196497780563558E-012
   99.2750000000000         6.210663972872736E-012
   99.4650000000000         6.223714427814128E-012
   99.6550000000000         6.235230831996727E-012
   99.8450000000000         6.245078821032942E-012
   100.035000000000         6.253203455503988E-012
   100.225000000000         6.259688235924530E-012
   100.415000000000         6.264737637215941E-012
   100.605000000000         6.268599124361743E-012
   100.795000000000         6.271583158186167E-012
   100.985000000000         6.273965200690507E-012
   101.175000000000         6.276043904526257E-012
   101.365000000000         6.277971418575554E-012
   101.555000000000         6.279778066348289E-012
   101.745000000000         6.281495694728723E-012
   101.935000000000         6.283003980336223E-012
   102.125000000000         6.284283921637225E-012
   102.315000000000         6.285515458784612E-012
   102.505000000000         6.286916412401657E-012
   102.695000000000         6.288561482293350E-012
   102.885000000000         6.290430588897564E-012
   103.075000000000         6.292513558868061E-012
   103.265000000000         6.294788023627524E-012
   103.455000000000         6.297200757234585E-012
   103.645000000000         6.299670352255777E-012
   103.835000000000         6.302103196449685E-012
   104.025000000000         6.304397991867635E-012
   104.215000000000         6.306522337074881E-012
   104.405000000000         6.308476036843269E-012
   104.595000000000         6.310178746136171E-012
   104.785000000000         6.311467232076660E-012
   104.975000000000         6.312033845916543E-012
   105.165000000000         6.311571121221244E-012
   105.355000000000         6.309998948355029E-012
   105.545000000000         6.307431378462939E-012
   105.735000000000         6.304054885077356E-012
   105.925000000000         6.300139299712925E-012
   106.115000000000         6.295995930460509E-012
   106.305000000000         6.291851583880626E-012
   106.495000000000         6.287855339258361E-012
   106.685000000000         6.284160391104465E-012
   106.875000000000         6.280787378457294E-012
   107.065000000000         6.277787335862491E-012
   107.255000000000         6.275330980224325E-012
   107.445000000000         6.273541691236301E-012
   107.635000000000         6.272527183240503E-012
   107.825000000000         6.272324254489299E-012
   108.015000000000         6.272895083179767E-012
   108.205000000000         6.274267291169177E-012
   108.395000000000         6.276787796832103E-012
   108.585000000000         6.281061262121986E-012
   108.775000000000         6.287358589228615E-012
   108.965000000000         6.295654454318542E-012
   109.155000000000         6.305210336859216E-012
   109.345000000000         6.315669044881364E-012
   109.535000000000         6.326897502494405E-012
   109.725000000000         6.338372546085646E-012
   109.915000000000         6.350092299970005E-012
   110.105000000000         6.362068239538805E-012