  -1.42500000000000         0.000000000000000E+000
  -1.23500000000000         2.083840064195274E-020
  -1.04500000000000        -8.729575052429501E-019
 -0.855000000000000        -6.523633732114854E-018
 -0.665000000000000        -3.948635112373775E-017
 -0.475000000000000        -1.909079801063896E-016
 -0.285000000000000        -7.535057268166092E-016
 -9.499999999999975E-002   -2.440994839049635E-015
  9.500000000000020E-002   -6.630002703389969E-015
  0.285000000000000        -1.528181115539524E-014
  0.475000000000000        -3.098801090929126E-014
  0.665000000000000        -5.726458627783445E-014
  0.855000000000000        -9.910084066942970E-014
   1.04500000000000        -1.622712511463174E-013
   1.23500000000000        -2.504798744159232E-013
   1.42500000000000        -3.668461203196361E-013
   1.61500000000000        -5.151418635759066E-013
   1.80500000000000        -6.993041242197702E-013
   1.99500000000000        -9.235350193769468E-013
   2.18500000000000        -1.190435478026871E-012
   2.37500000000000        -1.501698903906265E-012
   2.56500000000000        -1.858009633059598E-012
   2.75500000000000        -2.258941590885068E-012
   2.94500000000000        -2.703389048347754E-012
   3.13500000000000        -3.190017122949082E-012
   3.32500000000000        -3.717856529697069E-012
   3.51500000000000        -4.286905478240142E-012
   3.70500000000000        -4.896117117916011E-012
   3.89500000000000        -5.545059953371903E-012
   4.08500000000000        -6.233073240169228E-012
   4.27500000000000        -6.959542530714279E-012
   4.46500000000000        -7.723713714298263E-012
   4.65500000000000        -8.524251865388061E-012
   4.84500000000000        -9.359292838383075E-012
   5.03500000000000        -1.022680464225027E-011
   5.22500000000000        -1.112521167848051E-011
   5.41500000000000        -1.205418836090453E-011
   5.60500000000000        -1.301262444734798E-011
   5.79500000000000        -1.399892108752956E-011
   5.98500000000000        -1.501014473712828E-011
   6.17500000000000        -1.604318681387093E-011
   6.36500000000000        -1.709509890159513E-011
   6.55500000000000        -1.816273588682666E-011
   6.74500000000000        -1.924466742829375E-011
   6.93500000000000        -2.033990746499505E-011
   7.12500000000000        -2.144823675345121E-011
   7.31500000000000        -2.257204316450842E-011
   7.50500000000000        -2.371492971288348E-011
   7.69500000000000        -2.488095517681381E-011
   7.88500000000000        -2.607432254044678E-011
   8.07500000000000        -2.729946742726576E-011
   8.26500000000000        -2.856116658654939E-011
   8.45500000000000        -2.986301287108177E-011
   8.64500000000000        -3.120838843373024E-011
   8.83500000000000        -3.260043089023022E-011
   9.02500000000000        -3.404063517227816E-011
   9.21500000000000        -3.552965332214391E-011
   9.40500000000000        -3.706226784457949E-011
   9.59500000000000        -3.863115063544824E-011
   9.78500000000000        -4.022996892118247E-011
   9.97500000000000        -4.185428251011685E-011
   10.1650000000000        -4.350002789730888E-011
   10.3550000000000        -4.516386503167064E-011
   10.5450000000000        -4.684290375798003E-011
   10.7350000000000        -4.853458920963686E-011
   10.9250000000000        -5.023855374008632E-011
   11.1150000000000        -5.195441924139286E-011
   11.3050000000000        -5.368162280297810E-011
   11.4950000000000        -5.541943538186130E-011
   11.6850000000000        -5.716731350331496E-011
   11.8750000000000        -5.892555585653295E-011
   12.0650000000000        -6.069541971205566E-011
   12.2550000000000        -6.247875202848951E-011
   12.4450000000000        -6.427753645270785E-011
   12.6350000000000        -6.609411414011877E-011
   12.8250000000000        -6.792881799258379E-011
   13.0150000000000        -6.978297964053883E-011
   13.2050000000000        -7.165691589847338E-011
   13.3950000000000        -7.355004821838735E-011
   13.5850000000000        -7.546042475597201E-011
   13.7750000000000        -7.738453295563845E-011
   13.9650000000000        -7.931995655771191E-011
   14.1550000000000        -8.126511463186275E-011
   14.3450000000000        -8.321983756256703E-011
   14.5350000000000        -8.518295564272182E-011
   14.7250000000000        -8.715429363822252E-011
   14.9150000000000        -8.913370593807302E-011
   15.1050000000000        -9.112218357455716E-011
   15.2950000000000        -9.312353269727989E-011
   15.4850000000000        -9.514198949017014E-011
   15.6750000000000        -9.718194332891559E-011
   15.8650000000000        -9.924624590781913E-011
   16.0550000000000        -1.013376807212664E-010
   16.2450000000000        -1.034591370473515E-010
   16.4350000000000        -1.056127497257464E-010
   16.6250000000000        -1.078001034751790E-010
   16.8150000000000        -1.100221243084305E-010
   17.0050000000000        -1.122799654859244E-010
   17.1950000000000        -1.145741308497688E-010
   17.3850000000000        -1.169053528237208E-010
   17.5750000000000        -1.192739215682133E-010
   17.7650000000000        -1.216803399322641E-010
   17.9550000000000        -1.241247880357004E-010
   18.1450000000000        -1.266074245006542E-010
   18.3350000000000        -1.291283787774816E-010
   18.5250000000000        -1.316878155205898E-010
   18.7150000000000        -1.342858902554580E-010
   18.9050000000000        -1.369224936144007E-010
   19.0950000000000        -1.395970224694299E-010
   19.2850000000000        -1.423085740383827E-010
   19.4750000000000        -1.450559856262070E-010
   19.6650000000000        -1.478376299419036E-010
   19.8550000000000        -1.506515119478962E-010
   20.0450000000000        -1.534946016450434E-010
   20.2350000000000        -1.563644503278771E-010
   20.4250000000000        -1.592590460199911E-010
   20.6150000000000        -1.621762823187067E-010
   20.8050000000000        -1.651136817841441E-010
   20.9950000000000        -1.680689988280547E-010
   21.1850000000000        -1.710407254328358E-010
   21.3750000000000        -1.740288740365978E-010
   21.5650000000000        -1.770317894958567E-010
   21.7550000000000        -1.800493653075666E-010
   21.9450000000000        -1.830813178119907E-010
   22.1350000000000        -1.861277983322091E-010
   22.3250000000000        -1.891907025598149E-010
   22.5150000000000        -1.922745157129408E-010
   22.7050000000000        -1.953844490347268E-010
   22.8950000000000        -1.985254442459298E-010
   23.0850000000000        -2.017029685599808E-010
   23.2750000000000        -2.049224212065945E-010
   23.4650000000000        -2.081883978449497E-010
   23.6550000000000        -2.115046373207653E-010
   23.8450000000000        -2.148749950518725E-010
   24.0350000000000        -2.183030561658567E-010
   24.2250000000000        -2.217913441339777E-010
   24.4150000000000        -2.253411062224133E-010
   24.6050000000000        -2.289529347233509E-010
   24.7950000000000        -2.326257708050918E-010
   24.9850000000000        -2.363581176804306E-010
   25.1750000000000        -2.401475752603258E-010
   25.3650000000000        -2.439913782900491E-010
   25.5550000000000        -2.478854949581014E-010
   25.7450000000000        -2.518265302045955E-010
   25.9350000000000        -2.558088942352064E-010
   26.1250000000000        -2.598274507855723E-010
   26.3150000000000        -2.638791844783283E-010
   26.5050000000000        -2.679617178722182E-010
   26.6950000000000        -2.720724731144440E-010
   26.8850000000000        -2.762094034031382E-010
   27.0750000000000        -2.803709690946846E-010
   27.2650000000000        -2.845562463201470E-010
   27.4550000000000        -2.887652996657351E-010
   27.6450000000000        -2.929993039966945E-010
   27.8350000000000        -2.972596089258886E-010
   28.0250000000000        -3.015460292521416E-010
   28.2150000000000        -3.058589397896944E-010
   28.4050000000000        -3.101986905229400E-010
   28.5950000000000        -3.145637213419230E-010
   28.7850000000000        -3.189507090675783E-010
   28.9750000000000        -3.233554041450469E-010
   29.1650000000000        -3.277698582906063E-010
   29.3550000000000        -3.321873424328337E-010
   29.5450000000000        -3.366007309669138E-010
   29.7350000000000        -3.410035232585376E-010
   29.9250000000000        -3.453886746829676E-010
   30.1150000000000        -3.497490773395301E-010
   30.3050000000000        -3.540794263889987E-010
   30.4950000000000        -3.583754974122936E-010
   30.6850000000000        -3.626371924515232E-010
   30.8750000000000        -3.668636894153655E-010
   31.0650000000000        -3.710560120418803E-010
   31.2550000000000        -3.752210826177777E-010
   31.4450000000000        -3.793661078741763E-010
   31.6350000000000        -3.834992598551351E-010
   31.8250000000000        -3.876294980473179E-010
   32.0150000000000        -3.917667549859242E-010
   32.2050000000000        -3.959212175550470E-010
   32.3950000000000        -4.001004621630565E-010
   32.5850000000000        -4.043084642620473E-010
   32.7750000000000        -4.085499447365960E-010
   32.9650000000000        -4.128289238412506E-010
   33.1550000000000        -4.171470017775736E-010
   33.3450000000000        -4.215050824822708E-010
   33.5350000000000        -4.259042364901464E-010
   33.7250000000000        -4.303453620043689E-010
   33.9150000000000        -4.348279046397293E-010
   34.1050000000000        -4.393482820850273E-010
   34.2950000000000        -4.439003988027713E-010
   34.4850000000000        -4.484785631417325E-010
   34.6750000000000        -4.530800353405983E-010
   34.8650000000000        -4.577010513002268E-010
   35.0550000000000        -4.623381253092214E-010
   35.2450000000000        -4.669885601186422E-010
   35.4350000000000        -4.716510884732354E-010
   35.6250000000000        -4.763270759136557E-010
   35.8150000000000        -4.810192772647940E-010
   36.0050000000000        -4.857308925499076E-010
   36.1950000000000        -4.904643751263118E-010
   36.3850000000000        -4.952225472102669E-010
   36.5750000000000        -5.000065827695447E-010
   36.7650000000000        -5.048178694308533E-010
   36.9550000000000        -5.096566415592247E-010
   37.1450000000000        -5.145234066214711E-010
   37.3350000000000        -5.194179765296940E-010
   37.5250000000000        -5.243397227889957E-010
   37.7150000000000        -5.292878160360473E-010
   37.9050000000000        -5.342613036079474E-010
   38.0950000000000        -5.392592875141773E-010
   38.2850000000000        -5.442813747292506E-010
   38.4750000000000        -5.493285013656760E-010
   38.6650000000000        -5.544050709452399E-010
   38.8550000000000        -5.595208431358866E-010
   39.0450000000000        -5.646818699622530E-010
   39.2350000000000        -5.698955597798198E-010
   39.4250000000000        -5.751696203004808E-010
   39.6150000000000        -5.805114310184733E-010
   39.8050000000000        -5.859255828314473E-010
   39.9950000000000        -5.914159623581791E-010
   40.1850000000000        -5.969853547871594E-010
   40.3750000000000        -6.026358649213601E-010
   40.5650000000000        -6.083678040576352E-010
   40.7550000000000        -6.141817393797847E-010
   40.9450000000000        -6.200780155308620E-010
   41.1350000000000        -6.260549294395470E-010
   41.3250000000000        -6.321074539980872E-010
   41.5150000000000        -6.382276809978520E-010
   41.7050000000000        -6.444089564641627E-010
   41.8950000000000        -6.506448834117530E-010
   42.0850000000000        -6.569279215170248E-010
   42.2750000000000        -6.632511453515541E-010
   42.4650000000000        -6.696078448438865E-010
   42.6550000000000        -6.759913444419401E-010
   42.8450000000000        -6.823955426078414E-010
   43.0350000000000        -6.888146464520040E-010
   43.2250000000000        -6.952437508447034E-010
   43.4150000000000        -7.016794345863983E-010
   43.6050000000000        -7.081172595961056E-010
   43.7950000000000        -7.145557021729027E-010
   43.9850000000000        -7.209930722650374E-010
   44.1750000000000        -7.274278676934611E-010
   44.3650000000000        -7.338584411975236E-010
   44.5550000000000        -7.402834345105585E-010
   44.7450000000000        -7.467046902205581E-010
   44.9350000000000        -7.531290710696663E-010
   45.1250000000000        -7.595687676095468E-010
   45.3150000000000        -7.660343293366651E-010
   45.5050000000000        -7.725341451149402E-010
   45.6950000000000        -7.790758099898287E-010
   45.8850000000000        -7.856646026762682E-010
   46.0750000000000        -7.923031065953847E-010
   46.2650000000000        -7.989935007794264E-010
   46.4550000000000        -8.057364922505963E-010
   46.6450000000000        -8.125328889842604E-010
   46.8350000000000        -8.193831688295774E-010
   47.0250000000000        -8.262842962994156E-010
   47.2150000000000        -8.332280466397624E-010
   47.4050000000000        -8.402039266364402E-010
   47.5950000000000        -8.472048551459732E-010
   47.7850000000000        -8.542240984373403E-010
   47.9750000000000        -8.612557107879735E-010
   48.1650000000000        -8.682947974082038E-010
   48.3550000000000        -8.753369158541710E-010
   48.5450000000000        -8.823771073018961E-010
   48.7350000000000        -8.894119688453699E-010
   48.9250000000000        -8.964391009168893E-010
   49.1150000000000        -9.034573989417579E-010
   49.3050000000000        -9.104659744128854E-010
   49.4950000000000        -9.174641326864207E-010
   49.6850000000000        -9.244554760379013E-010
   49.8750000000000        -9.314483470948445E-010
   50.0650000000000        -9.384538794042152E-010
   50.2550000000000        -9.454785885313359E-010
   50.4450000000000        -9.525304347159879E-010
   50.6350000000000        -9.596153658160006E-010
   50.8250000000000        -9.667372383874668E-010
   51.0150000000000        -9.739012090515943E-010
   51.2050000000000        -9.811084941333498E-010
   51.3950000000000        -9.883603686421922E-010
   51.5850000000000        -9.956590333438072E-010
   51.7750000000000        -1.003005764405096E-009
   51.9650000000000        -1.010394263570152E-009
   52.1550000000000        -1.017816793615508E-009
   52.3450000000000        -1.025266460536807E-009
   52.5350000000000        -1.032739549881939E-009
   52.7250000000000        -1.040231523105819E-009
   52.9150000000000        -1.047741396493139E-009
   53.1050000000000        -1.055268143949363E-009
   53.2950000000000        -1.062811928217472E-009
   53.4850000000000        -1.070373511973717E-009
   53.6750000000000        -1.077954115220782E-009
   53.8650000000000        -1.085557060686178E-009
   54.0550000000000        -1.093186067332959E-009
   54.2450000000000        -1.100845353379786E-009
   54.4350000000000        -1.108539539734962E-009
   54.6250000000000        -1.116273595607292E-009
   54.8150000000000        -1.124051868662884E-009
   55.0050000000000        -1.131878688361023E-009
   55.1950000000000        -1.139757715575134E-009
   55.3850000000000        -1.147691638316068E-009
   55.5750000000000        -1.155682485892852E-009
   55.7650000000000        -1.163731795165834E-009
   55.9550000000000        -1.171839784595669E-009
   56.1450000000000        -1.180004909432187E-009
   56.3350000000000        -1.188222881849285E-009
   56.5250000000000        -1.196487651270884E-009
   56.7150000000000        -1.204793596631016E-009
   56.9050000000000        -1.213134467770668E-009
   57.0950000000000        -1.221504126785858E-009
   57.2850000000000        -1.229896921864671E-009
   57.4750000000000        -1.238309056778176E-009
   57.6650000000000        -1.246736409721177E-009
   57.8550000000000        -1.255174954185445E-009
   58.0450000000000        -1.263623532600829E-009
   58.2350000000000        -1.272082198761344E-009
   58.4250000000000        -1.280550293550084E-009
   58.6150000000000        -1.289027475512234E-009
   58.8050000000000        -1.297513915395821E-009
   58.9950000000000        -1.306010048175547E-009
   59.1850000000000        -1.314516683221902E-009
   59.3750000000000        -1.323034510456898E-009
   59.5650000000000        -1.331564013799627E-009
   59.7550000000000        -1.340105516214145E-009
   59.9450000000000        -1.348659577397494E-009
   60.1350000000000        -1.357227073458038E-009
   60.3250000000000        -1.365809426918598E-009
   60.5150000000000        -1.374408427372022E-009
   60.7050000000000        -1.383025569244806E-009
   60.8950000000000        -1.391661389279135E-009
   61.0850000000000        -1.400314835323778E-009
   61.2750000000000        -1.408984440011300E-009
   61.4650000000000        -1.417667642422760E-009
   61.6550000000000        -1.426361918851643E-009
   61.8450000000000        -1.435065617379917E-009
   62.0350000000000        -1.443776821316443E-009
   62.2250000000000        -1.452494014646715E-009
   62.4150000000000        -1.461216033262497E-009
   62.6050000000000        -1.469942416690618E-009
   62.7950000000000        -1.478672184705384E-009
   62.9850000000000        -1.487405628044079E-009
   63.1750000000000        -1.496142896705752E-009
   63.3650000000000        -1.504884242509352E-009
   63.5550000000000        -1.513629919766442E-009
   63.7450000000000        -1.522380313091535E-009
   63.9350000000000        -1.531135799762132E-009
   64.1250000000000        -1.539897118379396E-009
   64.3150000000000        -1.548665740463804E-009
   64.5050000000000        -1.557443131374156E-009
   64.6950000000000        -1.566230481365878E-009
   64.8850000000000        -1.575029575277452E-009
   65.0750000000000        -1.583841307234525E-009
   65.2650000000000        -1.592667189391745E-009
   65.4550000000000        -1.601508672667262E-009
   65.6450000000000        -1.610366709475787E-009
   65.8350000000000        -1.619242207966562E-009
   66.0250000000000        -1.628136115172904E-009
   66.2150000000000        -1.637049792431141E-009
   66.4050000000000        -1.645983867052052E-009
   66.5950000000000        -1.654938481004547E-009
   66.7850000000000        -1.663913423201796E-009
   66.9750000000000        -1.672908813858310E-009
   67.1650000000000        -1.681924728767466E-009
   67.3550000000000        -1.690961394268631E-009
   67.5450000000000        -1.700019150815846E-009
   67.7350000000000        -1.709098502616968E-009
   67.9250000000000        -1.718200106924648E-009
   68.1150000000000        -1.727324965468550E-009
   68.3050000000000        -1.736474294112041E-009
   68.4950000000000        -1.745649500527218E-009
   68.6850000000000        -1.754851322579596E-009
   68.8750000000000        -1.764080756423263E-009
   69.0650000000000        -1.773339018496948E-009
   69.2550000000000        -1.782627507661740E-009
   69.4450000000000        -1.791947655767531E-009
   69.6350000000000        -1.801300857779833E-009
   69.8250000000000        -1.810688778520832E-009
   70.0150000000000        -1.820112012255972E-009
   70.2050000000000        -1.829571904179091E-009
   70.3950000000000        -1.839070094083610E-009
   70.5850000000000        -1.848608402918224E-009
   70.7750000000000        -1.858188781037657E-009
   70.9650000000000        -1.867813587749589E-009
   71.1550000000000        -1.877485391668618E-009
   71.3450000000000        -1.887207852040463E-009
   71.5350000000000        -1.896983763818408E-009
   71.7250000000000        -1.906816770445609E-009
   71.9150000000000        -1.916708514979095E-009
   72.1050000000000        -1.926661021797547E-009
   72.2950000000000        -1.936675004957439E-009
   72.4850000000000        -1.946751260697899E-009
   72.6750000000000        -1.956890325229883E-009
   72.8650000000000        -1.967092597908977E-009
   73.0550000000000        -1.977358735116243E-009
   73.2450000000000        -1.987689101957140E-009
   73.4350000000000        -1.998083555637898E-009
   73.6250000000000        -2.008540909021580E-009
   73.8150000000000        -2.019058120671464E-009
   74.0050000000000        -2.029631062935088E-009
   74.1950000000000        -2.040254315770043E-009
   74.3850000000000        -2.050922022338074E-009
   74.5750000000000        -2.061627096643837E-009
   74.7650000000000        -2.072363538847936E-009
   74.9550000000000        -2.083125456192857E-009
   75.1450000000000        -2.093908540577859E-009
   75.3350000000000        -2.104708773079680E-009
   75.5250000000000        -2.115525081773183E-009
   75.7150000000000        -2.126354999876608E-009
   75.9050000000000        -2.137198486274977E-009
   76.0950000000000        -2.148055191593151E-009
   76.2850000000000        -2.158924856510939E-009
   76.4750000000000        -2.169808224656536E-009
   76.6650000000000        -2.180706910848690E-009
   76.8550000000000        -2.191622400178283E-009
   77.0450000000000        -2.202555266266456E-009
   77.2350000000000        -2.213505589918361E-009
   77.4250000000000        -2.224472545694751E-009
   77.6150000000000        -2.235452931770225E-009
   77.8050000000000        -2.246441950225938E-009
   77.9950000000000        -2.257434366400665E-009
   78.1850000000000        -2.268425589454791E-009
   78.3750000000000        -2.279411272742203E-009
   78.5650000000000        -2.290387193190478E-009
   78.7550000000000        -2.301349674767866E-009
   78.9450000000000        -2.312295784377202E-009
   79.1350000000000        -2.323224229634752E-009
   79.3250000000000        -2.334133160615588E-009
   79.5150000000000        -2.345021346595427E-009
   79.7050000000000        -2.355887507559225E-009
   79.8950000000000        -2.366730973384126E-009
   80.0850000000000        -2.377554629970326E-009
   80.2750000000000        -2.388365560640606E-009
   80.4650000000000        -2.399173429104915E-009
   80.6550000000000        -2.409989253047066E-009
   80.8450000000000        -2.420821699632372E-009
   81.0350000000000        -2.431679660043162E-009
   81.2250000000000        -2.442572164023812E-009
   81.4150000000000        -2.453506761271833E-009
   81.6050000000000        -2.464489411750623E-009
   81.7950000000000        -2.475525484676429E-009
   81.9850000000000        -2.486619670491986E-009
   82.1750000000000        -2.497774837658314E-009
   82.3650000000000        -2.508992522658566E-009
   82.5550000000000        -2.520274919456838E-009
   82.7450000000000        -2.531622409292701E-009
   82.9350000000000        -2.543030266192258E-009
   83.1250000000000        -2.554491331688818E-009
   83.3150000000000        -2.565999865769144E-009
   83.5050000000000        -2.577551203917020E-009
   83.6950000000000        -2.589141018105458E-009
   83.8850000000000        -2.600767127571101E-009
   84.0750000000000        -2.612425581019019E-009
   84.2650000000000        -2.624115103408301E-009
   84.4550000000000        -2.635835076120445E-009
   84.6450000000000        -2.647585357113195E-009
   84.8350000000000        -2.659365873291818E-009
   85.0250000000000        -2.671176547609254E-009
   85.2150000000000        -2.683016909125430E-009
   85.4050000000000        -2.694886468613834E-009
   85.5950000000000        -2.706784991684285E-009
   85.7850000000000        -2.718712598779549E-009
   85.9750000000000        -2.730671061246714E-009
   86.1650000000000        -2.742662796584571E-009
   86.3550000000000        -2.754689563081267E-009
   86.5450000000000        -2.766752281019111E-009
   86.7350000000000        -2.778851383879860E-009
   86.9250000000000        -2.790986855075065E-009
   87.1150000000000        -2.803158079774302E-009
   87.3050000000000        -2.815364112763448E-009
   87.4950000000000        -2.827604211208297E-009
   87.6850000000000        -2.839878010480075E-009
   87.8750000000000        -2.852185611685222E-009
   88.0650000000000        -2.864527808894842E-009
   88.2550000000000        -2.876904970601131E-009
   88.4450000000000        -2.889317571989164E-009
   88.6350000000000        -2.901766201234450E-009
   88.8250000000000        -2.914251374641247E-009
   89.0150000000000        -2.926773875710696E-009
   89.2050000000000        -2.939334884476241E-009
   89.3950000000000        -2.951936540220276E-009
   89.5850000000000        -2.964579186483409E-009
   89.7750000000000        -2.977260334683935E-009
   89.9650000000000        -2.989977670313196E-009
   90.1550000000000        -3.002729454080584E-009
   90.3450000000000        -3.015514636540097E-009
   90.5350000000000        -3.028332921043579E-009
   90.7250000000000        -3.041184046404914E-009
   90.9150000000000        -3.054067644062628E-009
   91.1050000000000        -3.066983417510101E-009
   91.2950000000000        -3.079930694701612E-009
   91.4850000000000        -3.092908768932926E-009
   91.6750000000000        -3.105916074185854E-009
   91.8650000000000        -3.118950402518731E-009
   92.0550000000000        -3.132008986702447E-009
   92.2450000000000        -3.145088795987505E-009
   92.4350000000000        -3.158187387602370E-009
   92.6250000000000        -3.171303144048922E-009
   92.8150000000000        -3.184434266661536E-009
   93.0050000000000        -3.197578955704488E-009
   93.1950000000000        -3.210735093359748E-009
   93.3850000000000        -3.223899344396055E-009
   93.5750000000000        -3.237068530269324E-009
   93.7650000000000        -3.250242137311572E-009
   93.9550000000000        -3.263423431596276E-009
   94.1450000000000        -3.276615429586422E-009
   94.3350000000000        -3.289821284417656E-009
   94.5250000000000        -3.303043270762285E-009
   94.7150000000000        -3.316283498228100E-009
   94.9050000000000        -3.329544209561497E-009
   95.0950000000000        -3.342827822250288E-009
   95.2850000000000        -3.356135865083333E-009
   95.4750000000000        -3.369470093423284E-009
   95.6650000000000        -3.382831639925091E-009
   95.8550000000000        -3.396221792396866E-009
   96.0450000000000        -3.409641108287460E-009
   96.2350000000000        -3.423089941460577E-009
   96.4250000000000        -3.436568164756135E-009
   96.6150000000000        -3.450074867645350E-009
   96.8050000000000        -3.463608248065568E-009
   96.9950000000000        -3.477166014530274E-009
   97.1850000000000        -3.490746041233255E-009
   97.3750000000000        -3.504346681423315E-009
   97.5650000000000        -3.517966861115065E-009
   97.7550000000000        -3.531606543971929E-009
   97.9450000000000        -3.545266488974305E-009
   98.1350000000000        -3.558948473013010E-009
   98.3250000000000        -3.572655659731428E-009
   98.5150000000000        -3.586390859757448E-009
   98.7050000000000        -3.600156417455935E-009
   98.8950000000000        -3.613954280297348E-009
   99.0850000000000        -3.627785702194782E-009
   99.2750000000000        -3.641651042932573E-009
   99.4650000000000        -3.655548657239480E-009
   99.6550000000000        -3.669475785278460E-009
   99.8450000000000        -3.683427085836140E-009
   100.035000000000        -3.697395891729457E-009
   100.225000000000        -3.711375205491436E-009
   100.415000000000        -3.725357149098453E-009
   100.605000000000        -3.739334576878793E-009
   100.795000000000        -3.753300350935872E-009
   100.985000000000        -3.767249620805966E-009
   101.175000000000        -3.781177248636091E-009
   101.365000000000        -3.795081043276633E-009
   101.555000000000        -3.808958110879648E-009
   101.745000000000        -3.822807528354138E-009
   101.935000000000        -3.836627717462103E-009
   102.125000000000        -3.850418380434814E-009
   102.315000000000        -3.864185991285266E-009
   102.505000000000        -3.877944740728445E-009
   102.695000000000        -3.891704490645046E-009
   102.885000000000        -3.905474908084696E-009
   103.075000000000        -3.919265600458331E-009
   103.265000000000        -3.933086294068377E-009
   103.455000000000        -3.946944204791142E-009
   103.645000000000        -3.960844075524225E-009
   103.835000000000        -3.974788129185179E-009
   104.025000000000        -3.988778974015823E-009
   104.215000000000        -4.002817751414971E-009
   104.405000000000        -4.016905159656985E-009
   104.595000000000        -4.031041425845553E-009
   104.785000000000        -4.045226658511130E-009
   104.975000000000        -4.059460603356389E-009
   105.165000000000        -4.073742183224126E-009
   105.355000000000        -4.088069737838163E-009
   105.545000000000        -4.102441450335525E-009
   105.735000000000        -4.116855530762731E-009
   105.925000000000        -4.131310150747916E-009
   106.115000000000        -4.145803554804584E-009
   106.305000000000        -4.160334405580996E-009
   106.495000000000        -4.174900906881284E-009
   106.685000000000        -4.189502072482991E-009
   106.875000000000        -4.204135941666796E-009
   107.065000000000        -4.218801610311795E-009
   107.255000000000        -4.233497629147796E-009
   107.445000000000        -4.248222662654525E-009
   107.635000000000        -4.262975611518486E-009
   107.825000000000        -4.277755663463411E-009
   108.015000000000        -4.292562334669715E-009
   108.205000000000        -4.307395431943069E-009
   108.395000000000        -4.322254912630220E-009
   108.585000000000        -4.337140735488232E-009
   108.775000000000        -4.352052801431052E-009
   108.965000000000        -4.366990887195499E-009
   109.155000000000        -4.381954401614450E-009
   109.345000000000        -4.396943082171089E-009
   109.535000000000        -4.411955844542134E-009
   109.725000000000        -4.426992130244224E-009
   109.915000000000        -4.442051195386257E-009
   110.105000000000        -4.457132403928583E-009