  -1.42500000000000         0.000000000000000E+000
  -1.23500000000000         1.167433290084898E-020
  -1.04500000000000         5.861316718667530E-020
 -0.855000000000000         2.911274476343228E-019
 -0.665000000000000         1.380374630437315E-018
 -0.475000000000000         5.896309173619922E-018
 -0.285000000000000         2.114517554726063E-017
 -9.499999999999975E-002    6.565715864959532E-017
  9.500000000000020E-002    1.779984091278697E-016
  0.285000000000000         4.288199663405003E-016
  0.475000000000000         9.281475496658629E-016
  0.665000000000000         1.835623915510833E-015
  0.855000000000000         3.359140904481716E-015
   1.04500000000000         5.722712884944927E-015
   1.23500000000000         9.161455204265117E-015
   1.42500000000000         1.392009607089772E-014
   1.61500000000000         2.018794753954937E-014
   1.80500000000000         2.818330791041887E-014
   1.99500000000000         3.817637321424505E-014
   2.18500000000000         5.042344426628967E-014
   2.37500000000000         6.518888307155655E-014
   2.56500000000000         8.272953078843390E-014
   2.75500000000000         1.032672405278097E-013
   2.94500000000000         1.269877822462946E-013
   3.13500000000000         1.540370828300587E-013
   3.32500000000000         1.845007323211694E-013
   3.51500000000000         2.184054554947608E-013
   3.70500000000000         2.557987340754710E-013
   3.89500000000000         2.966937841840102E-013
   4.08500000000000         3.411007925019802E-013
   4.27500000000000         3.890243487619560E-013
   4.46500000000000         4.404649121865171E-013
   4.65500000000000         4.954128404565603E-013
   4.84500000000000         5.538373724404425E-013
   5.03500000000000         6.156747705772125E-013
   5.22500000000000         6.808340216246051E-013
   5.41500000000000         7.492930458567995E-013
   5.60500000000000         8.209507074005748E-013
   5.79500000000000         8.957283070646294E-013
   5.98500000000000         9.735801929032638E-013
   6.17500000000000         1.054517306637926E-012
   6.36500000000000         1.138615887484810E-012
   6.55500000000000         1.226027970757788E-012
   6.74500000000000         1.316928311112884E-012
   6.93500000000000         1.411491502737232E-012
   7.12500000000000         1.509925800536677E-012
   7.31500000000000         1.612506821303840E-012
   7.50500000000000         1.719449385323361E-012
   7.69500000000000         1.830899122150253E-012
   7.88500000000000         1.946923366642965E-012
   8.07500000000000         2.067517134215533E-012
   8.26500000000000         2.192604475731738E-012
   8.45500000000000         2.322087677770547E-012
   8.64500000000000         2.455845799734738E-012
   8.83500000000000         2.593698730404056E-012
   9.02500000000000         2.735436205349774E-012
   9.21500000000000         2.880644137493572E-012
   9.40500000000000         3.028691624290451E-012
   9.59500000000000         3.178926827099298E-012
   9.78500000000000         3.330817361295943E-012
   9.97500000000000         3.484038046808480E-012
   10.1650000000000         3.638294068972454E-012
   10.3550000000000         3.793374166168437E-012
   10.5450000000000         3.949171448558483E-012
   10.7350000000000         4.105610020672500E-012
   10.9250000000000         4.262678852277712E-012
   11.1150000000000         4.420372550188987E-012
   11.3050000000000         4.578682663560876E-012
   11.4950000000000         4.737602629800547E-012
   11.6850000000000         4.897154754043872E-012
   11.8750000000000         5.057426168236509E-012
   12.0650000000000         5.218572759786700E-012
   12.2550000000000         5.380793093920124E-012
   12.4450000000000         5.544300577237458E-012
   12.6350000000000         5.709360756677810E-012
   12.8250000000000         5.876036230802243E-012
   13.0150000000000         6.044541874566672E-012
   13.2050000000000         6.215043621738609E-012
   13.3950000000000         6.387676251211312E-012
   13.5850000000000         6.562574845576209E-012
   13.7750000000000         6.739827624157532E-012
   13.9650000000000         6.919473975396109E-012
   14.1550000000000         7.101531521367703E-012
   14.3450000000000         7.286002062611823E-012
   14.5350000000000         7.472900112784958E-012
   14.7250000000000         7.662233630534050E-012
   14.9150000000000         7.854034204825116E-012
   15.1050000000000         8.048401380155236E-012
   15.2950000000000         8.245590175224628E-012
   15.4850000000000         8.445973529464792E-012
   15.6750000000000         8.649972190379454E-012
   15.8650000000000         8.857921681454861E-012
   16.0550000000000         9.070128105975161E-012
   16.2450000000000         9.286882721770195E-012
   16.4350000000000         9.508384664265099E-012
   16.6250000000000         9.734747171849970E-012
   16.8150000000000         9.966023667092612E-012
   17.0050000000000         1.020222086768145E-011
   17.1950000000000         1.044333610882456E-011
   17.3850000000000         1.068932733362970E-011
   17.5750000000000         1.094017708166098E-011
   17.7650000000000         1.119579088522044E-011
   17.9550000000000         1.145613107061757E-011
   18.1450000000000         1.172113862164816E-011
   18.3350000000000         1.199076396158512E-011
   18.5250000000000         1.226495369514317E-011
   18.7150000000000         1.254363435342442E-011
   18.9050000000000         1.282663725977261E-011
   19.0950000000000         1.311370105884931E-011
   19.2850000000000         1.340450128671604E-011
   19.4750000000000         1.369870270369325E-011
   19.6650000000000         1.399601215359441E-011
   19.8550000000000         1.429619022098873E-011
   20.0450000000000         1.459901993382556E-011
   20.2350000000000         1.490430472252854E-011
   20.4250000000000         1.521186155907935E-011
   20.6150000000000         1.552150552692244E-011
   20.8050000000000         1.583301915633040E-011
   20.9950000000000         1.614616675544393E-011
   21.1850000000000         1.646071195788763E-011
   21.3750000000000         1.677660227373577E-011
   21.5650000000000         1.709356634854590E-011
   21.7550000000000         1.741154779632082E-011
   21.9450000000000         1.773041398752110E-011
   22.1350000000000         1.804996891529671E-011
   22.3250000000000         1.836999703998580E-011
   22.5150000000000         1.869033261802766E-011
   22.7050000000000         1.901102586882850E-011
   22.8950000000000         1.933229737793280E-011
   23.0850000000000         1.965449206556872E-011
   23.2750000000000         1.997803011418769E-011
   23.4650000000000         2.030335013525189E-011
   23.6550000000000         2.063082709837873E-011
   23.8450000000000         2.096092705329608E-011
   24.0350000000000         2.129416912881829E-011
   24.2250000000000         2.163101533110302E-011
   24.4150000000000         2.197188619470105E-011
   24.6050000000000         2.231714186380457E-011
   24.7950000000000         2.266711729490518E-011
   24.9850000000000         2.302195805844380E-011
   25.1750000000000         2.338175018809446E-011
   25.3650000000000         2.374648354413902E-011
   25.5550000000000         2.411608290901550E-011
   25.7450000000000         2.449044377709911E-011
   25.9350000000000         2.486937021673341E-011
   26.1250000000000         2.525264646972314E-011
   26.3150000000000         2.564011281133668E-011
   26.5050000000000         2.603164467249387E-011
   26.6950000000000         2.642711171580985E-011
   26.8850000000000         2.682640461875681E-011
   27.0750000000000         2.722942037857207E-011
   27.2650000000000         2.763605372909076E-011
   27.4550000000000         2.804623295367750E-011
   27.6450000000000         2.845995941694134E-011
   27.8350000000000         2.887728452982661E-011
   28.0250000000000         2.929822904185114E-011
   28.2150000000000         2.972289611971117E-011
   28.4050000000000         3.015137513780146E-011
   28.5950000000000         3.058377188452559E-011
   28.7850000000000         3.102016779563654E-011
   28.9750000000000         3.146053379742349E-011
   29.1650000000000         3.190468424352468E-011
   29.3550000000000         3.235227408859471E-011
   29.5450000000000         3.280281060987769E-011
   29.7350000000000         3.325575740747269E-011
   29.9250000000000         3.371058425119096E-011
   30.1150000000000         3.416675309384979E-011
   30.3050000000000         3.462378778839417E-011
   30.4950000000000         3.508130630949602E-011
   30.6850000000000         3.553907695134205E-011
   30.8750000000000         3.599692944767310E-011
   31.0650000000000         3.645464256708522E-011
   31.2550000000000         3.691190258309526E-011
   31.4450000000000         3.736862508878300E-011
   31.6350000000000         3.782490182959576E-011
   31.8250000000000         3.828091675661560E-011
   32.0150000000000         3.873691708258007E-011
   32.2050000000000         3.919315428061027E-011
   32.3950000000000         3.964987792862222E-011
   32.5850000000000         4.010733472933684E-011
   32.7750000000000         4.056578991731903E-011
   32.9650000000000         4.102543547678678E-011
   33.1550000000000         4.148642867909301E-011
   33.3450000000000         4.194883943082466E-011
   33.5350000000000         4.241278052360820E-011
   33.7250000000000         4.287842422042503E-011
   33.9150000000000         4.334603551737941E-011
   34.1050000000000         4.381598649211792E-011
   34.2950000000000         4.428868650867403E-011
   34.4850000000000         4.476448742863904E-011
   34.6750000000000         4.524360642666512E-011
   34.8650000000000         4.572625497422734E-011
   35.0550000000000         4.621262607485730E-011
   35.2450000000000         4.670289195644029E-011
   35.4350000000000         4.719722649648773E-011
   35.6250000000000         4.769575875762114E-011
   35.8150000000000         4.819854903552609E-011
   36.0050000000000         4.870559788662210E-011
   36.1950000000000         4.921686104848516E-011
   36.3850000000000         4.973226311644846E-011
   36.5750000000000         5.025178216567022E-011
   36.7650000000000         5.077535172272827E-011
   36.9550000000000         5.130295359495993E-011
   37.1450000000000         5.183451546763638E-011
   37.3350000000000         5.236994798773654E-011
   37.5250000000000         5.290915920711618E-011
   37.7150000000000         5.345206598991087E-011
   37.9050000000000         5.399858712768485E-011
   38.0950000000000         5.454864763046321E-011
   38.2850000000000         5.510219544929460E-011
   38.4750000000000         5.565916171139764E-011
   38.6650000000000         5.621946385426041E-011
   38.8550000000000         5.678303237424844E-011
   39.0450000000000         5.734983040029916E-011
   39.2350000000000         5.791981678844545E-011
   39.4250000000000         5.849292832381192E-011
   39.6150000000000         5.906908318501085E-011
   39.8050000000000         5.964816336462645E-011
   39.9950000000000         6.023002339356844E-011
   40.1850000000000         6.081453769888029E-011
   40.3750000000000         6.140155693698386E-011
   40.5650000000000         6.199104070997648E-011
   40.7550000000000         6.258290970196381E-011
   40.9450000000000         6.317701980213278E-011
   41.1350000000000         6.377306751052995E-011
   41.3250000000000         6.437054296743108E-011
   41.5150000000000         6.496888435518770E-011
   41.7050000000000         6.556771355065528E-011
   41.8950000000000         6.616683809929320E-011
   42.0850000000000         6.676619190873010E-011
   42.2750000000000         6.736582646972832E-011
   42.4650000000000         6.796587303272850E-011
   42.6550000000000         6.856653531372819E-011
   42.8450000000000         6.916806646906954E-011
   43.0350000000000         6.977076252629318E-011
   43.2250000000000         7.037492015437996E-011
   43.4150000000000         7.098075941325901E-011
   43.6050000000000         7.158859932468057E-011
   43.7950000000000         7.219852414428386E-011
   43.9850000000000         7.281066932142942E-011
   44.1750000000000         7.342515232410916E-011
   44.3650000000000         7.404215162030004E-011
   44.5550000000000         7.466194368518528E-011
   44.7450000000000         7.528490254517803E-011
   44.9350000000000         7.591138131538038E-011
   45.1250000000000         7.654153120866665E-011
   45.3150000000000         7.717530330877348E-011
   45.5050000000000         7.781258335558147E-011
   45.6950000000000         7.845322693538230E-011
   45.8850000000000         7.909712076996911E-011
   46.0750000000000         7.974418010370269E-011
   46.2650000000000         8.039436446088072E-011
   46.4550000000000         8.104765244550885E-011
   46.6450000000000         8.170403605842774E-011
   46.8350000000000         8.236351445898192E-011
   47.0250000000000         8.302613590596729E-011
   47.2150000000000         8.369202207137571E-011
   47.4050000000000         8.436132772332084E-011
   47.5950000000000         8.503415209432233E-011
   47.7850000000000         8.571053069072707E-011
   47.9750000000000         8.639043964400492E-011
   48.1650000000000         8.707378876497174E-011
   48.3550000000000         8.776044888290353E-011
   48.5450000000000         8.845024890693242E-011
   48.7350000000000         8.914303828323191E-011
   48.9250000000000         8.983866965496831E-011
   49.1150000000000         9.053703874957477E-011
   49.3050000000000         9.123805383711346E-011
   49.4950000000000         9.194153088704711E-011
   49.6850000000000         9.264721606551555E-011
   49.8750000000000         9.335497695281844E-011
   50.0650000000000         9.406483246306887E-011
   50.2550000000000         9.477690655996737E-011
   50.4450000000000         9.549139773432279E-011
   50.6350000000000         9.620852058333030E-011
   50.8250000000000         9.692840115359511E-011
   51.0150000000000         9.765125118417149E-011
   51.2050000000000         9.837711533093406E-011
   51.3950000000000         9.910607699013326E-011
   51.5850000000000         9.983825320217770E-011
   51.7750000000000         1.005737521628573E-010
   51.9650000000000         1.013124759866958E-010
   52.1550000000000         1.020540632381584E-010
   52.3450000000000         1.027980071077669E-010
   52.5350000000000         1.035437968658935E-010
   52.7250000000000         1.042908776406698E-010
   52.9150000000000         1.050387439899363E-010
   53.1050000000000         1.057870192255271E-010
   53.2950000000000         1.065353385333747E-010
   53.4850000000000         1.072834010942371E-010
   53.6750000000000         1.080309330335672E-010
   53.8650000000000         1.087777326437088E-010
   54.0550000000000         1.095238666068304E-010
   54.2450000000000         1.102696049647620E-010
   54.4350000000000         1.110153844755420E-010
   54.6250000000000         1.117617781624618E-010
   54.8150000000000         1.125094080970105E-010
   55.0050000000000         1.132589223675853E-010
   55.1950000000000         1.140109388504201E-010
   55.3850000000000         1.147659037639625E-010
   55.5750000000000         1.155243102307820E-010
   55.7650000000000         1.162864384781067E-010
   55.9550000000000         1.170525523714556E-010
   56.1450000000000         1.178229421757112E-010
   56.3350000000000         1.185979268926192E-010
   56.5250000000000         1.193776730790129E-010
   56.7150000000000         1.201621261846061E-010
   56.9050000000000         1.209510918039601E-010
   57.0950000000000         1.217443026693798E-010
   57.2850000000000         1.225414699768157E-010
   57.4750000000000         1.233423708674465E-010
   57.6650000000000         1.241467720640771E-010
   57.8550000000000         1.249544201833171E-010
   58.0450000000000         1.257651274416142E-010
   58.2350000000000         1.265787996348335E-010
   58.4250000000000         1.273953491463677E-010
   58.6150000000000         1.282146846931688E-010
   58.8050000000000         1.290367470360934E-010
   58.9950000000000         1.298615029706365E-010
   59.1850000000000         1.306889359463891E-010
   59.3750000000000         1.315190532342965E-010
   59.5650000000000         1.323518720639140E-010
   59.7550000000000         1.331874103645848E-010
   59.9450000000000         1.340256818473847E-010
   60.1350000000000         1.348666941778939E-010
   60.3250000000000         1.357104486510492E-010
   60.5150000000000         1.365569273458360E-010
   60.7050000000000         1.374060538314306E-010
   60.8950000000000         1.382576862773124E-010
   61.0850000000000         1.391116110888926E-010
   61.2750000000000         1.399676106542743E-010
   61.4650000000000         1.408254734097931E-010
   61.6550000000000         1.416849937916424E-010
   61.8450000000000         1.425459822975405E-010
   62.0350000000000         1.434082479367759E-010
   62.2250000000000         1.442716078555773E-010
   62.4150000000000         1.451359138311000E-010
   62.6050000000000         1.460010082926496E-010
   62.7950000000000         1.468667484276268E-010
   62.9850000000000         1.477330910611216E-010
   63.1750000000000         1.485999708792659E-010
   63.3650000000000         1.494673005490526E-010
   63.5550000000000         1.503349584393605E-010
   63.7450000000000         1.512027732033262E-010
   63.9350000000000         1.520705552554844E-010
   64.1250000000000         1.529381639481872E-010
   64.3150000000000         1.538055143602513E-010
   64.5050000000000         1.546725891806786E-010
   64.6950000000000         1.555394337979299E-010
   64.8850000000000         1.564061907182380E-010
   65.0750000000000         1.572730055308922E-010
   65.2650000000000         1.581400932098077E-010
   65.4550000000000         1.590077647677136E-010
   65.6450000000000         1.598763525326915E-010
   65.8350000000000         1.607462225462340E-010
   66.0250000000000         1.616177806701451E-010
   66.2150000000000         1.624913913513498E-010
   66.4050000000000         1.633673764695479E-010
   66.5950000000000         1.642460445612961E-010
   66.7850000000000         1.651274961583177E-010
   66.9750000000000         1.660119474016687E-010
   67.1650000000000         1.668994936809889E-010
   67.3550000000000         1.677902507451462E-010
   67.5450000000000         1.686843592403483E-010
   67.7350000000000         1.695819960758105E-010
   67.9250000000000         1.704833534784890E-010
   68.1150000000000         1.713885792112478E-010
   68.3050000000000         1.722977196645896E-010
   68.4950000000000         1.732107128225303E-010
   68.6850000000000         1.741274046533149E-010
   68.8750000000000         1.750476015702286E-010
   69.0650000000000         1.759711007302548E-010
   69.2550000000000         1.768977081263931E-010
   69.4450000000000         1.778272465733619E-010
   69.6350000000000         1.787595753627755E-010
   69.8250000000000         1.796946041992685E-010
   70.0150000000000         1.806322849701760E-010
   70.2050000000000         1.815725943515491E-010
   70.3950000000000         1.825155404505541E-010
   70.5850000000000         1.834611614902969E-010
   70.7750000000000         1.844095106001945E-010
   70.9650000000000         1.853606417639081E-010
   71.1550000000000         1.863145801152034E-010
   71.3450000000000         1.872712953086463E-010
   71.5350000000000         1.882307303824998E-010
   71.7250000000000         1.891927505681319E-010
   71.9150000000000         1.901572924918243E-010
   72.1050000000000         1.911241998852269E-010
   72.2950000000000         1.920934121271463E-010
   72.4850000000000         1.930648557866863E-010
   72.6750000000000         1.940384699299029E-010
   72.8650000000000         1.950142123070003E-010
   73.0550000000000         1.959919710894733E-010
   73.2450000000000         1.969715924823009E-010
   73.4350000000000         1.979528453775587E-010
   73.6250000000000         1.989353543067469E-010
   73.8150000000000         1.999186460827449E-010
   74.0050000000000         2.009023100225400E-010
   74.1950000000000         2.018860423151521E-010
   74.3850000000000         2.028697026612763E-010
   74.5750000000000         2.038532565512194E-010
   74.7650000000000         2.048367567980562E-010
   74.9550000000000         2.058203172626165E-010
   75.1450000000000         2.068040824182716E-010
   75.3350000000000         2.077882198254141E-010
   75.5250000000000         2.087727797116653E-010
   75.7150000000000         2.097579913250517E-010
   75.9050000000000         2.107439138831337E-010
   76.0950000000000         2.117306772600002E-010
   76.2850000000000         2.127184999423788E-010
   76.4750000000000         2.137077702198673E-010
   76.6650000000000         2.146989989553360E-010
   76.8550000000000         2.156926313779061E-010
   77.0450000000000         2.166889107539557E-010
   77.2350000000000         2.176880535054193E-010
   77.4250000000000         2.186903616936479E-010
   77.6150000000000         2.196962164105218E-010
   77.8050000000000         2.207059464608800E-010
   77.9950000000000         2.217196766816376E-010
   78.1850000000000         2.227373856913743E-010
   78.3750000000000         2.237589662591017E-010
   78.5650000000000         2.247842640169306E-010
   78.7550000000000         2.258131444292869E-010
   78.9450000000000         2.268454688232846E-010
   79.1350000000000         2.278812069443839E-010
   79.3250000000000         2.289202567388358E-010
   79.5150000000000         2.299625470185608E-010
   79.7050000000000         2.310079343091969E-010
   79.8950000000000         2.320561700562775E-010
   80.0850000000000         2.331068737893862E-010
   80.2750000000000         2.341596176929370E-010
   80.4650000000000         2.352140680856858E-010
   80.6550000000000         2.362700105209811E-010
   80.8450000000000         2.373273203058408E-010
   81.0350000000000         2.383859195282910E-010
   81.2250000000000         2.394457530564750E-010
   81.4150000000000         2.405067856638258E-010
   81.6050000000000         2.415689691688920E-010
   81.7950000000000         2.426322540736520E-010
   81.9850000000000         2.436965983451828E-010
   82.1750000000000         2.447619410440702E-010
   82.3650000000000         2.458282310973486E-010
   82.5550000000000         2.468953987945335E-010
   82.7450000000000         2.479633191603825E-010
   82.9350000000000         2.490318287574915E-010
   83.1250000000000         2.501007853474294E-010
   83.3150000000000         2.511700890326381E-010
   83.5050000000000         2.522396739608988E-010
   83.6950000000000         2.533095010336301E-010
   83.8850000000000         2.543795683239401E-010
   84.0750000000000         2.554498865361568E-010
   84.2650000000000         2.565204707527487E-010
   84.4550000000000         2.575913350089258E-010
   84.6450000000000         2.586624805637619E-010
   84.8350000000000         2.597339029233210E-010
   85.0250000000000         2.608055958089837E-010
   85.2150000000000         2.618775809757805E-010
   85.4050000000000         2.629499383491318E-010
   85.5950000000000         2.640228377608937E-010
   85.7850000000000         2.650965396590890E-010
   85.9750000000000         2.661713083270449E-010
   86.1650000000000         2.672473604836664E-010
   86.3550000000000         2.683248777554977E-010
   86.5450000000000         2.694040225071876E-010
   86.7350000000000         2.704849690067415E-010
   86.9250000000000         2.715679119363139E-010
   87.1150000000000         2.726530555857214E-010
   87.3050000000000         2.737405996795104E-010
   87.4950000000000         2.748307484061386E-010
   87.6850000000000         2.759237106161948E-010
   87.8750000000000         2.770196776621082E-010
   88.0650000000000         2.781187696883289E-010
   88.2550000000000         2.792211028994011E-010
   88.4450000000000         2.803267482641028E-010
   88.6350000000000         2.814357913089531E-010
   88.8250000000000         2.825483206872879E-010
   89.0150000000000         2.836644617590130E-010
   89.2050000000000         2.847843382250865E-010
   89.3950000000000         2.859080012158710E-010
   89.5850000000000         2.870353117595850E-010
   89.7750000000000         2.881659404859025E-010
   89.9650000000000         2.892995396303954E-010
   90.1550000000000         2.904357589091726E-010
   90.3450000000000         2.915742202578186E-010
   90.5350000000000         2.927145840360818E-010
   90.7250000000000         2.938565334927872E-010
   90.9150000000000         2.949998034025942E-010
   91.1050000000000         2.961441947832839E-010
   91.2950000000000         2.972895824278479E-010
   91.4850000000000         2.984359071245053E-010
   91.6750000000000         2.995831663502664E-010
   91.8650000000000         3.007314148499539E-010
   92.0550000000000         3.018807479942189E-010
   92.2450000000000         3.030312698358003E-010
   92.4350000000000         3.041830518304101E-010
   92.6250000000000         3.053361394481910E-010
   92.8150000000000         3.064905730875686E-010
   93.0050000000000         3.076463708979709E-010
   93.1950000000000         3.088035489601147E-010
   93.3850000000000         3.099621081741899E-010
   93.5750000000000         3.111219767196066E-010
   93.7650000000000         3.122829334580622E-010
   93.9550000000000         3.134446633704410E-010
   94.1450000000000         3.146068462964958E-010
   94.3350000000000         3.157691635465600E-010
   94.5250000000000         3.169313030977149E-010
   94.7150000000000         3.180929832660428E-010
   94.9050000000000         3.192539766729360E-010
   95.0950000000000         3.204140962909904E-010
   95.2850000000000         3.215732476320357E-010
   95.4750000000000         3.227313676415547E-010
   95.6650000000000         3.238884419460990E-010
   95.8550000000000         3.250445156724333E-010
   96.0450000000000         3.261996195096569E-010
   96.2350000000000         3.273538275308489E-010
   96.4250000000000         3.285072729021128E-010
   96.6150000000000         3.296601812398870E-010
   96.8050000000000         3.308129061560593E-010
   96.9950000000000         3.319659166791889E-010
   97.1850000000000         3.331196998503974E-010
   97.3750000000000         3.342746749964802E-010
   97.5650000000000         3.354310839125096E-010
   97.7550000000000         3.365892020821092E-010
   97.9450000000000         3.377492853821426E-010
   98.1350000000000         3.389115900642055E-010
   98.3250000000000         3.400763714718012E-010
   98.5150000000000         3.412438317147818E-010
   98.7050000000000         3.424140960210484E-010
   98.8950000000000         3.435872124176848E-010
   99.0850000000000         3.447631646724374E-010
   99.2750000000000         3.459418815742990E-010
   99.4650000000000         3.471232169821291E-010
   99.6550000000000         3.483068930568683E-010
   99.8450000000000         3.494926046982879E-010
   100.035000000000         3.506800230088609E-010
   100.225000000000         3.518688220113794E-010
   100.415000000000         3.530587045385122E-010
   100.605000000000         3.542494223135214E-010
   100.795000000000         3.554407722057697E-010
   100.985000000000         3.566326239136322E-010
   101.175000000000         3.578248789820321E-010
   101.365000000000         3.590175205973522E-010
   101.555000000000         3.602105081210909E-010
   101.745000000000         3.614038362625646E-010
   101.935000000000         3.625974764850878E-010
   102.125000000000         3.637913777750923E-010
   102.315000000000         3.649855043753099E-010
   102.505000000000         3.661798736494305E-010
   102.695000000000         3.673745326120225E-010
   102.885000000000         3.685695270127019E-010
   103.075000000000         3.697648962358036E-010
   103.265000000000         3.709606821650718E-010
   103.455000000000         3.721569156847820E-010
   103.645000000000         3.733536184528209E-010
   103.835000000000         3.745507904186392E-010
   104.025000000000         3.757484176674718E-010
   104.215000000000         3.769464616555489E-010
   104.405000000000         3.781448961555602E-010
   104.595000000000         3.793436825495493E-010
   104.785000000000         3.805427640790919E-010
   104.975000000000         3.817420400977384E-010
   105.165000000000         3.829413369405402E-010
   105.355000000000         3.841404371238025E-010
   105.545000000000         3.853391365409151E-010
   105.735000000000         3.865372610476184E-010
   105.925000000000         3.877346773972444E-010
   106.115000000000         3.889313139815093E-010
   106.305000000000         3.901271558508194E-010
   106.495000000000         3.913222175833839E-010
   106.685000000000         3.925165408797377E-010
   106.875000000000         3.937101985320036E-010
   107.065000000000         3.949032400835514E-010
   107.255000000000         3.960957577196314E-010
   107.445000000000         3.972878658560366E-010
   107.635000000000         3.984797035623010E-010
   107.825000000000         3.996714261856679E-010
   108.015000000000         4.008631867790070E-010
   108.205000000000         4.020551263172762E-010
   108.395000000000         4.032474083496511E-010
   108.585000000000         4.044403056800723E-010
   108.775000000000         4.056342116292575E-010
   108.965000000000         4.068295019439792E-010
   109.155000000000         4.080265603218986E-010
   109.345000000000         4.092254818719858E-010
   109.535000000000         4.104265145589535E-010
   109.725000000000         4.116297029229337E-010
   109.915000000000         4.128350961264661E-010
   110.105000000000         4.140427379969223E-010