  -1.42500000000000         3.781217645105566E-020
  -1.23500000000000         7.036195411667922E-019
  -1.04500000000000         4.908217169991831E-018
 -0.855000000000000         2.918453000540869E-017
 -0.665000000000000         1.302604546016190E-016
 -0.475000000000000         4.969743727785004E-016
 -0.285000000000000         1.527176903847756E-015
 -9.499999999999975E-002    4.612959675522704E-015
  9.500000000000020E-002    1.093542356186928E-014
  0.285000000000000         2.185154683369342E-014
  0.475000000000000         4.177810781099978E-014
  0.665000000000000         7.751231335805109E-014
  0.855000000000000         1.369438188391222E-013
   1.04500000000000         2.105567506984434E-013
   1.23500000000000         2.846096712412895E-013
   1.42500000000000         3.841020493421653E-013
   1.61500000000000         5.211916402099841E-013
   1.80500000000000         6.730596888981839E-013
   1.99500000000000         8.361415228872403E-013
   2.18500000000000         1.016247080044874E-012
   2.37500000000000         1.211887711279338E-012
   2.56500000000000         1.418620516388961E-012
   2.75500000000000         1.641425489624412E-012
   2.94500000000000         1.883135871067877E-012
   3.13500000000000         2.126711560384857E-012
   3.32500000000000         2.368317445129411E-012
   3.51500000000000         2.613637365204474E-012
   3.70500000000000         2.859706734848340E-012
   3.89500000000000         3.105674144120156E-012
   4.08500000000000         3.351787573280483E-012
   4.27500000000000         3.597526982692681E-012
   4.46500000000000         3.840111098507794E-012
   4.65500000000000         4.076059190003813E-012
   4.84500000000000         4.305201591826338E-012
   5.03500000000000         4.530389591372556E-012
   5.22500000000000         4.752539322341372E-012
   5.41500000000000         4.966626812788369E-012
   5.60500000000000         5.169186439818536E-012
   5.79500000000000         5.357291708779848E-012
   5.98500000000000         5.523718019792291E-012
   6.17500000000000         5.662591890860450E-012
   6.36500000000000         5.780884094246436E-012
   6.55500000000000         5.885081597128280E-012
   6.74500000000000         5.976583367452963E-012
   6.93500000000000         6.063457563362257E-012
   7.12500000000000         6.143797626979061E-012
   7.31500000000000         6.220401940910244E-012
   7.50500000000000         6.297866189887389E-012
   7.69500000000000         6.376676140565356E-012
   7.88500000000000         6.460084435285443E-012
   8.07500000000000         6.549975579931254E-012
   8.26500000000000         6.655055161353533E-012
   8.45500000000000         6.774180821698108E-012
   8.64500000000000         6.899879297110648E-012
   8.83500000000000         7.032688564602693E-012
   9.02500000000000         7.176328372084120E-012
   9.21500000000000         7.323442639934683E-012
   9.40500000000000         7.461170120304010E-012
   9.59500000000000         7.592266921137085E-012
   9.78500000000000         7.732077965992325E-012
   9.97500000000000         7.885432074658914E-012
   10.1650000000000         8.050150136310689E-012
   10.3550000000000         8.213600945361961E-012
   10.5450000000000         8.367577695836734E-012
   10.7350000000000         8.522315969909653E-012
   10.9250000000000         8.680905155723469E-012
   11.1150000000000         8.842595707061356E-012
   11.3050000000000         9.006669135046794E-012
   11.4950000000000         9.173089808315971E-012
   11.6850000000000         9.343236831605104E-012
   11.8750000000000         9.520298993179571E-012
   12.0650000000000         9.706973914972602E-012
   12.2550000000000         9.902241504509486E-012
   12.4450000000000         1.010138790154596E-011
   12.6350000000000         1.029987544825913E-011
   12.8250000000000         1.049287927377885E-011
   13.0150000000000         1.067905208235112E-011
   13.2050000000000         1.085700517103069E-011
   13.3950000000000         1.100872693664405E-011
   13.5850000000000         1.114066297505348E-011
   13.7750000000000         1.126371799514396E-011
   13.9650000000000         1.136369932500255E-011
   14.1550000000000         1.145270137246786E-011
   14.3450000000000         1.154051091658459E-011
   14.5350000000000         1.162405763970841E-011
   14.7250000000000         1.170753841316444E-011
   14.9150000000000         1.179927984913082E-011
   15.1050000000000         1.190357668035582E-011
   15.2950000000000         1.202267679844560E-011
   15.4850000000000         1.215742414471540E-011
   15.6750000000000         1.230689471637483E-011
   15.8650000000000         1.247108900997339E-011
   16.0550000000000         1.264544266891288E-011
   16.2450000000000         1.282552671690694E-011
   16.4350000000000         1.300722330380432E-011
   16.6250000000000         1.319780674501109E-011
   16.8150000000000         1.339654856831360E-011
   17.0050000000000         1.359717713448309E-011
   17.1950000000000         1.380170087144511E-011
   17.3850000000000         1.401003101156663E-011
   17.5750000000000         1.422252611636354E-011
   17.7650000000000         1.444059274443076E-011
   17.9550000000000         1.466509722558907E-011
   18.1450000000000         1.489413823565853E-011
   18.3350000000000         1.512471555585009E-011
   18.5250000000000         1.535392103635956E-011
   18.7150000000000         1.557849152767311E-011
   18.9050000000000         1.579575624442754E-011
   19.0950000000000         1.600578890148597E-011
   19.2850000000000         1.620374374301445E-011
   19.4750000000000         1.637975497225936E-011
   19.6650000000000         1.652321631926456E-011
   19.8550000000000         1.665023297109976E-011
   20.0450000000000         1.676750279682830E-011
   20.2350000000000         1.686492666778942E-011
   20.4250000000000         1.694886216815569E-011
   20.6150000000000         1.701942435895339E-011
   20.8050000000000         1.707683801946966E-011
   20.9950000000000         1.712520426386878E-011
   21.1850000000000         1.717414537434505E-011
   21.3750000000000         1.722173986023918E-011
   21.5650000000000         1.726863881236784E-011
   21.7550000000000         1.731937477227201E-011
   21.9450000000000         1.736960704960594E-011
   22.1350000000000         1.742303992115879E-011
   22.3250000000000         1.748981275873835E-011
   22.5150000000000         1.756352905895232E-011
   22.7050000000000         1.764784527907691E-011
   22.8950000000000         1.774874528898363E-011
   23.0850000000000         1.785346749766050E-011
   23.2750000000000         1.797161932164224E-011
   23.4650000000000         1.811271606257006E-011
   23.6550000000000         1.828231410220596E-011
   23.8450000000000         1.848061286537518E-011
   24.0350000000000         1.869443506252714E-011
   24.2250000000000         1.892095928332931E-011
   24.4150000000000         1.915852051338058E-011
   24.6050000000000         1.939540995635952E-011
   24.7950000000000         1.963679339997414E-011
   24.9850000000000         1.988641304198542E-011
   25.1750000000000         2.013755870246917E-011
   25.3650000000000         2.038656966782916E-011
   25.5550000000000         2.062997389508919E-011
   25.7450000000000         2.086805483401379E-011
   25.9350000000000         2.110448662332152E-011
   26.1250000000000         2.134262726616288E-011
   26.3150000000000         2.158294935408392E-011
   26.5050000000000         2.182161952118452E-011
   26.6950000000000         2.205167203160330E-011
   26.8850000000000         2.227418177176442E-011
   27.0750000000000         2.248901888631710E-011
   27.2650000000000         2.269333984000922E-011
   27.4550000000000         2.288937131571116E-011
   27.6450000000000         2.307750399619447E-011
   27.8350000000000         2.325961544932350E-011
   28.0250000000000         2.342433114370730E-011
   28.2150000000000         2.357548274505311E-011
   28.4050000000000         2.372002192652769E-011
   28.5950000000000         2.384014728508306E-011
   28.7850000000000         2.393221346170240E-011
   28.9750000000000         2.400016002171787E-011
   29.1650000000000         2.404220965483716E-011
   29.3550000000000         2.405919465588706E-011
   29.5450000000000         2.406906232437615E-011
   29.7350000000000         2.407393958947467E-011
   29.9250000000000         2.405903230897981E-011
   30.1150000000000         2.402640232448660E-011
   30.3050000000000         2.398449416084928E-011
   30.4950000000000         2.394891109142050E-011
   30.6850000000000         2.392716818698035E-011
   30.8750000000000         2.391811540024197E-011
   31.0650000000000         2.392703430920209E-011
   31.2550000000000         2.395977695853284E-011
   31.4450000000000         2.402996999607009E-011
   31.6350000000000         2.413769568085173E-011
   31.8250000000000         2.427974225891001E-011
   32.0150000000000         2.446145529210634E-011
   32.2050000000000         2.467612916948613E-011
   32.3950000000000         2.490584066347965E-011
   32.5850000000000         2.515726142102472E-011
   32.7750000000000         2.543531499632421E-011
   32.9650000000000         2.572276914745936E-011
   33.1550000000000         2.600982658096019E-011
   33.3450000000000         2.629461209330856E-011
   33.5350000000000         2.657817477046029E-011
   33.7250000000000         2.685362883142286E-011
   33.9150000000000         2.711016592528656E-011
   34.1050000000000         2.734730634064405E-011
   34.2950000000000         2.757001680797610E-011
   34.4850000000000         2.778227475816499E-011
   34.6750000000000         2.798338472653466E-011
   34.8650000000000         2.816362332327866E-011
   35.0550000000000         2.833198174946675E-011
   35.2450000000000         2.849962585791778E-011
   35.4350000000000         2.866085934818519E-011
   35.6250000000000         2.881396166659237E-011
   35.8150000000000         2.895921842709317E-011
   36.0050000000000         2.910146472156403E-011
   36.1950000000000         2.924292753279807E-011
   36.3850000000000         2.937998162316739E-011
   36.5750000000000         2.950956326321282E-011
   36.7650000000000         2.963151405013749E-011
   36.9550000000000         2.974697223898604E-011
   37.1450000000000         2.985418988426588E-011
   37.3350000000000         2.995435914062400E-011
   37.5250000000000         3.004930578015763E-011
   37.7150000000000         3.013970167095346E-011
   37.9050000000000         3.022513630921698E-011
   38.0950000000000         3.030529397574666E-011
   38.2850000000000         3.038814198749783E-011
   38.4750000000000         3.047882952753571E-011
   38.6650000000000         3.060128279854639E-011
   38.8550000000000         3.075569456332484E-011
   39.0450000000000         3.092414730974717E-011
   39.2350000000000         3.110860582026113E-011
   39.4250000000000         3.132193652669220E-011
   39.6150000000000         3.155836973628471E-011
   39.8050000000000         3.178984833863729E-011
   39.9950000000000         3.203334229272370E-011
   40.1850000000000         3.229249486312138E-011
   40.3750000000000         3.255028848761926E-011
   40.5650000000000         3.280484968347393E-011
   40.7550000000000         3.305471135313829E-011
   40.9450000000000         3.329066089298759E-011
   41.1350000000000         3.350643473922875E-011
   41.3250000000000         3.371700467670210E-011
   41.5150000000000         3.392083310792825E-011
   41.7050000000000         3.410863267819180E-011
   41.8950000000000         3.429752013040397E-011
   42.0850000000000         3.449150164533630E-011
   42.2750000000000         3.468098647898196E-011
   42.4650000000000         3.486682951770424E-011
   42.6550000000000         3.505235894773626E-011
   42.8450000000000         3.523476692189457E-011
   43.0350000000000         3.540420497460807E-011
   43.2250000000000         3.556253857824973E-011
   43.4150000000000         3.571185868919267E-011
   43.6050000000000         3.585396928196705E-011
   43.7950000000000         3.598683897651727E-011
   43.9850000000000         3.609985813425530E-011
   44.1750000000000         3.619367077673171E-011
   44.3650000000000         3.627291292505519E-011
   44.5550000000000         3.635611084602621E-011
   44.7450000000000         3.645334284501110E-011
   44.9350000000000         3.656956020044024E-011
   45.1250000000000         3.671544714466813E-011
   45.3150000000000         3.688998147520982E-011
   45.5050000000000         3.708992016879291E-011
   45.6950000000000         3.730677810774460E-011
   45.8850000000000         3.752919696610753E-011
   46.0750000000000         3.776338579008494E-011
   46.2650000000000         3.800953848039750E-011
   46.4550000000000         3.825463693556516E-011
   46.6450000000000         3.849693867225093E-011
   46.8350000000000         3.873275173198182E-011
   47.0250000000000         3.896177602617413E-011
   47.2150000000000         3.917060443930269E-011
   47.4050000000000         3.935002126989348E-011
   47.5950000000000         3.950996150440060E-011
   47.7850000000000         3.964955582546703E-011
   47.9750000000000         3.978022977402266E-011
   48.1650000000000         3.990124490282368E-011
   48.3550000000000         3.999954637081996E-011
   48.5450000000000         4.007963742337764E-011
   48.7350000000000         4.014491611218847E-011
   48.9250000000000         4.020777784620507E-011
   49.1150000000000         4.027343855143862E-011
   49.3050000000000         4.033730618549887E-011
   49.4950000000000         4.039545983339125E-011
   49.6850000000000         4.045434330235344E-011
   49.8750000000000         4.053211127882022E-011
   50.0650000000000         4.061658890850503E-011
   50.2550000000000         4.069798588289989E-011
   50.4450000000000         4.078563971034794E-011
   50.6350000000000         4.087846917969535E-011
   50.8250000000000         4.098218265351334E-011
   51.0150000000000         4.109141633147878E-011
   51.2050000000000         4.119992791463786E-011
   51.3950000000000         4.132417725142796E-011
   51.5850000000000         4.146058798132010E-011
   51.7750000000000         4.158785412533204E-011
   51.9650000000000         4.170959130452170E-011
   52.1550000000000         4.184161677134991E-011
   52.3450000000000         4.199120741008946E-011
   52.5350000000000         4.215822407525660E-011
   52.7250000000000         4.235388795281938E-011
   52.9150000000000         4.258277108285374E-011
   53.1050000000000         4.283189955784038E-011
   53.2950000000000         4.308932504380861E-011
   53.4850000000000         4.335693691106399E-011
   53.6750000000000         4.363627516250109E-011
   53.8650000000000         4.391950812774464E-011
   54.0550000000000         4.420924437218550E-011
   54.2450000000000         4.450021048768023E-011
   54.4350000000000         4.478375134362755E-011
   54.6250000000000         4.505754785653707E-011
   54.8150000000000         4.532714114342095E-011
   55.0050000000000         4.560569686326579E-011
   55.1950000000000         4.589480040462360E-011
   55.3850000000000         4.618447138767987E-011
   55.5750000000000         4.647108893321039E-011
   55.7650000000000         4.675374545891804E-011
   55.9550000000000         4.702630252514529E-011
   56.1450000000000         4.728499227990880E-011
   56.3350000000000         4.753546491664918E-011
   56.5250000000000         4.777243417637335E-011
   56.7150000000000         4.797556078346846E-011
   56.9050000000000         4.813631379310728E-011
   57.0950000000000         4.827741626674057E-011
   57.2850000000000         4.839690048617744E-011
   57.4750000000000         4.849038796327872E-011
   57.6650000000000         4.857087207332868E-011
   57.8550000000000         4.862492567603039E-011
   58.0450000000000         4.866201812136272E-011
   58.2350000000000         4.869298638763481E-011
   58.4250000000000         4.871529415743162E-011
   58.6150000000000         4.873750420697928E-011
   58.8050000000000         4.876146495857534E-011
   58.9950000000000         4.878376646420474E-011
   59.1850000000000         4.880475718150207E-011
   59.3750000000000         4.882830563845917E-011
   59.5650000000000         4.886026791369788E-011
   59.7550000000000         4.890461955728075E-011
   59.9450000000000         4.895960522893943E-011
   60.1350000000000         4.901896629141094E-011
   60.3250000000000         4.907765278054987E-011
   60.5150000000000         4.913750125275209E-011
   60.7050000000000         4.920526566136702E-011
   60.8950000000000         4.929529041634558E-011
   61.0850000000000         4.938870546938476E-011
   61.2750000000000         4.948595283528586E-011
   61.4650000000000         4.959611385570475E-011
   61.6550000000000         4.971775528932826E-011
   61.8450000000000         4.986776512548519E-011
   62.0350000000000         5.004180163520886E-011
   62.2250000000000         5.023299189886020E-011
   62.4150000000000         5.043259805614881E-011
   62.6050000000000         5.064284459358028E-011
   62.7950000000000         5.086225278727579E-011
   62.9850000000000         5.109399038187463E-011
   63.1750000000000         5.134865077340745E-011
   63.3650000000000         5.162170965822081E-011
   63.5550000000000         5.190004545289457E-011
   63.7450000000000         5.218056005703791E-011
   63.9350000000000         5.245819203491325E-011
   64.1250000000000         5.271996115126355E-011
   64.3150000000000         5.296347427779975E-011
   64.5050000000000         5.318733794757802E-011
   64.6950000000000         5.339552712738386E-011
   64.8850000000000         5.358434657337490E-011
   65.0750000000000         5.374099368807738E-011
   65.2650000000000         5.387213813057457E-011
   65.4550000000000         5.399513640907474E-011
   65.6450000000000         5.411455099545615E-011
   65.8350000000000         5.422357006907923E-011
   66.0250000000000         5.431353439124681E-011
   66.2150000000000         5.439308337827513E-011
   66.4050000000000         5.447208432168516E-011
   66.5950000000000         5.454800424178628E-011
   66.7850000000000         5.462149206829203E-011
   66.9750000000000         5.469082735936415E-011
   67.1650000000000         5.475524407852769E-011
   67.3550000000000         5.481802907016455E-011
   67.5450000000000         5.488627737971871E-011
   67.7350000000000         5.497003928222779E-011
   67.9250000000000         5.507645176801685E-011
   68.1150000000000         5.519748354885626E-011
   68.3050000000000         5.532051855454644E-011
   68.4950000000000         5.544966060871692E-011
   68.6850000000000         5.559321884065572E-011
   68.8750000000000         5.575396250722057E-011
   69.0650000000000         5.593222838430029E-011
   69.2550000000000         5.612382961938789E-011
   69.4450000000000         5.632240489629841E-011
   69.6350000000000         5.652012542909045E-011
   69.8250000000000         5.671715323568631E-011
   70.0150000000000         5.692193509007204E-011
   70.2050000000000         5.713757500363440E-011
   70.3950000000000         5.735943882646815E-011
   70.5850000000000         5.758297432091803E-011
   70.7750000000000         5.780908696411098E-011
   70.9650000000000         5.803747275315196E-011
   71.1550000000000         5.827181873241357E-011
   71.3450000000000         5.851049178322140E-011
   71.5350000000000         5.875323639262358E-011
   71.7250000000000         5.899762713185352E-011
   71.9150000000000         5.923452805524493E-011
   72.1050000000000         5.946693018277887E-011
   72.2950000000000         5.969958113118841E-011
   72.4850000000000         5.993587525395704E-011
   72.6750000000000         6.017809017468369E-011
   72.8650000000000         6.042539209393119E-011
   73.0550000000000         6.067614108195517E-011
   73.2450000000000         6.093197927314027E-011
   73.4350000000000         6.119568358112759E-011
   73.6250000000000         6.146571053059822E-011
   73.8150000000000         6.174103644612328E-011
   74.0050000000000         6.201502741259357E-011
   74.1950000000000         6.228060373668845E-011
   74.3850000000000         6.253195848264026E-011
   74.5750000000000         6.276327723333016E-011
   74.7650000000000         6.297798389150294E-011
   74.9550000000000         6.316946334999437E-011
   75.1450000000000         6.333435900070406E-011
   75.3350000000000         6.348287304354790E-011
   75.5250000000000         6.361678393608158E-011
   75.7150000000000         6.374088729396160E-011
   75.9050000000000         6.386408442448140E-011
   76.0950000000000         6.398732562443279E-011
   76.2850000000000         6.411056480808448E-011
   76.4750000000000         6.423181196036501E-011
   76.6650000000000         6.434767251840404E-011
   76.8550000000000         6.445884117021698E-011
   77.0450000000000         6.456714484474509E-011
   77.2350000000000         6.466776060030365E-011
   77.4250000000000         6.475541674789902E-011
   77.6150000000000         6.483265353423987E-011
   77.8050000000000         6.490606474170208E-011
   77.9950000000000         6.498069040858307E-011
   78.1850000000000         6.506149788829523E-011
   78.3750000000000         6.514893435672143E-011
   78.5650000000000         6.523331790594653E-011
   78.7550000000000         6.530876422192588E-011
   78.9450000000000         6.538087500118127E-011
   79.1350000000000         6.544866175113699E-011
   79.3250000000000         6.551021244122612E-011
   79.5150000000000         6.557061433975689E-011
   79.7050000000000         6.563103785990231E-011
   79.8950000000000         6.569674797617933E-011
   80.0850000000000         6.576681424180378E-011
   80.2750000000000         6.584087540254430E-011
   80.4650000000000         6.593906334934826E-011
   80.6550000000000         6.606656618637468E-011
   80.8450000000000         6.622014324592645E-011
   81.0350000000000         6.640385589126989E-011
   81.2250000000000         6.660866725227691E-011
   81.4150000000000         6.681453708417629E-011
   81.6050000000000         6.703493892232857E-011
   81.7950000000000         6.728459300488951E-011
   81.9850000000000         6.756124675971701E-011
   82.1750000000000         6.784785517727018E-011
   82.3650000000000         6.813167966220835E-011
   82.5550000000000         6.841579017378020E-011
   82.7450000000000         6.869294586320068E-011
   82.9350000000000         6.895951598134526E-011
   83.1250000000000         6.921911644027764E-011
   83.3150000000000         6.948575064911441E-011
   83.5050000000000         6.976387230962088E-011
   83.6950000000000         7.004569654808432E-011
   83.8850000000000         7.032555481656067E-011
   84.0750000000000         7.060725313654124E-011
   84.2650000000000         7.089030461177612E-011
   84.4550000000000         7.117083409005409E-011
   84.6450000000000         7.144252167797078E-011
   84.8350000000000         7.169975038745820E-011
   85.0250000000000         7.194142587804977E-011
   85.2150000000000         7.217188414272749E-011
   85.4050000000000         7.239290647680039E-011
   85.5950000000000         7.260703760440041E-011
   85.7850000000000         7.282165459640376E-011
   85.9750000000000         7.302171934950546E-011
   86.1650000000000         7.319817495655155E-011
   86.3550000000000         7.337237849940022E-011
   86.5450000000000         7.354630411913150E-011
   86.7350000000000         7.370632021520441E-011
   86.9250000000000         7.384068644766296E-011
   87.1150000000000         7.394601019920224E-011
   87.3050000000000         7.402676342200878E-011
   87.4950000000000         7.408548604123621E-011
   87.6850000000000         7.412707591260454E-011
   87.8750000000000         7.416301963242884E-011
   88.0650000000000         7.420390818159559E-011
   88.2550000000000         7.425269063243879E-011
   88.4450000000000         7.431041802041432E-011
   88.6350000000000         7.437665010583043E-011
   88.8250000000000         7.445287369584580E-011
   89.0150000000000         7.454260710170994E-011
   89.2050000000000         7.464465155119774E-011
   89.3950000000000         7.475927004384701E-011
   89.5850000000000         7.487809794147323E-011
   89.7750000000000         7.501361370711001E-011
   89.9650000000000         7.516117874446843E-011
   90.1550000000000         7.530725310088922E-011
   90.3450000000000         7.547055705604846E-011
   90.5350000000000         7.565114978462710E-011
   90.7250000000000         7.584578848784780E-011
   90.9150000000000         7.605588669869480E-011
   91.1050000000000         7.629027761744918E-011
   91.2950000000000         7.655397548335363E-011
   91.4850000000000         7.684311941768007E-011
   91.6750000000000         7.714655539706474E-011
   91.8650000000000         7.745228502677195E-011
   92.0550000000000         7.775319722876978E-011
   92.2450000000000         7.805056400873378E-011
   92.4350000000000         7.834997420624690E-011
   92.6250000000000         7.864809921436322E-011
   92.8150000000000         7.893893375534209E-011
   93.0050000000000         7.921384499181840E-011
   93.1950000000000         7.945975268082950E-011
   93.3850000000000         7.968206729251832E-011
   93.5750000000000         7.991110876605717E-011
   93.7650000000000         8.015223774294236E-011
   93.9550000000000         8.038402742198546E-011
   94.1450000000000         8.060437543311311E-011
   94.3350000000000         8.080868524688906E-011
   94.5250000000000         8.097942565703614E-011
   94.7150000000000         8.112322705133136E-011
   94.9050000000000         8.125504251483612E-011
   95.0950000000000         8.137852464322686E-011
   95.2850000000000         8.149075587290058E-011
   95.4750000000000         8.159167513682883E-011
   95.6650000000000         8.167710640721192E-011
   95.8550000000000         8.175268278089527E-011
   96.0450000000000         8.183228994758681E-011
   96.2350000000000         8.191067237644069E-011
   96.4250000000000         8.197992517884011E-011
   96.6150000000000         8.203572683668685E-011
   96.8050000000000         8.207902483522341E-011
   96.9950000000000         8.211431130376702E-011
   97.1850000000000         8.214821891613085E-011
   97.3750000000000         8.218249870870803E-011
   97.5650000000000         8.221530910948256E-011
   97.7550000000000         8.224581124310424E-011
   97.9450000000000         8.227846321945547E-011
   98.1350000000000         8.232293151397917E-011
   98.3250000000000         8.239258381609294E-011
   98.5150000000000         8.250119492006598E-011
   98.7050000000000         8.264695151133940E-011
   98.8950000000000         8.282032726298372E-011
   99.0850000000000         8.301909167456477E-011
   99.2750000000000         8.325018454221403E-011
   99.4650000000000         8.351005056674722E-011
   99.6550000000000         8.378946673946922E-011
   99.8450000000000         8.407726473790457E-011
   100.035000000000         8.435678475552397E-011
   100.225000000000         8.462218545032259E-011
   100.415000000000         8.487034984696938E-011
   100.605000000000         8.509802639987968E-011
   100.795000000000         8.531535760936949E-011
   100.985000000000         8.552534047925883E-011
   101.175000000000         8.571839132960257E-011
   101.365000000000         8.589667318020491E-011
   101.555000000000         8.607072456872583E-011
   101.745000000000         8.624980858362261E-011
   101.935000000000         8.644344392874462E-011
   102.125000000000         8.664675488974741E-011
   102.315000000000         8.686325487618887E-011
   102.505000000000         8.709460959535381E-011
   102.695000000000         8.732250939777560E-011
   102.885000000000         8.754469470373237E-011
   103.075000000000         8.777052586879574E-011
   103.265000000000         8.799948668596207E-011
   103.455000000000         8.821019858403892E-011
   103.645000000000         8.838483353355956E-011
   103.835000000000         8.853981612781914E-011
   104.025000000000         8.869748243479146E-011
   104.215000000000         8.886967782135459E-011
   104.405000000000         8.905917379291240E-011
   104.595000000000         8.925293632717456E-011
   104.785000000000         8.944160723288662E-011
   104.975000000000         8.962301303396653E-011
   105.165000000000         8.979376841442172E-011
   105.355000000000         8.995495631031093E-011
   105.545000000000         9.010850394354942E-011
   105.735000000000         9.024796520216676E-011
   105.925000000000         9.037121031487559E-011
   106.115000000000         9.048126144786210E-011
   106.305000000000         9.058327481094342E-011
   106.495000000000         9.068333348549609E-011
   106.685000000000         9.078451032001554E-011
   106.875000000000         9.088749329482299E-011
   107.065000000000         9.099230479370726E-011
   107.255000000000         9.109954142051514E-011
   107.445000000000         9.121239024816325E-011
   107.635000000000         9.133414997428305E-011
   107.825000000000         9.146402336373042E-011
   108.015000000000         9.159595314242083E-011
   108.205000000000         9.172208180275352E-011
   108.395000000000         9.183999734711095E-011
   108.585000000000         9.195753034532983E-011
   108.775000000000         9.208703830797205E-011
   108.965000000000         9.223855113509217E-011
   109.155000000000         9.241216231330111E-011
   109.345000000000         9.260051178197303E-011
   109.535000000000         9.280021245061800E-011
   109.725000000000         9.301163542948875E-011
   109.915000000000         9.323750871563590E-011
   110.105000000000         9.347760085877367E-011