  -1.42500000000000         3.980229100111123E-019
  -1.23500000000000         1.241829561228993E-018
  -1.04500000000000         6.530637563280532E-018
 -0.855000000000000         3.004858828438128E-017
 -0.665000000000000         1.193240854549049E-016
 -0.475000000000000         3.783338426861405E-016
 -0.285000000000000         1.060785015801843E-015
 -9.499999999999975E-002    2.530763127812635E-015
  9.500000000000020E-002    5.290815567975875E-015
  0.285000000000000         9.552088232552152E-015
  0.475000000000000         1.521691953055855E-014
  0.665000000000000         2.251070841182910E-014
  0.855000000000000         3.083063241360454E-014
   1.04500000000000         3.973198593161708E-014
   1.23500000000000         4.817929691374892E-014
   1.42500000000000         5.459511848408149E-014
   1.61500000000000         6.272319529529026E-014
   1.80500000000000         7.258663258858495E-014
   1.99500000000000         8.170320179199663E-014
   2.18500000000000         9.098826906059602E-014
   2.37500000000000         9.993477588758944E-014
   2.56500000000000         1.075222343840873E-013
   2.75500000000000         1.137492968267549E-013
   2.94500000000000         1.185119402064649E-013
   3.13500000000000         1.211674386364404E-013
   3.32500000000000         1.219474163917122E-013
   3.51500000000000         1.232492398967075E-013
   3.70500000000000         1.235231084563057E-013
   3.89500000000000         1.236441934287696E-013
   4.08500000000000         1.236019430588854E-013
   4.27500000000000         1.233896856190128E-013
   4.46500000000000         1.226828671466804E-013
   4.65500000000000         1.210848918578064E-013
   4.84500000000000         1.182392919811024E-013
   5.03500000000000         1.145900763590812E-013
   5.22500000000000         1.137645184575079E-013
   5.41500000000000         1.101467320358118E-013
   5.60500000000000         1.076615425508510E-013
   5.79500000000000         1.065804633687486E-013
   5.98500000000000         1.075622698796729E-013
   6.17500000000000         1.108636863267115E-013
   6.36500000000000         1.167460019573062E-013
   6.55500000000000         1.232163641982899E-013
   6.74500000000000         1.295462229093113E-013
   6.93500000000000         1.369788829178432E-013
   7.12500000000000         1.465874587438474E-013
   7.31500000000000         1.536408731513124E-013
   7.50500000000000         1.581442765357092E-013
   7.69500000000000         1.598684170659045E-013
   7.88500000000000         1.592888467619194E-013
   8.07500000000000         1.561861058872801E-013
   8.26500000000000         1.523416396082480E-013
   8.45500000000000         1.476207728230535E-013
   8.64500000000000         1.407095051649767E-013
   8.83500000000000         1.327934282368002E-013
   9.02500000000000         1.174892405008628E-013
   9.21500000000000         9.467374627430450E-014
   9.40500000000000         7.244080540006094E-014
   9.59500000000000         5.469955248073246E-014
   9.78500000000000         4.373340133239838E-014
   9.97500000000000         3.399806351531286E-014
   10.1650000000000         2.708849833217250E-014
   10.3550000000000         2.330977425657956E-014
   10.5450000000000         2.089447964731599E-014
   10.7350000000000         2.053136032731377E-014
   10.9250000000000         2.036062829026425E-014
   11.1150000000000         2.013479293209985E-014
   11.3050000000000         2.013727829673478E-014
   11.4950000000000         2.156820576390382E-014
   11.6850000000000         2.570870243598176E-014
   11.8750000000000         3.228418295521154E-014
   12.0650000000000         4.007090209838432E-014
   12.2550000000000         4.803378350382951E-014
   12.4450000000000         5.758627582272401E-014
   12.6350000000000         5.977541637557379E-014
   12.8250000000000         6.716252485460223E-014
   13.0150000000000         7.269808734939352E-014
   13.2050000000000         7.702199113868769E-014
   13.3950000000000         8.101907266770942E-014
   13.5850000000000         8.333619010877827E-014
   13.7750000000000         8.416373057445239E-014
   13.9650000000000         8.448341143888713E-014
   14.1550000000000         8.461228597001432E-014
   14.3450000000000         8.513078463309515E-014
   14.5350000000000         8.560891540148340E-014
   14.7250000000000         8.710908619120218E-014
   14.9150000000000         9.148670713511995E-014
   15.1050000000000         1.018211629147131E-013
   15.2950000000000         1.156640739905423E-013
   15.4850000000000         1.305334691419144E-013
   15.6750000000000         1.420327903056773E-013
   15.8650000000000         1.522099762311855E-013
   16.0550000000000         1.616422542204748E-013
   16.2450000000000         1.676856849523738E-013
   16.4350000000000         1.706647988266703E-013
   16.6250000000000         1.716428213993630E-013
   16.8150000000000         1.709305228993429E-013
   17.0050000000000         1.705203171376496E-013
   17.1950000000000         1.683087787229869E-013
   17.3850000000000         1.673852848292520E-013
   17.5750000000000         1.631080565233209E-013
   17.7650000000000         1.614780044779894E-013
   17.9550000000000         1.589357462150698E-013
   18.1450000000000         1.567964183933741E-013
   18.3350000000000         1.545591273954081E-013
   18.5250000000000         1.515649831057007E-013
   18.7150000000000         1.448705806705271E-013
   18.9050000000000         1.348886742934899E-013
   19.0950000000000         1.232807705840408E-013
   19.2850000000000         1.121971204054938E-013
   19.4750000000000         1.031782963093948E-013
   19.6650000000000         9.612453521771503E-014
   19.8550000000000         8.962129457839113E-014
   20.0450000000000         8.342952611858566E-014
   20.2350000000000         7.735070745717121E-014
   20.4250000000000         7.090197163372599E-014
   20.6150000000000         6.310309298268745E-014
   20.8050000000000         5.452992869237057E-014
   20.9950000000000         4.591648184924307E-014
   21.1850000000000         4.380941178891726E-014
   21.3750000000000         3.388029529765048E-014
   21.5650000000000         3.166374963979496E-014
   21.7550000000000         2.675113532133243E-014
   21.9450000000000         1.986100551366453E-014
   22.1350000000000         1.276267376819202E-014
   22.3250000000000         8.444185042172012E-015
   22.5150000000000         1.196665410691153E-014
   22.7050000000000         2.095569092161133E-014
   22.8950000000000         3.368764446126691E-014
   23.0850000000000         4.856333817921503E-014
   23.2750000000000         6.428267656015670E-014
   23.4650000000000         7.800418716308284E-014
   23.6550000000000         9.458506012052512E-014
   23.8450000000000         1.128003291268580E-013
   24.0350000000000         1.286280985399416E-013
   24.2250000000000         1.427930033572304E-013
   24.4150000000000         1.547976205383648E-013
   24.6050000000000         1.654942770350321E-013
   24.7950000000000         1.700657302725714E-013
   24.9850000000000         1.724023968378437E-013
   25.1750000000000         1.717427278425889E-013
   25.3650000000000         1.687894264858547E-013
   25.5550000000000         1.650102040427764E-013
   25.7450000000000         1.577637559695377E-013
   25.9350000000000         1.499260763584251E-013
   26.1250000000000         1.443088626084009E-013
   26.3150000000000         1.398411671033538E-013
   26.5050000000000         1.351423612829551E-013
   26.6950000000000         1.311750558619254E-013
   26.8850000000000         1.275543976547786E-013
   27.0750000000000         1.241715795651474E-013
   27.2650000000000         1.224630111037725E-013
   27.4550000000000         1.233795654078835E-013
   27.6450000000000         1.258972504462205E-013
   27.8350000000000         1.266495946552841E-013
   28.0250000000000         1.306953584334204E-013
   28.2150000000000         1.338834419055352E-013
   28.4050000000000         1.370746294954432E-013
   28.5950000000000         1.387686374793935E-013
   28.7850000000000         1.361848132943076E-013
   28.9750000000000         1.275929925886566E-013
   29.1650000000000         1.143607787761833E-013
   29.3550000000000         9.700388040666958E-014
   29.5450000000000         7.848921296608980E-014
   29.7350000000000         6.009359811321321E-014
   29.9250000000000         4.146194970173507E-014
   30.1150000000000         2.536967132655753E-014
   30.3050000000000         1.223822905163133E-014
   30.4950000000000         5.781843418877920E-015
   30.6850000000000        -2.179790617090794E-016
   30.8750000000000        -7.774657859596743E-015
   31.0650000000000        -1.800806713753509E-014
   31.2550000000000        -2.002808271258563E-014
   31.4450000000000        -1.675254027097414E-014
   31.6350000000000        -9.770136698056085E-015
   31.8250000000000        -1.490370156788979E-015
   32.0150000000000         7.512199891058466E-015
   32.2050000000000         1.681260650996439E-014
   32.3950000000000         2.601996049595794E-014
   32.5850000000000         3.478016167678445E-014
   32.7750000000000         4.245982752426621E-014
   32.9650000000000         4.848953388353782E-014
   33.1550000000000         5.140257578098397E-014
   33.3450000000000         5.584727569425594E-014
   33.5350000000000         6.250008154958816E-014
   33.7250000000000         7.245622146320111E-014
   33.9150000000000         8.572967062852192E-014
   34.1050000000000         9.946590153103944E-014
   34.2950000000000         1.105925580676628E-013
   34.4850000000000         1.171052987791982E-013
   34.6750000000000         1.234167224267725E-013
   34.8650000000000         1.292914073716075E-013
   35.0550000000000         1.346928014514298E-013
   35.2450000000000         1.403047824513278E-013
   35.4350000000000         1.445468867070125E-013
   35.6250000000000         1.465886472567929E-013
   35.8150000000000         1.466318031353596E-013
   36.0050000000000         1.451212324110974E-013
   36.1950000000000         1.423418817660820E-013
   36.3850000000000         1.414379762888585E-013
   36.5750000000000         1.386039642322695E-013
   36.7650000000000         1.373409777371511E-013
   36.9550000000000         1.339724321045406E-013
   37.1450000000000         1.301424232991112E-013
   37.3350000000000         1.266961721320161E-013
   37.5250000000000         1.241054442365127E-013
   37.7150000000000         1.220670204097294E-013
   37.9050000000000         1.206278839163715E-013
   38.0950000000000         1.201305082445610E-013
   38.2850000000000         1.190937709874175E-013
   38.4750000000000         1.174117971293365E-013
   38.6650000000000         1.157982982193956E-013
   38.8550000000000         1.137235532281041E-013
   39.0450000000000         1.113840604891854E-013
   39.2350000000000         1.080038615211712E-013
   39.4250000000000         1.032515113381837E-013
   39.6150000000000         9.758767304698291E-014
   39.8050000000000         9.133495921776970E-014
   39.9950000000000         8.671469448440244E-014
   40.1850000000000         8.111158267189654E-014
   40.3750000000000         8.009885299518963E-014
   40.5650000000000         7.777376210773702E-014
   40.7550000000000         7.300271928473286E-014
   40.9450000000000         6.146836119779009E-014
   41.1350000000000         4.303196260820564E-014
   41.3250000000000         2.397214136664268E-014
   41.5150000000000         1.168594080173068E-014
   41.7050000000000         5.723630739390208E-015
   41.8950000000000         3.769795394401292E-015
   42.0850000000000         5.632284577949539E-015
   42.2750000000000         1.028997083430985E-014
   42.4650000000000         1.798256745993724E-014
   42.6550000000000         2.697734509262823E-014
   42.8450000000000         3.819384566419794E-014
   43.0350000000000         4.957184914477760E-014
   43.2250000000000         5.848380038557112E-014
   43.4150000000000         7.096294797859137E-014
   43.6050000000000         7.501853174149946E-014
   43.7950000000000         8.040999653683705E-014
   43.9850000000000         8.500731034444975E-014
   44.1750000000000         9.141739088888519E-014
   44.3650000000000         1.007961442800320E-013
   44.5550000000000         1.125804138618838E-013
   44.7450000000000         1.221577585486758E-013
   44.9350000000000         1.244161246141294E-013
   45.1250000000000         1.214133346579627E-013
   45.3150000000000         1.167283412648012E-013
   45.5050000000000         1.124445161551368E-013
   45.6950000000000         1.098691897882988E-013
   45.8850000000000         1.088192412161498E-013
   46.0750000000000         1.092912088537457E-013
   46.2650000000000         1.099074756336672E-013
   46.4550000000000         1.103749451766228E-013
   46.6450000000000         1.103354781985098E-013
   46.8350000000000         1.113554887709832E-013
   47.0250000000000         1.142454038698744E-013
   47.2150000000000         1.175693093721042E-013
   47.4050000000000         1.186253334250824E-013
   47.5950000000000         1.182701894932428E-013
   47.7850000000000         1.163469041257821E-013
   47.9750000000000         1.133301637536119E-013
   48.1650000000000         1.098503214466809E-013
   48.3550000000000         1.053970488928820E-013
   48.5450000000000         1.012444715056949E-013
   48.7350000000000         9.691980938860858E-014
   48.9250000000000         9.334091564714634E-014
   49.1150000000000         8.963726225132568E-014
   49.3050000000000         8.190317275069577E-014
   49.4950000000000         7.218182521526201E-014
   49.6850000000000         6.750636424967673E-014
   49.8750000000000         6.902464770456057E-014
   50.0650000000000         7.383191252485666E-014
   50.2550000000000         8.170611901333774E-014
   50.4450000000000         8.993517154203795E-014
   50.6350000000000         9.525268985683589E-014
   50.8250000000000         1.032161119800336E-013
   51.0150000000000         1.049894463831013E-013
   51.2050000000000         1.073630247453516E-013
   51.3950000000000         1.104789650159140E-013
   51.5850000000000         1.125018849476781E-013
   51.7750000000000         1.062791044263055E-013
   51.9650000000000         9.099102602578710E-014
   52.1550000000000         7.255202579698009E-014
   52.3450000000000         5.450240875629144E-014
   52.5350000000000         3.507061856373952E-014
   52.7250000000000         1.818092223637369E-014
   52.9150000000000         4.958220792854413E-015
   53.1050000000000        -8.600498620890698E-015
   53.2950000000000        -1.914392193489130E-014
   53.4850000000000        -2.786901566695176E-014
   53.6750000000000        -3.237953912788645E-014
   53.8650000000000        -2.713267708702789E-014
   54.0550000000000        -1.494180839813783E-014
   54.2450000000000         2.892021700706141E-015
   54.4350000000000         2.473915525595327E-014
   54.6250000000000         4.661897574118642E-014
   54.8150000000000         6.853775833553303E-014
   55.0050000000000         8.845887388184244E-014
   55.1950000000000         1.023966067902568E-013
   55.3850000000000         1.174462506255121E-013
   55.5750000000000         1.257532702189575E-013
   55.7650000000000         1.341866984825833E-013
   55.9550000000000         1.445545158777578E-013
   56.1450000000000         1.561208092119728E-013
   56.3350000000000         1.621173458352833E-013
   56.5250000000000         1.610473095793173E-013
   56.7150000000000         1.556425224002175E-013
   56.9050000000000         1.470925618330129E-013
   57.0950000000000         1.373049309672855E-013
   57.2850000000000         1.285754512989547E-013
   57.4750000000000         1.190628575694423E-013
   57.6650000000000         1.088489755557649E-013
   57.8550000000000         1.014088958636486E-013
   58.0450000000000         9.761907810867341E-014
   58.2350000000000         9.468273814624188E-014
   58.4250000000000         9.198067198479406E-014
   58.6150000000000         9.043293702710557E-014
   58.8050000000000         8.950719606360571E-014
   58.9950000000000         8.871711156496207E-014
   59.1850000000000         8.816471731734444E-014
   59.3750000000000         8.752744423807186E-014
   59.5650000000000         8.680750518029246E-014
   59.7550000000000         8.624329161468944E-014
   59.9450000000000         8.598134363197811E-014
   60.1350000000000         8.602972798037704E-014
   60.3250000000000         8.559017557606992E-014
   60.5150000000000         8.289206624092699E-014
   60.7050000000000         7.792638712381422E-014
   60.8950000000000         7.033372771790501E-014
   61.0850000000000         6.270160284089412E-014
   61.2750000000000         5.505069995510565E-014
   61.4650000000000         4.772657079839313E-014
   61.6550000000000         4.143957259642691E-014
   61.8450000000000         3.574748127961582E-014
   62.0350000000000         3.113515211114704E-014
   62.2250000000000         2.769914108201343E-014
   62.4150000000000         2.382394333451111E-014
   62.6050000000000         2.007894614893486E-014
   62.7950000000000         1.888084116777485E-014
   62.9850000000000         1.576180962034893E-014
   63.1750000000000         1.076506732469301E-014
   63.3650000000000         3.755403973764734E-015
   63.5550000000000        -4.985235221998443E-015
   63.7450000000000        -1.321756758775621E-014
   63.9350000000000        -1.829611381725985E-014
   64.1250000000000        -1.977673452672564E-014
   64.3150000000000        -1.777691246757099E-014
   64.5050000000000        -1.297519184409952E-014
   64.6950000000000        -4.826837327755568E-015
   64.8850000000000         2.594411884711140E-015
   65.0750000000000         1.135901064789748E-014
   65.2650000000000         2.235191221479485E-014
   65.4550000000000         3.274157842595312E-014
   65.6450000000000         4.355978422279254E-014
   65.8350000000000         5.574557576376751E-014
   66.0250000000000         6.685187764244611E-014
   66.2150000000000         7.730359568954638E-014
   66.4050000000000         8.815062037477369E-014
   66.5950000000000         9.233090140061236E-014
   66.7850000000000         1.012217600519066E-013
   66.9750000000000         1.059594904592741E-013
   67.1650000000000         1.112537424337011E-013
   67.3550000000000         1.169354654842528E-013
   67.5450000000000         1.232775612348273E-013
   67.7350000000000         1.293506431606511E-013
   67.9250000000000         1.330815735647308E-013
   68.1150000000000         1.331301332874762E-013
   68.3050000000000         1.295399564279407E-013
   68.4950000000000         1.230779623156396E-013
   68.6850000000000         1.156113308406622E-013
   68.8750000000000         1.079149965185448E-013
   69.0650000000000         1.005587677951609E-013
   69.2550000000000         9.392841841327709E-014
   69.4450000000000         8.887888245407435E-014
   69.6350000000000         8.603104560038262E-014
   69.8250000000000         8.518211221549363E-014
   70.0150000000000         8.564815065963178E-014
   70.2050000000000         8.732802352374645E-014
   70.3950000000000         8.973231602061538E-014
   70.5850000000000         9.174905053338328E-014
   70.7750000000000         9.249227835033829E-014
   70.9650000000000         9.097641485649705E-014
   71.1550000000000         8.635769652907776E-014
   71.3450000000000         8.071035067315287E-014
   71.5350000000000         7.263331782957412E-014
   71.7250000000000         6.819833461066867E-014
   71.9150000000000         6.223455555422102E-014
   72.1050000000000         6.172274210517003E-014
   72.2950000000000         6.236942882777421E-014
   72.4850000000000         6.436850853347266E-014
   72.6750000000000         6.692388357658152E-014
   72.8650000000000         6.557121165097359E-014
   73.0550000000000         6.061160954331063E-014
   73.2450000000000         5.069548891993060E-014
   73.4350000000000         3.421629753485233E-014
   73.6250000000000         1.448139950956295E-014
   73.8150000000000        -1.977784866086512E-015
   74.0050000000000        -1.349146098079154E-014
   74.1950000000000        -1.846445117207469E-014
   74.3850000000000        -1.809285324382911E-014
   74.5750000000000        -1.389746345696827E-014
   74.7650000000000        -6.869086574898938E-015
   74.9550000000000         1.078611843706969E-015
   75.1450000000000         9.345137047814255E-015
   75.3350000000000         1.271710089874122E-014
   75.5250000000000         2.163587564531946E-014
   75.7150000000000         2.313124238865858E-014
   75.9050000000000         2.647840329384061E-014
   76.0950000000000         3.291851852441603E-014
   76.2850000000000         4.651844480284282E-014
   76.4750000000000         6.415221326605683E-014
   76.6650000000000         7.915179322310248E-014
   76.8550000000000         8.734672136651513E-014
   77.0450000000000         9.475909572207747E-014
   77.2350000000000         1.053001857338807E-013
   77.4250000000000         1.180974880948505E-013
   77.6150000000000         1.282801920517772E-013
   77.8050000000000         1.316298321746045E-013
   77.9950000000000         1.304240021984040E-013
   78.1850000000000         1.263551796751306E-013
   78.3750000000000         1.208350969543136E-013
   78.5650000000000         1.153164362967116E-013
   78.7550000000000         1.091614714684826E-013
   78.9450000000000         1.064234445979847E-013
   79.1350000000000         1.009317031663691E-013
   79.3250000000000         9.653007848621004E-014
   79.5150000000000         9.002350179523532E-014
   79.7050000000000         8.072106562972666E-014
   79.8950000000000         6.841779489807431E-014
   80.0850000000000         5.688863375890746E-014
   80.2750000000000         5.014984434747431E-014
   80.4650000000000         4.793686664165625E-014
   80.6550000000000         4.751403581865080E-014
   80.8450000000000         4.744212082619145E-014
   81.0350000000000         4.591897064048324E-014
   81.2250000000000         4.265707307177567E-014
   81.4150000000000         3.722265777767342E-014
   81.6050000000000         3.030564423714695E-014
   81.7950000000000         2.360594480353079E-014
   81.9850000000000         1.726663866352765E-014
   82.1750000000000         1.305412550455014E-014
   82.3650000000000         1.045699919766440E-014
   82.5550000000000         7.918245034358349E-015
   82.7450000000000         5.516994250393663E-015
   82.9350000000000         4.655221488226706E-015
   83.1250000000000         4.554543446344539E-015
   83.3150000000000         4.329689474652607E-015
   83.5050000000000         3.387935253977611E-015
   83.6950000000000         2.109458489518015E-015
   83.8850000000000         4.689140036325434E-016
   84.0750000000000        -1.235043003466318E-015
   84.2650000000000        -2.448455110164990E-015
   84.4550000000000        -2.956787368669355E-015
   84.6450000000000        -2.392912041099720E-015
   84.8350000000000        -8.809348674785906E-016
   85.0250000000000         2.220471466274587E-015
   85.2150000000000         7.390254854980010E-015
   85.4050000000000         1.509055314389480E-014
   85.5950000000000         2.451062580162111E-014
   85.7850000000000         3.269763635365285E-014
   85.9750000000000         3.869822068960008E-014
   86.1650000000000         4.344221401886865E-014
   86.3550000000000         4.780047866995118E-014
   86.5450000000000         5.302060485559468E-014
   86.7350000000000         5.929017446232214E-014
   86.9250000000000         6.612011944892496E-014
   87.1150000000000         7.311408790461438E-014
   87.3050000000000         8.035026660013345E-014
   87.4950000000000         8.781026128968590E-014
   87.6850000000000         9.472621226582982E-014
   87.8750000000000         9.952300039657054E-014
   88.0650000000000         1.044970293474550E-013
   88.2550000000000         1.082473189185248E-013
   88.4450000000000         1.128668452131915E-013
   88.6350000000000         1.175787706280359E-013
   88.8250000000000         1.230247682006114E-013
   89.0150000000000         1.270394679035259E-013
   89.2050000000000         1.263132119157031E-013
   89.3950000000000         1.173901909379828E-013
   89.5850000000000         1.012385568273742E-013
   89.7750000000000         8.524908213892372E-014
   89.9650000000000         6.956663324104046E-014
   90.1550000000000         5.456033566582001E-014
   90.3450000000000         4.314777795725865E-014
   90.5350000000000         3.479939104160183E-014
   90.7250000000000         2.998092858260420E-014
   90.9150000000000         2.817310528452419E-014
   91.1050000000000         2.841131352167626E-014
   91.2950000000000         2.930202725041384E-014
   91.4850000000000         2.989907747840500E-014
   91.6750000000000         3.021552339970742E-014
   91.8650000000000         3.024495467659267E-014
   92.0550000000000         2.991625661049610E-014
   92.2450000000000         2.895698124027260E-014
   92.4350000000000         2.865259307148071E-014
   92.6250000000000         3.015722464123295E-014
   92.8150000000000         3.270587763904052E-014
   93.0050000000000         3.604537101982288E-014
   93.1950000000000         3.830224742412422E-014
   93.3850000000000         3.652272640862149E-014
   93.5750000000000         2.761817435714056E-014
   93.7650000000000         1.423966217519509E-014
   93.9550000000000         3.114280826759996E-016
   94.1450000000000        -1.384797212891174E-014
   94.3350000000000        -2.656498424572816E-014
   94.5250000000000        -3.675494974323194E-014
   94.7150000000000        -4.385066889827919E-014
   94.9050000000000        -4.854688787787770E-014
   95.0950000000000        -4.954241079782743E-014
   95.2850000000000        -4.938837144818062E-014
   95.4750000000000        -4.864252952133614E-014
   95.6650000000000        -4.595769961972952E-014
   95.8550000000000        -4.531317886138943E-014
   96.0450000000000        -4.336974260195542E-014
   96.2350000000000        -3.921088865014142E-014
   96.4250000000000        -3.057279129409223E-014
   96.6150000000000        -1.661360663573749E-014
   96.8050000000000         1.469095537323133E-015
   96.9950000000000         1.959026711518432E-014
   97.1850000000000         3.478488347667943E-014
   97.3750000000000         4.307830459146717E-014
   97.5650000000000         5.147525816161489E-014
   97.7550000000000         5.840081313066678E-014
   97.9450000000000         6.469965787611498E-014
   98.1350000000000         7.082823994689060E-014
   98.3250000000000         7.569308220460153E-014
   98.5150000000000         7.924691912109567E-014
   98.7050000000000         8.153256872085795E-014
   98.8950000000000         8.270511958194709E-014
   99.0850000000000         8.263444205192816E-014
   99.2750000000000         7.959010011162562E-014
   99.4650000000000         7.099543603967353E-014
   99.6550000000000         6.030145828023314E-014
   99.8450000000000         4.722031623415763E-014
   100.035000000000         3.356152254168379E-014
   100.225000000000         2.028477609340694E-014
   100.415000000000         9.111429295926540E-015
   100.605000000000         5.089170582840829E-016
   100.795000000000        -4.099968424026721E-015
   100.985000000000        -6.552276705404595E-015
   101.175000000000        -5.218452881773818E-015
   101.365000000000        -4.440093097010725E-015
   101.555000000000        -2.927415125669297E-015
   101.745000000000        -3.147087116247411E-015
   101.935000000000        -4.981609478386025E-015
   102.125000000000        -6.726474681758079E-015
   102.315000000000        -6.557119858405499E-015
   102.505000000000        -5.739430222897566E-015
   102.695000000000        -4.220086793489132E-015
   102.885000000000        -2.134992966919885E-015
   103.075000000000         9.482292755599063E-018
   103.265000000000         1.924399870868188E-015
   103.455000000000         2.672047099204911E-015
   103.645000000000         2.157375885001750E-015
   103.835000000000         1.505011952100181E-016
   104.025000000000        -3.137053670545549E-015
   104.215000000000        -5.726859257032348E-015
   104.405000000000        -8.158758585814832E-015
   104.595000000000        -1.049920958849206E-014
   104.785000000000        -1.379091054330796E-014
   104.975000000000        -1.910546268159238E-014
   105.165000000000        -2.538511599104866E-014
   105.355000000000        -3.120067370173752E-014
   105.545000000000        -3.658616751015629E-014
   105.735000000000        -4.144807832385141E-014
   105.925000000000        -4.506597113503708E-014
   106.115000000000        -4.723769609218881E-014
   106.305000000000        -4.806154872971444E-014
   106.495000000000        -4.741556053293653E-014
   106.685000000000        -4.423500717582042E-014
   106.875000000000        -4.103174359882492E-014
   107.065000000000        -3.524592671595986E-014
   107.255000000000        -2.853996438159932E-014
   107.445000000000        -2.144204718753306E-014
   107.635000000000        -1.496284002734924E-014
   107.825000000000        -1.001999868815482E-014
   108.015000000000        -6.857409958758644E-015
   108.205000000000        -3.698793839604366E-015
   108.395000000000         3.411706844678086E-015
   108.585000000000         1.550180584629440E-014
   108.775000000000         2.788585665232200E-014
   108.965000000000         4.174377262923482E-014
   109.155000000000         4.767358728126217E-014
   109.345000000000         5.951947122696377E-014
   109.535000000000         6.526451317873162E-014
   109.725000000000         7.052088871936094E-014
   109.915000000000         7.429203721855424E-014
   110.105000000000         7.645663248909761E-014