  -1.42500000000000         3.781217645105864E-020
  -1.23500000000000        -2.215613481589014E-018
  -1.04500000000000        -2.531128135968005E-017
 -0.855000000000000        -1.299160630922953E-016
 -0.665000000000000        -5.116080258529282E-016
 -0.475000000000000        -1.744496942512854E-015
 -0.285000000000000        -5.321531390408045E-015
 -9.499999999999975E-002   -1.479294074565237E-014
  9.500000000000020E-002   -3.769055217560406E-014
  0.285000000000000        -8.311890096717362E-014
  0.475000000000000        -1.552318254204940E-013
  0.665000000000000        -2.538177976112703E-013
  0.855000000000000        -3.835922198093860E-013
   1.04500000000000        -5.494416493346415E-013
   1.23500000000000        -7.420883998346171E-013
   1.42500000000000        -9.543436973842217E-013
   1.61500000000000        -1.192653149494944E-012
   1.80500000000000        -1.456622847535208E-012
   1.99500000000000        -1.737997978444604E-012
   2.18500000000000        -2.030501359801899E-012
   2.37500000000000        -2.328191040994276E-012
   2.56500000000000        -2.625761274287067E-012
   2.75500000000000        -2.920432026028492E-012
   2.94500000000000        -3.207329658919172E-012
   3.13500000000000        -3.481590067587530E-012
   3.32500000000000        -3.749106281909391E-012
   3.51500000000000        -4.012306555806559E-012
   3.70500000000000        -4.269334860844649E-012
   3.89500000000000        -4.521555211371073E-012
   4.08500000000000        -4.768602698559465E-012
   4.27500000000000        -5.010268580261727E-012
   4.46500000000000        -5.243900852720405E-012
   4.65500000000000        -5.466055953468146E-012
   4.84500000000000        -5.675909698076330E-012
   5.03500000000000        -5.876695903844305E-012
   5.22500000000000        -6.073084338938587E-012
   5.41500000000000        -6.265775519113143E-012
   5.60500000000000        -6.450482300259580E-012
   5.79500000000000        -6.620669004292372E-012
   5.98500000000000        -6.771373112118701E-012
   6.17500000000000        -6.901209542948627E-012
   6.36500000000000        -7.011195534406614E-012
   6.55500000000000        -7.108104170835827E-012
   6.74500000000000        -7.198489453428887E-012
   6.93500000000000        -7.286857841628852E-012
   7.12500000000000        -7.387957263041798E-012
   7.31500000000000        -7.513427901575742E-012
   7.50500000000000        -7.666633376705692E-012
   7.69500000000000        -7.850629820871485E-012
   7.88500000000000        -8.064466304825234E-012
   8.07500000000000        -8.307928945601344E-012
   8.26500000000000        -8.579039614180688E-012
   8.45500000000000        -8.873762467080459E-012
   8.64500000000000        -9.190010394845030E-012
   8.83500000000000        -9.521317818629521E-012
   9.02500000000000        -9.854701778822753E-012
   9.21500000000000        -1.016115296701802E-011
   9.40500000000000        -1.042431038513736E-011
   9.59500000000000        -1.064729380157425E-011
   9.78500000000000        -1.082889424453902E-011
   9.97500000000000        -1.097217307421334E-011
   10.1650000000000        -1.108940859627943E-011
   10.3550000000000        -1.118767938680663E-011
   10.5450000000000        -1.126736014045111E-011
   10.7350000000000        -1.133733233398960E-011
   10.9250000000000        -1.140401408226075E-011
   11.1150000000000        -1.146771794604914E-011
   11.3050000000000        -1.152749224485639E-011
   11.4950000000000        -1.158415204994460E-011
   11.6850000000000        -1.164285801285886E-011
   11.8750000000000        -1.171103559394130E-011
   12.0650000000000        -1.179386781982719E-011
   12.2550000000000        -1.189276671911627E-011
   12.4450000000000        -1.200823748331760E-011
   12.6350000000000        -1.213325091439050E-011
   12.8250000000000        -1.226348845897496E-011
   13.0150000000000        -1.239907427908669E-011
   13.2050000000000        -1.253319243269071E-011
   13.3950000000000        -1.265484078537666E-011
   13.5850000000000        -1.275730107247950E-011
   13.7750000000000        -1.284194092321051E-011
   13.9650000000000        -1.291051677281576E-011
   14.1550000000000        -1.297218777144646E-011
   14.3450000000000        -1.303053091573789E-011
   14.5350000000000        -1.308438365696606E-011
   14.7250000000000        -1.313749087755184E-011
   14.9150000000000        -1.319632580837940E-011
   15.1050000000000        -1.327477081843972E-011
   15.2950000000000        -1.338207006776863E-011
   15.4850000000000        -1.351860317152267E-011
   15.6750000000000        -1.367865533315807E-011
   15.8650000000000        -1.385758776123965E-011
   16.0550000000000        -1.405414429627269E-011
   16.2450000000000        -1.426595065498392E-011
   16.4350000000000        -1.448877151214727E-011
   16.6250000000000        -1.471947071477857E-011
   16.8150000000000        -1.495651943950354E-011
   17.0050000000000        -1.519658114433634E-011
   17.1950000000000        -1.543924234113016E-011
   17.3850000000000        -1.568459667485839E-011
   17.5750000000000        -1.593214702874633E-011
   17.7650000000000        -1.618179514103666E-011
   17.9550000000000        -1.643250973693922E-011
   18.1450000000000        -1.668417417870255E-011
   18.3350000000000        -1.693686193704857E-011
   18.5250000000000        -1.719036063652882E-011
   18.7150000000000        -1.744319089925097E-011
   18.9050000000000        -1.769278373524440E-011
   19.0950000000000        -1.793757381346136E-011
   19.2850000000000        -1.817636419062693E-011
   19.4750000000000        -1.840639849746292E-011
   19.6650000000000        -1.862405957430143E-011
   19.8550000000000        -1.882872984373399E-011
   20.0450000000000        -1.902174016461175E-011
   20.2350000000000        -1.920226406670279E-011
   20.4250000000000        -1.936865028708760E-011
   20.6150000000000        -1.951920679757017E-011
   20.8050000000000        -1.965326520243439E-011
   20.9950000000000        -1.977277452086412E-011
   21.1850000000000        -1.988530695125026E-011
   21.3750000000000        -1.999079245475168E-011
   21.5650000000000        -2.008992530851085E-011
   21.7550000000000        -2.018869875466217E-011
   21.9450000000000        -2.028917030003782E-011
   22.1350000000000        -2.040042371245377E-011
   22.3250000000000        -2.053640874089858E-011
   22.5150000000000        -2.070694143534798E-011
   22.7050000000000        -2.091372346534194E-011
   22.8950000000000        -2.115580970817035E-011
   23.0850000000000        -2.143315768638288E-011
   23.2750000000000        -2.174400675023768E-011
   23.4650000000000        -2.208462566500239E-011
   23.6550000000000        -2.245289847409467E-011
   23.8450000000000        -2.284492194323026E-011
   24.0350000000000        -2.325423721109830E-011
   24.2250000000000        -2.367364113164625E-011
   24.4150000000000        -2.409514746854763E-011
   24.6050000000000        -2.450974259022037E-011
   24.7950000000000        -2.491263341833855E-011
   24.9850000000000        -2.529919016773482E-011
   25.1750000000000        -2.566338631426230E-011
   25.3650000000000        -2.600191291283935E-011
   25.5550000000000        -2.631419290490438E-011
   25.7450000000000        -2.659455120999193E-011
   25.9350000000000        -2.683894818062741E-011
   26.1250000000000        -2.705743536241285E-011
   26.3150000000000        -2.725937266714700E-011
   26.5050000000000        -2.744693176922441E-011
   26.6950000000000        -2.762154703227951E-011
   26.8850000000000        -2.778685299442482E-011
   27.0750000000000        -2.794668738165742E-011
   27.2650000000000        -2.810594471855087E-011
   27.4550000000000        -2.827141094379299E-011
   27.6450000000000        -2.844693127148269E-011
   27.8350000000000        -2.862838369480312E-011
   28.0250000000000        -2.881031675905983E-011
   28.2150000000000        -2.899277163082990E-011
   28.4050000000000        -2.917052359657861E-011
   28.5950000000000        -2.932968206781485E-011
   28.7850000000000        -2.945782563086306E-011
   28.9750000000000        -2.953733262241217E-011
   29.1650000000000        -2.956413313874296E-011
   29.3550000000000        -2.954447623992138E-011
   29.5450000000000        -2.947025575586259E-011
   29.7350000000000        -2.934178968649230E-011
   29.9250000000000        -2.916902009817691E-011
   30.1150000000000        -2.896230316225054E-011
   30.3050000000000        -2.873040042420385E-011
   30.4950000000000        -2.848445288249107E-011
   30.6850000000000        -2.823514478207340E-011
   30.8750000000000        -2.799048311062394E-011
   31.0650000000000        -2.777997691870332E-011
   31.2550000000000        -2.762052778022739E-011
   31.4450000000000        -2.751482053647851E-011
   31.6350000000000        -2.747859992732891E-011
   31.8250000000000        -2.750586191110568E-011
   32.0150000000000        -2.758680680287059E-011
   32.2050000000000        -2.772543317849513E-011
   32.3950000000000        -2.791017351748086E-011
   32.5850000000000        -2.812234772949787E-011
   32.7750000000000        -2.835902551573004E-011
   32.9650000000000        -2.861649225467943E-011
   33.1550000000000        -2.888342791890425E-011
   33.3450000000000        -2.915637778157232E-011
   33.5350000000000        -2.943508605950342E-011
   33.7250000000000        -2.971177292962261E-011
   33.9150000000000        -2.996835552249303E-011
   34.1050000000000        -3.018865910447465E-011
   34.2950000000000        -3.036830060341222E-011
   34.4850000000000        -3.051889382029725E-011
   34.6750000000000        -3.064778196018090E-011
   34.8650000000000        -3.075158399476256E-011
   35.0550000000000        -3.083573169768345E-011
   35.2450000000000        -3.091100403693182E-011
   35.4350000000000        -3.099394226925370E-011
   35.6250000000000        -3.109629084029549E-011
   35.8150000000000        -3.121965781586561E-011
   36.0050000000000        -3.136316458562617E-011
   36.1950000000000        -3.152258840179877E-011
   36.3850000000000        -3.169327683527996E-011
   36.5750000000000        -3.187253634714160E-011
   36.7650000000000        -3.205660460482116E-011
   36.9550000000000        -3.224314336802742E-011
   37.1450000000000        -3.243034161716755E-011
   37.3350000000000        -3.261461693501666E-011
   37.5250000000000        -3.279462750931207E-011
   37.7150000000000        -3.297010475537642E-011
   37.9050000000000        -3.314140831723608E-011
   38.0950000000000        -3.331111459890758E-011
   38.2850000000000        -3.348619518463141E-011
   38.4750000000000        -3.368686419539695E-011
   38.6650000000000        -3.393591135496214E-011
   38.8550000000000        -3.423507515599076E-011
   39.0450000000000        -3.458150997190729E-011
   39.2350000000000        -3.497690624903807E-011
   39.4250000000000        -3.542202898111871E-011
   39.6150000000000        -3.591137640674795E-011
   39.8050000000000        -3.643102411915015E-011
   39.9950000000000        -3.696822505841953E-011
   40.1850000000000        -3.751876888783012E-011
   40.3750000000000        -3.807768670389378E-011
   40.5650000000000        -3.863882595815126E-011
   40.7550000000000        -3.920208023891534E-011
   40.9450000000000        -3.975651334850819E-011
   41.1350000000000        -4.028242016712252E-011
   41.3250000000000        -4.076154866020338E-011
   41.5150000000000        -4.118801292779672E-011
   41.7050000000000        -4.156811102350262E-011
   41.8950000000000        -4.189779432893454E-011
   42.0850000000000        -4.217510189649310E-011
   42.2750000000000        -4.240710859758757E-011
   42.4650000000000        -4.259341998257041E-011
   42.6550000000000        -4.273647093658638E-011
   42.8450000000000        -4.283888651861621E-011
   43.0350000000000        -4.290283676145947E-011
   43.2250000000000        -4.293540775420694E-011
   43.4150000000000        -4.293886849904213E-011
   43.6050000000000        -4.292287180032716E-011
   43.7950000000000        -4.289815336119652E-011
   43.9850000000000        -4.286518170863055E-011
   44.1750000000000        -4.282412489928702E-011
   44.3650000000000        -4.277672634064872E-011
   44.5550000000000        -4.273852179209621E-011
   44.7450000000000        -4.274080186565954E-011
   44.9350000000000        -4.281394007063108E-011
   45.1250000000000        -4.296195845267944E-011
   45.3150000000000        -4.317195229907622E-011
   45.5050000000000        -4.343761521983135E-011
   45.6950000000000        -4.375293899354847E-011
   45.8850000000000        -4.410067062937450E-011
   46.0750000000000        -4.446321442183763E-011
   46.2650000000000        -4.483492625343241E-011
   46.4550000000000        -4.521185612696681E-011
   46.6450000000000        -4.558835494659715E-011
   46.8350000000000        -4.594700298136983E-011
   47.0250000000000        -4.625569621910925E-011
   47.2150000000000        -4.649703510575130E-011
   47.4050000000000        -4.667933923989380E-011
   47.5950000000000        -4.681086183504389E-011
   47.7850000000000        -4.689593710453964E-011
   47.9750000000000        -4.693893343280398E-011
   48.1650000000000        -4.695175130946352E-011
   48.3550000000000        -4.694008263318139E-011
   48.5450000000000        -4.689919072217557E-011
   48.7350000000000        -4.683527198503728E-011
   48.9250000000000        -4.676007051910595E-011
   49.1150000000000        -4.668055037498938E-011
   49.3050000000000        -4.659982557771752E-011
   49.4950000000000        -4.653999449356048E-011
   49.6850000000000        -4.653299639249308E-011
   49.8750000000000        -4.659368461580315E-011
   50.0650000000000        -4.671709010393511E-011
   50.2550000000000        -4.689617438471736E-011
   50.4450000000000        -4.712117958561456E-011
   50.6350000000000        -4.737319021978651E-011
   50.8250000000000        -4.765259268483037E-011
   51.0150000000000        -4.795339374424827E-011
   51.2050000000000        -4.826080409088193E-011
   51.3950000000000        -4.858004111030975E-011
   51.5850000000000        -4.890869094528247E-011
   51.7750000000000        -4.921203193574609E-011
   51.9650000000000        -4.946596442349245E-011
   52.1550000000000        -4.967602718787368E-011
   52.3450000000000        -4.984937828454211E-011
   52.5350000000000        -4.999438029210267E-011
   52.7250000000000        -5.011834572482226E-011
   52.9150000000000        -5.023058780701416E-011
   53.1050000000000        -5.033749312051307E-011
   53.2950000000000        -5.044414224801486E-011
   53.4850000000000        -5.055823305784126E-011
   53.6750000000000        -5.069398355332382E-011
   53.8650000000000        -5.086059978183152E-011
   54.0550000000000        -5.105761838491217E-011
   54.2450000000000        -5.128728889616410E-011
   54.4350000000000        -5.155062981075123E-011
   54.6250000000000        -5.184242002111005E-011
   54.8150000000000        -5.215628701669205E-011
   55.0050000000000        -5.248835684996206E-011
   55.1950000000000        -5.283533631803260E-011
   55.3850000000000        -5.319384136789808E-011
   55.5750000000000        -5.356080509931360E-011
   55.7650000000000        -5.393388237672541E-011
   55.9550000000000        -5.430518699710056E-011
   56.1450000000000        -5.466147469625115E-011
   56.3350000000000        -5.499043542680563E-011
   56.5250000000000        -5.528305387402485E-011
   56.7150000000000        -5.553640990735922E-011
   56.9050000000000        -5.575277129968658E-011
   57.0950000000000        -5.593483672441586E-011
   57.2850000000000        -5.608549654723679E-011
   57.4750000000000        -5.620564582140392E-011
   57.6650000000000        -5.630046205764216E-011
   57.8550000000000        -5.637857060026197E-011
   58.0450000000000        -5.645170623543943E-011
   58.2350000000000        -5.652455502009482E-011
   58.4250000000000        -5.659249952210471E-011
   58.6150000000000        -5.665744101971067E-011
   58.8050000000000        -5.672136094200106E-011
   58.9950000000000        -5.678613818359242E-011
   59.1850000000000        -5.685391033840210E-011
   59.3750000000000        -5.692560790767461E-011
   59.5650000000000        -5.700225229467180E-011
   59.7550000000000        -5.708604121241848E-011
   59.9450000000000        -5.717978255269669E-011
   60.1350000000000        -5.728544695088396E-011
   60.3250000000000        -5.740316981395872E-011
   60.5150000000000        -5.752902059884712E-011
   60.7050000000000        -5.765575002999752E-011
   60.8950000000000        -5.776922478219668E-011
   61.0850000000000        -5.786372270145348E-011
   61.2750000000000        -5.793960484828409E-011
   61.4650000000000        -5.799851789786099E-011
   61.6550000000000        -5.804430000228845E-011
   61.8450000000000        -5.807632151573482E-011
   62.0350000000000        -5.810162200318038E-011
   62.2250000000000        -5.812481355107632E-011
   62.4150000000000        -5.814627193997284E-011
   62.6050000000000        -5.816497046018352E-011
   62.7950000000000        -5.817725933878350E-011
   62.9850000000000        -5.818381398663486E-011
   63.1750000000000        -5.818679638370732E-011
   63.3650000000000        -5.818849385966041E-011
   63.5550000000000        -5.819289064620882E-011
   63.7450000000000        -5.820573373908650E-011
   63.9350000000000        -5.823399382624300E-011
   64.1250000000000        -5.827920098810415E-011
   64.3150000000000        -5.834131741020110E-011
   64.5050000000000        -5.842022758082411E-011
   64.6950000000000        -5.851620946339497E-011
   64.8850000000000        -5.862614983926146E-011
   65.0750000000000        -5.874059525333894E-011
   65.2650000000000        -5.885788826598254E-011
   65.4550000000000        -5.897828603109133E-011
   65.6450000000000        -5.910117559576295E-011
   65.8350000000000        -5.922719332330878E-011
   66.0250000000000        -5.935458918342972E-011
   66.2150000000000        -5.948534569529892E-011
   66.4050000000000        -5.961937334541698E-011
   66.5950000000000        -5.975139806335479E-011
   66.7850000000000        -5.987998409103193E-011
   66.9750000000000        -6.000580418664111E-011
   67.1650000000000        -6.012937299644185E-011
   67.3550000000000        -6.025282849513975E-011
   67.5450000000000        -6.037920236972935E-011
   67.7350000000000        -6.051199563938743E-011
   67.9250000000000        -6.065532532934954E-011
   68.1150000000000        -6.081129575640909E-011
   68.3050000000000        -6.097685650236754E-011
   68.4950000000000        -6.115073334930381E-011
   68.6850000000000        -6.133167294095988E-011
   68.8750000000000        -6.151699399411834E-011
   69.0650000000000        -6.170718853695101E-011
   69.2550000000000        -6.190303748373466E-011
   69.4450000000000        -6.210647935045628E-011
   69.6350000000000        -6.231912656645002E-011
   69.8250000000000        -6.254224029720265E-011
   70.0150000000000        -6.277984440486729E-011
   70.2050000000000        -6.303557917737431E-011
   70.3950000000000        -6.330979874252810E-011
   70.5850000000000        -6.360084572241450E-011
   70.7750000000000        -6.390824656568919E-011
   70.9650000000000        -6.423183561891334E-011
   71.1550000000000        -6.457491603028780E-011
   71.3450000000000        -6.493855458637161E-011
   71.5350000000000        -6.532336640583482E-011
   71.7250000000000        -6.572845027416327E-011
   71.9150000000000        -6.615200562584846E-011
   72.1050000000000        -6.659213047153012E-011
   72.2950000000000        -6.704378399998902E-011
   72.4850000000000        -6.750405663837128E-011
   72.6750000000000        -6.796725046659587E-011
   72.8650000000000        -6.842813804208800E-011
   73.0550000000000        -6.888111644062364E-011
   73.2450000000000        -6.931975381215836E-011
   73.4350000000000        -6.973682838357753E-011
   73.6250000000000        -7.012516388729596E-011
   73.8150000000000        -7.047888039711876E-011
   74.0050000000000        -7.079320160375644E-011
   74.1950000000000        -7.106659284114956E-011
   74.3850000000000        -7.129756599309079E-011
   74.5750000000000        -7.148914349774851E-011
   74.7650000000000        -7.164601841862236E-011
   74.9550000000000        -7.177482093678790E-011
   75.1450000000000        -7.188237497125937E-011
   75.3350000000000        -7.197648932101739E-011
   75.5250000000000        -7.206131857808102E-011
   75.7150000000000        -7.214335122362317E-011
   75.9050000000000        -7.223203274143362E-011
   76.0950000000000        -7.232814296849771E-011
   76.2850000000000        -7.243628010569200E-011
   76.4750000000000        -7.256012998586483E-011
   76.6650000000000        -7.269622659180332E-011
   76.8550000000000        -7.283559491273530E-011
   77.0450000000000        -7.296921557228434E-011
   77.2350000000000        -7.308852397298669E-011
   77.4250000000000        -7.318180017480717E-011
   77.6150000000000        -7.323721888708888E-011
   77.8050000000000        -7.325242460686330E-011
   77.9950000000000        -7.323506556633735E-011
   78.1850000000000        -7.319213042074247E-011
   78.3750000000000        -7.312684041635160E-011
   78.5650000000000        -7.304076335226984E-011
   78.7550000000000        -7.292910019954590E-011
   78.9450000000000        -7.279420440068154E-011
   79.1350000000000        -7.263917612735292E-011
   79.3250000000000        -7.246267506812658E-011
   79.5150000000000        -7.226948997914542E-011
   79.7050000000000        -7.206858811414356E-011
   79.8950000000000        -7.188449438159674E-011
   80.0850000000000        -7.175035418828856E-011
   80.2750000000000        -7.169081356129562E-011
   80.4650000000000        -7.171459796023883E-011
   80.6550000000000        -7.181557618139418E-011
   80.8450000000000        -7.198292074557151E-011
   81.0350000000000        -7.220841911309300E-011
   81.2250000000000        -7.248595706575004E-011
   81.4150000000000        -7.280161199189528E-011
   81.6050000000000        -7.314377313882873E-011
   81.7950000000000        -7.350984177826910E-011
   81.9850000000000        -7.390319577436375E-011
   82.1750000000000        -7.431978149301512E-011
   82.3650000000000        -7.475415321888286E-011
   82.5550000000000        -7.520119393492980E-011
   82.7450000000000        -7.562782232264108E-011
   82.9350000000000        -7.600704725480827E-011
   83.1250000000000        -7.633999717473146E-011
   83.3150000000000        -7.663418119556271E-011
   83.5050000000000        -7.689627921405134E-011
   83.6950000000000        -7.713399074447016E-011
   83.8850000000000        -7.734835546317119E-011
   84.0750000000000        -7.754803614721559E-011
   84.2650000000000        -7.774680435274472E-011
   84.4550000000000        -7.794688264197303E-011
   84.6450000000000        -7.814713195944454E-011
   84.8350000000000        -7.834381660090003E-011
   85.0250000000000        -7.853225104883253E-011
   85.2150000000000        -7.870999092107023E-011
   85.4050000000000        -7.887863495629484E-011
   85.5950000000000        -7.904501285783581E-011
   85.7850000000000        -7.922302188148632E-011
   85.9750000000000        -7.942448512193496E-011
   86.1650000000000        -7.965026959849607E-011
   86.3550000000000        -7.989228698677152E-011
   86.5450000000000        -8.014355898213954E-011
   86.7350000000000        -8.039853419100922E-011
   86.9250000000000        -8.064952178976342E-011
   87.1150000000000        -8.089084994828808E-011
   87.3050000000000        -8.111951851209399E-011
   87.4950000000000        -8.133648718901344E-011
   87.6850000000000        -8.154668889076179E-011
   87.8750000000000        -8.175946445693718E-011
   88.0650000000000        -8.198389562438593E-011
   88.2550000000000        -8.222331340163379E-011
   88.4450000000000        -8.247794797901637E-011
   88.6350000000000        -8.274524440635804E-011
   88.8250000000000        -8.302096794699963E-011
   89.0150000000000        -8.330160491754860E-011
   89.2050000000000        -8.358548949610848E-011
   89.3950000000000        -8.386218571249910E-011
   89.5850000000000        -8.411360239705780E-011
   89.7750000000000        -8.434083600965454E-011
   89.9650000000000        -8.456088738963785E-011
   90.1550000000000        -8.478130128586946E-011
   90.3450000000000        -8.500270713773450E-011
   90.5350000000000        -8.522680494261822E-011
   90.7250000000000        -8.545102504285941E-011
   90.9150000000000        -8.567049710710944E-011
   91.1050000000000        -8.588133008495213E-011
   91.2950000000000        -8.607885850939222E-011
   91.4850000000000        -8.625804490150248E-011
   91.6750000000000        -8.641547524915906E-011
   91.8650000000000        -8.655038062263001E-011
   92.0550000000000        -8.666656826267235E-011
   92.2450000000000        -8.676969988347028E-011
   92.4350000000000        -8.686287088031399E-011
   92.6250000000000        -8.694558350032490E-011
   92.8150000000000        -8.701515233771333E-011
   93.0050000000000        -8.706739442294088E-011
   93.1950000000000        -8.709387607767485E-011
   93.3850000000000        -8.709623698568335E-011
   93.5750000000000        -8.709694448071074E-011
   93.7650000000000        -8.712015612712765E-011
   93.9550000000000        -8.717713853220429E-011
   94.1450000000000        -8.726710046988804E-011
   94.3350000000000        -8.738745978822487E-011
   94.5250000000000        -8.753808099932536E-011
   94.7150000000000        -8.770877544981360E-011
   94.9050000000000        -8.789046068753946E-011
   95.0950000000000        -8.807798185190655E-011
   95.2850000000000        -8.826440275764547E-011
   95.4750000000000        -8.844801508673702E-011
   95.6650000000000        -8.863168079394279E-011
   95.8550000000000        -8.881956436043636E-011
   96.0450000000000        -8.901514193511295E-011
   96.2350000000000        -8.922106051378028E-011
   96.4250000000000        -8.943387935457733E-011
   96.6150000000000        -8.964502231017765E-011
   96.8050000000000        -8.984533552981630E-011
   96.9950000000000        -9.002649588586640E-011
   97.1850000000000        -9.018403771208337E-011
   97.3750000000000        -9.031793595711835E-011
   97.5650000000000        -9.043352875727801E-011
   97.7550000000000        -9.054132504504871E-011
   97.9450000000000        -9.065455583430191E-011
   98.1350000000000        -9.078540532671337E-011
   98.3250000000000        -9.094393901325375E-011
   98.5150000000000        -9.113364028926372E-011
   98.7050000000000        -9.134906108367441E-011
   98.8950000000000        -9.158075608015912E-011
   99.0850000000000        -9.181513474869451E-011
   99.2750000000000        -9.204001354781206E-011
   99.4650000000000        -9.223773351030076E-011
   99.6550000000000        -9.238948823028370E-011
   99.8450000000000        -9.248653228313786E-011
   100.035000000000        -9.253050151029314E-011
   100.225000000000        -9.252398987563035E-011
   100.415000000000        -9.246895440033335E-011
   100.605000000000        -9.237015983773528E-011
   100.795000000000        -9.223624724616155E-011
   100.985000000000        -9.207622115977493E-011
   101.175000000000        -9.189600959049205E-011
   101.365000000000        -9.169812566848142E-011
   101.555000000000        -9.148746283218267E-011
   101.745000000000        -9.127016582883516E-011
   101.935000000000        -9.105467042863684E-011
   102.125000000000        -9.088268465752359E-011
   102.315000000000        -9.079652617638274E-011
   102.505000000000        -9.079325142817169E-011
   102.695000000000        -9.085925418399695E-011
   102.885000000000        -9.099271137762984E-011
   103.075000000000        -9.118668990637006E-011
   103.265000000000        -9.143027648223108E-011
   103.455000000000        -9.170780241800736E-011
   103.645000000000        -9.200008953849481E-011
   103.835000000000        -9.229682524294397E-011
   104.025000000000        -9.259744818536715E-011
   104.215000000000        -9.290301290838690E-011
   104.405000000000        -9.321399480972044E-011
   104.595000000000        -9.353141797547098E-011
   104.785000000000        -9.385317408633505E-011
   104.975000000000        -9.417215939225919E-011
   105.165000000000        -9.447865148071304E-011
   105.355000000000        -9.476695915960316E-011
   105.545000000000        -9.503665126363798E-011
   105.735000000000        -9.528865933516064E-011
   105.925000000000        -9.552724517490809E-011
   106.115000000000        -9.575815782747965E-011
   106.305000000000        -9.598483682369207E-011
   106.495000000000        -9.621244183482698E-011
   106.685000000000        -9.644151831850834E-011
   106.875000000000        -9.667034228181162E-011
   107.065000000000        -9.689615657513832E-011
   107.255000000000        -9.711156946648624E-011
   107.445000000000        -9.731183660359113E-011
   107.635000000000        -9.749441746650779E-011
   107.825000000000        -9.765990741113432E-011
   108.015000000000        -9.781197013084377E-011
   108.205000000000        -9.795626852180799E-011
   108.395000000000        -9.809893500140623E-011
   108.585000000000        -9.824518824929881E-011
   108.775000000000        -9.839787510275364E-011
   108.965000000000        -9.855654994458038E-011
   109.155000000000        -9.872081137029937E-011
   109.345000000000        -9.888670359655115E-011
   109.535000000000        -9.905004855354774E-011
   109.725000000000        -9.920941178363023E-011
   109.915000000000        -9.936297065518640E-011
   110.105000000000        -9.951131173838389E-011