  -1.42500000000000         3.781217645105566E-020
  -1.23500000000000         1.935981612188657E-019
  -1.04500000000000         9.319825380472701E-019
 -0.855000000000000         4.407008993575144E-018
 -0.665000000000000         1.859741299880733E-017
 -0.475000000000000         6.587491617220663E-017
 -0.285000000000000         2.025912077285651E-016
 -9.499999999999975E-002    5.437882813719405E-016
  9.500000000000020E-002    1.286838257471849E-015
  0.285000000000000         2.696914118522012E-015
  0.475000000000000         5.049969856017529E-015
  0.665000000000000         8.634094510544356E-015
  0.855000000000000         1.370152188896055E-014
   1.04500000000000         2.040497063175661E-014
   1.23500000000000         2.875654250206636E-014
   1.42500000000000         3.852011196486026E-014
   1.61500000000000         4.966535177390057E-014
   1.80500000000000         6.251978542286873E-014
   1.99500000000000         7.717731968902396E-014
   2.18500000000000         9.358300942002027E-014
   2.37500000000000         1.117206986900979E-013
   2.56500000000000         1.314291146659071E-013
   2.75500000000000         1.524499101309372E-013
   2.94500000000000         1.745147276490931E-013
   3.13500000000000         1.972842686391691E-013
   3.32500000000000         2.203801798668436E-013
   3.51500000000000         2.436738622142435E-013
   3.70500000000000         2.671172353077797E-013
   3.89500000000000         2.905981289868618E-013
   4.08500000000000         3.140865119531891E-013
   4.27500000000000         3.375507166775894E-013
   4.46500000000000         3.609276091903303E-013
   4.65500000000000         3.840855462957566E-013
   4.84500000000000         4.068213437604528E-013
   5.03500000000000         4.289401337527704E-013
   5.22500000000000         4.506338202603463E-013
   5.41500000000000         4.719053890572118E-013
   5.60500000000000         4.925971751429448E-013
   5.79500000000000         5.129501657053067E-013
   5.98500000000000         5.332937253639066E-013
   6.17500000000000         5.540441912035132E-013
   6.36500000000000         5.756671115904949E-013
   6.55500000000000         5.984635363752765E-013
   6.74500000000000         6.224759821504987E-013
   6.93500000000000         6.477958672040784E-013
   7.12500000000000         6.747346696619388E-013
   7.31500000000000         7.032563611919794E-013
   7.50500000000000         7.328759504122463E-013
   7.69500000000000         7.630871563043994E-013
   7.88500000000000         7.934070963680426E-013
   8.07500000000000         8.233772168697167E-013
   8.26500000000000         8.526873526917917E-013
   8.45500000000000         8.811837818727656E-013
   8.64500000000000         9.085751582816285E-013
   8.83500000000000         9.345579369547975E-013
   9.02500000000000         9.583347904848751E-013
   9.21500000000000         9.784902742285161E-013
   9.40500000000000         9.943661566375809E-013
   9.59500000000000         1.006444490636256E-012
   9.78500000000000         1.015795621248503E-012
   9.97500000000000         1.023180110409036E-012
   10.1650000000000         1.028983333784547E-012
   10.3550000000000         1.033771169680479E-012
   10.5450000000000         1.037970573801349E-012
   10.7350000000000         1.041906028598939E-012
   10.9250000000000         1.045790767517609E-012
   11.1150000000000         1.049637832533734E-012
   11.3050000000000         1.053463679300473E-012
   11.4950000000000         1.057425700286234E-012
   11.6850000000000         1.061917006565223E-012
   11.8750000000000         1.067426330677386E-012
   12.0650000000000         1.074300063757478E-012
   12.2550000000000         1.082670008889688E-012
   12.4450000000000         1.092703914525711E-012
   12.6350000000000         1.103853275284549E-012
   12.8250000000000         1.115912379701416E-012
   13.0150000000000         1.129199137860795E-012
   13.2050000000000         1.143422545317163E-012
   13.3950000000000         1.158436446378771E-012
   13.5850000000000         1.174050196342537E-012
   13.7750000000000         1.189962688807444E-012
   13.9650000000000         1.205984167298712E-012
   14.1550000000000         1.222048258552557E-012
   14.3450000000000         1.238173850259853E-012
   14.5350000000000         1.254394121763137E-012
   14.7250000000000         1.270802331914443E-012
   14.9150000000000         1.287768932280443E-012
   15.1050000000000         1.306133179935177E-012
   15.2950000000000         1.326794277441176E-012
   15.4850000000000         1.350183044038760E-012
   15.6750000000000         1.376076838686281E-012
   15.8650000000000         1.404029901507283E-012
   16.0550000000000         1.433845863400191E-012
   16.2450000000000         1.465132017621612E-012
   16.4350000000000         1.497275313580621E-012
   16.6250000000000         1.529794537502094E-012
   16.8150000000000         1.562339005210471E-012
   17.0050000000000         1.594776835013985E-012
   17.1950000000000         1.626965599120745E-012
   17.3850000000000         1.658856535158208E-012
   17.5750000000000         1.690253402586703E-012
   17.7650000000000         1.721089078381827E-012
   17.9550000000000         1.751528384697668E-012
   18.1450000000000         1.781522940335470E-012
   18.3350000000000         1.811101717185405E-012
   18.5250000000000         1.840183507683009E-012
   18.7150000000000         1.868344886241751E-012
   18.9050000000000         1.894922015463333E-012
   19.0950000000000         1.919448112726698E-012
   19.2850000000000         1.941818512370704E-012
   19.4750000000000         1.962279176958619E-012
   19.6650000000000         1.981212945953694E-012
   19.8550000000000         1.998858799784324E-012
   20.0450000000000         2.015298627750537E-012
   20.2350000000000         2.030572749940234E-012
   20.4250000000000         2.044656754453869E-012
   20.6150000000000         2.057387235592429E-012
   20.8050000000000         2.068562372651559E-012
   20.9950000000000         2.078104781653013E-012
   21.1850000000000         2.086628741548637E-012
   21.3750000000000         2.094009263721862E-012
   21.5650000000000         2.100235947990919E-012
   21.7550000000000         2.105785362062225E-012
   21.9450000000000         2.110213515441550E-012
   22.1350000000000         2.113312764973327E-012
   22.3250000000000         2.115327416560312E-012
   22.5150000000000         2.117266446279475E-012
   22.7050000000000         2.120394069057184E-012
   22.8950000000000         2.125585185918558E-012
   23.0850000000000         2.133399029269403E-012
   23.2750000000000         2.144119400669644E-012
   23.4650000000000         2.157636652723352E-012
   23.6550000000000         2.174032631215295E-012
   23.8450000000000         2.193734243193796E-012
   24.0350000000000         2.216669943822143E-012
   24.2250000000000         2.242454948502373E-012
   24.4150000000000         2.270726057772454E-012
   24.6050000000000         2.301153788041928E-012
   24.7950000000000         2.333031988736150E-012
   24.9850000000000         2.365566460811639E-012
   25.1750000000000         2.398260247656280E-012
   25.3650000000000         2.430610802317481E-012
   25.5550000000000         2.462321767217702E-012
   25.7450000000000         2.492985293418871E-012
   25.9350000000000         2.522215827490028E-012
   26.1250000000000         2.550168146691877E-012
   26.3150000000000         2.577162399514493E-012
   26.5050000000000         2.603285834711193E-012
   26.6950000000000         2.628585989339956E-012
   26.8850000000000         2.653165287424043E-012
   27.0750000000000         2.677079255259936E-012
   27.2650000000000         2.700509541373484E-012
   27.4550000000000         2.723864586142090E-012
   27.6450000000000         2.747545883648231E-012
   27.8350000000000         2.771537833932873E-012
   28.0250000000000         2.795985604476300E-012
   28.2150000000000         2.821120590508501E-012
   28.4050000000000         2.846861607291593E-012
   28.5950000000000         2.873066717654203E-012
   28.7850000000000         2.899187295477705E-012
   28.9750000000000         2.924246187036586E-012
   29.1650000000000         2.947231795316247E-012
   29.3550000000000         2.967311437938617E-012
   29.5450000000000         2.983983281809030E-012
   29.7350000000000         2.997148648861564E-012
   29.9250000000000         3.006796425903984E-012
   30.1150000000000         3.013145429901671E-012
   30.3050000000000         3.016718180437599E-012
   30.4950000000000         3.018430087322297E-012
   30.6850000000000         3.018958654436228E-012
   30.8750000000000         3.018199353928703E-012
   31.0650000000000         3.015749995053976E-012
   31.2550000000000         3.012136560818214E-012
   31.4450000000000         3.008642401634776E-012
   31.6350000000000         3.006122747322718E-012
   31.8250000000000         3.005052999171508E-012
   32.0150000000000         3.005625072996264E-012
   32.2050000000000         3.007935929604361E-012
   32.3950000000000         3.012005023469924E-012
   32.5850000000000         3.017781035076334E-012
   32.7750000000000         3.025118834050434E-012
   32.9650000000000         3.033759023384175E-012
   33.1550000000000         3.043248773802303E-012
   33.3450000000000         3.053437509692451E-012
   33.5350000000000         3.064680508630617E-012
   33.7250000000000         3.077501357416833E-012
   33.9150000000000         3.092529017165546E-012
   34.1050000000000         3.110122596520703E-012
   34.2950000000000         3.130078150182579E-012
   34.4850000000000         3.151709446583033E-012
   34.6750000000000         3.174559038597600E-012
   34.8650000000000         3.198566310928447E-012
   35.0550000000000         3.223644810766635E-012
   35.2450000000000         3.249769581237398E-012
   35.4350000000000         3.276830489807440E-012
   35.6250000000000         3.304488365534000E-012
   35.8150000000000         3.332344308321256E-012
   36.0050000000000         3.360060846698168E-012
   36.1950000000000         3.387369842545000E-012
   36.3850000000000         3.414328929060219E-012
   36.5750000000000         3.440932913409726E-012
   36.7650000000000         3.467147682896822E-012
   36.9550000000000         3.492922456831782E-012
   37.1450000000000         3.518013368095129E-012
   37.3350000000000         3.542413034661085E-012
   37.5250000000000         3.566239188216096E-012
   37.7150000000000         3.589625572357489E-012
   37.9050000000000         3.612681588268469E-012
   38.0950000000000         3.635553635523758E-012
   38.2850000000000         3.658279942050796E-012
   38.4750000000000         3.680747971021889E-012
   38.6650000000000         3.702902930080018E-012
   38.8550000000000         3.724707505967530E-012
   39.0450000000000         3.746092729270674E-012
   39.2350000000000         3.766934581861658E-012
   39.4250000000000         3.787003842283296E-012
   39.6150000000000         3.806083564799885E-012
   39.8050000000000         3.824031214865038E-012
   39.9950000000000         3.840945931966743E-012
   40.1850000000000         3.856889428296594E-012
   40.3750000000000         3.872204419684966E-012
   40.5650000000000         3.887202318119744E-012
   40.7550000000000         3.901526083852029E-012
   40.9450000000000         3.914300836497868E-012
   41.1350000000000         3.924228367259437E-012
   41.3250000000000         3.930593757137047E-012
   41.5150000000000         3.933981274943043E-012
   41.7050000000000         3.935635184239450E-012
   41.8950000000000         3.936537059722159E-012
   42.0850000000000         3.937430257319533E-012
   42.2750000000000         3.938942871583698E-012
   42.4650000000000         3.941628762721651E-012
   42.6550000000000         3.945899954414147E-012
   42.8450000000000         3.952091217536045E-012
   43.0350000000000         3.960428958542897E-012
   43.2250000000000         3.970694245248282E-012
   43.4150000000000         3.982991686342876E-012
   43.6050000000000         3.996859926916285E-012
   43.7950000000000         4.011625637102727E-012
   43.9850000000000         4.027340281256448E-012
   44.1750000000000         4.044100627873616E-012
   44.3650000000000         4.062360913714662E-012
   44.5550000000000         4.082631686738143E-012
   44.7450000000000         4.104931813117148E-012
   44.9350000000000         4.128356332017614E-012
   45.1250000000000         4.151710130648463E-012
   45.3150000000000         4.174333589861126E-012
   45.5050000000000         4.196105011316020E-012
   45.6950000000000         4.217224813380646E-012
   45.8850000000000         4.238000214326068E-012
   46.0750000000000         4.258720707082708E-012
   46.2650000000000         4.279544582109013E-012
   46.4550000000000         4.300471412085991E-012
   46.6450000000000         4.321438902306627E-012
   46.8350000000000         4.342499544168730E-012
   47.0250000000000         4.363931628969610E-012
   47.2150000000000         4.385954026727601E-012
   47.4050000000000         4.408392517793333E-012
   47.5950000000000         4.430897592470575E-012
   47.7850000000000         4.453186216364381E-012
   47.9750000000000         4.475005537812924E-012
   48.1650000000000         4.496207683906952E-012
   48.3550000000000         4.516656184089210E-012
   48.5450000000000         4.536287128527076E-012
   48.7350000000000         4.555112735212035E-012
   48.9250000000000         4.573187504090431E-012
   49.1150000000000         4.590570430990785E-012
   49.3050000000000         4.606866772315977E-012
   49.4950000000000         4.621504847122743E-012
   49.6850000000000         4.634775225121913E-012
   49.8750000000000         4.647745671257566E-012
   50.0650000000000         4.661317044479360E-012
   50.2550000000000         4.676093157475489E-012
   50.4450000000000         4.692399080078248E-012
   50.6350000000000         4.709991926911143E-012
   50.8250000000000         4.728846463085644E-012
   51.0150000000000         4.748625991130142E-012
   51.2050000000000         4.768799475887346E-012
   51.3950000000000         4.789494464914665E-012
   51.5850000000000         4.810677645661208E-012
   51.7750000000000         4.831461839651736E-012
   51.9650000000000         4.850202502044685E-012
   52.1550000000000         4.865739091967846E-012
   52.3450000000000         4.877809263250407E-012
   52.5350000000000         4.886318700845811E-012
   52.7250000000000         4.891377597221821E-012
   52.9150000000000         4.893575815809598E-012
   53.1050000000000         4.893229799415935E-012
   53.2950000000000         4.890594079463135E-012
   53.4850000000000         4.886127850390962E-012
   53.6750000000000         4.880404237685451E-012
   53.8650000000000         4.874750577145034E-012
   54.0550000000000         4.870753501023943E-012
   54.2450000000000         4.869608771287688E-012
   54.4350000000000         4.872233733098571E-012
   54.6250000000000         4.879012755543299E-012
   54.8150000000000         4.889952645280587E-012
   55.0050000000000         4.904867325341238E-012
   55.1950000000000         4.922998596005087E-012
   55.3850000000000         4.943883667459585E-012
   55.5750000000000         4.966987621939808E-012
   55.7650000000000         4.991681918966455E-012
   55.9550000000000         5.018162334330688E-012
   56.1450000000000         5.046726490214213E-012
   56.3350000000000         5.076959114943702E-012
   56.5250000000000         5.107659757208089E-012
   56.7150000000000         5.137745291246144E-012
   56.9050000000000         5.166505124248301E-012
   57.0950000000000         5.193522886064330E-012
   57.2850000000000         5.218781522379622E-012
   57.4750000000000         5.242307161722121E-012
   57.6650000000000         5.263958785869016E-012
   57.8550000000000         5.283933283653861E-012
   58.0450000000000         5.302840941181231E-012
   58.2350000000000         5.321109613725447E-012
   58.4250000000000         5.338842637687897E-012
   58.6150000000000         5.356171930544027E-012
   58.8050000000000         5.373266243187646E-012
   58.9950000000000         5.390197552412358E-012
   59.1850000000000         5.407001326156178E-012
   59.3750000000000         5.423692081503943E-012
   59.5650000000000         5.440253901698688E-012
   59.7550000000000         5.456693727394210E-012
   59.9450000000000         5.473055067742645E-012
   60.1350000000000         5.489396119545819E-012
   60.3250000000000         5.505700010383681E-012
   60.5150000000000         5.521705823356294E-012
   60.7050000000000         5.536983576425945E-012
   60.8950000000000         5.551068287335908E-012
   61.0850000000000         5.563706643738995E-012
   61.2750000000000         5.574893112504614E-012
   61.4650000000000         5.584656953226197E-012
   61.6550000000000         5.593127736848705E-012
   61.8450000000000         5.600460506966929E-012
   62.0350000000000         5.606814357139052E-012
   62.2250000000000         5.612403614992403E-012
   62.4150000000000         5.617298308011973E-012
   62.6050000000000         5.621469082512901E-012
   62.7950000000000         5.625170262307988E-012
   62.9850000000000         5.628461314132859E-012
   63.1750000000000         5.630981367442637E-012
   63.3650000000000         5.632360812215992E-012
   63.5550000000000         5.632243978247409E-012
   63.7450000000000         5.630514711980483E-012
   63.9350000000000         5.627520912247007E-012
   64.1250000000000         5.623903991654329E-012
   64.3150000000000         5.620336395189871E-012
   64.5050000000000         5.617414945280263E-012
   64.6950000000000         5.615723752508937E-012
   64.8850000000000         5.615511672091848E-012
   65.0750000000000         5.616837247232446E-012
   65.2650000000000         5.620039784904402E-012
   65.4550000000000         5.625273666515273E-012
   65.6450000000000         5.632522295966903E-012
   65.8350000000000         5.641956305165626E-012
   66.0250000000000         5.653603063239217E-012
   66.2150000000000         5.667297833205756E-012
   66.4050000000000         5.683015983731867E-012
   66.5950000000000         5.700161728300527E-012
   66.7850000000000         5.718549231138517E-012
   66.9750000000000         5.738231449937080E-012
   67.1650000000000         5.758866707061912E-012
   67.3550000000000         5.780544681814117E-012
   67.5450000000000         5.803364919352430E-012
   67.7350000000000         5.827364598769999E-012
   67.9250000000000         5.852295659358911E-012
   68.1150000000000         5.877585771509869E-012
   68.3050000000000         5.902539430032834E-012
   68.4950000000000         5.926538132313473E-012
   68.6850000000000         5.949213615163321E-012
   68.8750000000000         5.970448616262447E-012
   69.0650000000000         5.990253623872249E-012
   69.2550000000000         6.008729906562050E-012
   69.4450000000000         6.026096600144448E-012
   69.6350000000000         6.042713043309623E-012
   69.8250000000000         6.058978293302130E-012
   70.0150000000000         6.075207168275266E-012
   70.2050000000000         6.091639904822688E-012
   70.3950000000000         6.108460637079403E-012
   70.5850000000000         6.125701366902033E-012
   70.7750000000000         6.143204293145985E-012
   70.9650000000000         6.160633819000635E-012
   71.1550000000000         6.177480559582264E-012
   71.3450000000000         6.193352024066477E-012
   71.5350000000000         6.207919672574237E-012
   71.7250000000000         6.221298679556059E-012
   71.9150000000000         6.233689804121722E-012
   72.1050000000000         6.245465747399366E-012
   72.2950000000000         6.257254503637993E-012
   72.4850000000000         6.269294607687311E-012
   72.6750000000000         6.281767384937766E-012
   72.8650000000000         6.294354418984383E-012
   73.0550000000000         6.306341786997842E-012
   73.2450000000000         6.316915961351849E-012
   73.4350000000000         6.324982581065053E-012
   73.6250000000000         6.329608862284272E-012
   73.8150000000000         6.330796705675403E-012
   74.0050000000000         6.329327127319948E-012
   74.1950000000000         6.326291315665427E-012
   74.3850000000000         6.322818371745916E-012
   74.5750000000000         6.319779291659338E-012
   74.7650000000000         6.317806469406310E-012
   74.9550000000000         6.317256374306846E-012
   75.1450000000000         6.318246630451540E-012
   75.3350000000000         6.320342543056463E-012
   75.5250000000000         6.323606075828150E-012
   75.7150000000000         6.327858952041377E-012
   75.9050000000000         6.332571868381215E-012
   76.0950000000000         6.338214575953950E-012
   76.2850000000000         6.345761087470039E-012
   76.4750000000000         6.356274799986584E-012
   76.6650000000000         6.369888680603054E-012
   76.8550000000000         6.385706039489067E-012
   77.0450000000000         6.403006092112485E-012
   77.2350000000000         6.422011723850802E-012
   77.4250000000000         6.443234502864531E-012
   77.6150000000000         6.466640382478459E-012
   77.8050000000000         6.491331834779967E-012
   77.9950000000000         6.516226949045401E-012
   78.1850000000000         6.540620971323386E-012
   78.3750000000000         6.564104047603183E-012
   78.5650000000000         6.586538443262029E-012
   78.7550000000000         6.607863844499722E-012
   78.9450000000000         6.628344411526035E-012
   79.1350000000000         6.648043150563648E-012
   79.3250000000000         6.666802019820645E-012
   79.5150000000000         6.684524609947383E-012
   79.7050000000000         6.700745343852754E-012
   79.8950000000000         6.714913535602895E-012
   80.0850000000000         6.726817646325309E-012
   80.2750000000000         6.736986301745417E-012
   80.4650000000000         6.746304539289383E-012
   80.6550000000000         6.755372375023113E-012
   80.8450000000000         6.764393209904371E-012
   81.0350000000000         6.773262513593705E-012
   81.2250000000000         6.781677237746370E-012
   81.4150000000000         6.789265812177068E-012
   81.6050000000000         6.795681000868475E-012
   81.7950000000000         6.800802601827339E-012
   81.9850000000000         6.804685497256708E-012
   82.1750000000000         6.807565969852676E-012
   82.3650000000000         6.809799526699387E-012
   82.5550000000000         6.811545174901429E-012
   82.7450000000000         6.812821522633479E-012
   82.9350000000000         6.813787883128648E-012
   83.1250000000000         6.814662810797431E-012
   83.3150000000000         6.815506812924926E-012
   83.5050000000000         6.816239987274146E-012
   83.6950000000000         6.816762239679778E-012
   83.8850000000000         6.817007185066626E-012
   84.0750000000000         6.816934402811641E-012
   84.2650000000000         6.816584470490845E-012
   84.4550000000000         6.816070972455356E-012
   84.6450000000000         6.815562751011428E-012
   84.8350000000000         6.815251735555113E-012
   85.0250000000000         6.815378991531998E-012
   85.2150000000000         6.816292010532518E-012
   85.4050000000000         6.818427687292411E-012
   85.5950000000000         6.822189799292233E-012
   85.7850000000000         6.827624584196985E-012
   85.9750000000000         6.834407190616093E-012
   86.1650000000000         6.842210531913398E-012
   86.3550000000000         6.850878587718835E-012
   86.5450000000000         6.860456590653763E-012
   86.7350000000000         6.871126114688964E-012
   86.9250000000000         6.883040092610533E-012
   87.1150000000000         6.896267342309118E-012
   87.3050000000000         6.910846455987071E-012
   87.4950000000000         6.926821706136603E-012
   87.6850000000000         6.944162671124377E-012
   87.8750000000000         6.962616346327307E-012
   88.0650000000000         6.981998249152989E-012
   88.2550000000000         7.002208962238258E-012
   88.4450000000000         7.023214807830770E-012
   88.6350000000000         7.045107141335688E-012
   88.8250000000000         7.067964477524409E-012
   89.0150000000000         7.091720579954301E-012
   89.2050000000000         7.115789084537127E-012
   89.3950000000000         7.138940907808227E-012
   89.5850000000000         7.159710638845938E-012
   89.7750000000000         7.177426964547734E-012
   89.9650000000000         7.192134457508829E-012
   90.1550000000000         7.203926519554982E-012
   90.3450000000000         7.213208790349174E-012
   90.5350000000000         7.220613771404067E-012
   90.7250000000000         7.226767901768365E-012
   90.9150000000000         7.232292534985742E-012
   91.1050000000000         7.237668054772333E-012
   91.2950000000000         7.243150822145680E-012
   91.4850000000000         7.248774927094918E-012
   91.6750000000000         7.254485814178340E-012
   91.8650000000000         7.260229559595591E-012
   92.0550000000000         7.265944874667862E-012
   92.2450000000000         7.271537832263684E-012
   92.4350000000000         7.277010741823301E-012
   92.6250000000000         7.282597674506009E-012
   92.8150000000000         7.288569669222635E-012
   93.0050000000000         7.295101037845230E-012
   93.1950000000000         7.302164061597404E-012
   93.3850000000000         7.309272434111513E-012
   93.5750000000000         7.315365819684263E-012
   93.7650000000000         7.319342314154831E-012
   93.9550000000000         7.320724667729331E-012
   94.1450000000000         7.319438696044939E-012
   94.3350000000000         7.315599465189348E-012
   94.5250000000000         7.309584071460397E-012
   94.7150000000000         7.301926537689453E-012
   94.9050000000000         7.293148769795716E-012
   95.0950000000000         7.283830286421526E-012
   95.2850000000000         7.274431862108155E-012
   95.4750000000000         7.265118926516049E-012
   95.6650000000000         7.256131904747648E-012
   95.8550000000000         7.247461171291941E-012
   96.0450000000000         7.239036293752925E-012
   96.2350000000000         7.231191133783975E-012
   96.4250000000000         7.224561684189274E-012
   96.6150000000000         7.220078976385942E-012
   96.8050000000000         7.218640247831593E-012
   96.9950000000000         7.220640887283582E-012
   97.1850000000000         7.225806526589807E-012
   97.3750000000000         7.233203529456280E-012
   97.5650000000000         7.242186117917825E-012
   97.7550000000000         7.252624344690590E-012
   97.9450000000000         7.264318889436234E-012
   98.1350000000000         7.277194039729421E-012
   98.3250000000000         7.291113565333812E-012
   98.5150000000000         7.305832865459754E-012
   98.7050000000000         7.321106916804741E-012
   98.8950000000000         7.336709497193506E-012
   99.0850000000000         7.352416755548726E-012
   99.2750000000000         7.367828087054264E-012
   99.4650000000000         7.382133712988636E-012
   99.6550000000000         7.394606917949024E-012
   99.8450000000000         7.404821486527893E-012
   100.035000000000         7.412495761211598E-012
   100.225000000000         7.417611159581930E-012
   100.415000000000         7.420403799093920E-012
   100.605000000000         7.421317731997568E-012
   100.795000000000         7.420976582117822E-012
   100.985000000000         7.419964618830528E-012
   101.175000000000         7.418846399519747E-012
   101.365000000000         7.417928837651762E-012
   101.555000000000         7.417228924370605E-012
   101.745000000000         7.416651846657623E-012
   101.935000000000         7.415879620481132E-012
   102.125000000000         7.414767352485919E-012
   102.315000000000         7.413505411004605E-012
   102.505000000000         7.412337238746882E-012
   102.695000000000         7.411391084630324E-012
   102.885000000000         7.410787352053084E-012
   103.075000000000         7.410585428539040E-012
   103.265000000000         7.410769147344584E-012
   103.455000000000         7.411205809806740E-012
   103.645000000000         7.411664604990240E-012
   103.835000000000         7.411883853312860E-012
   104.025000000000         7.411600130827703E-012
   104.215000000000         7.410758059099583E-012
   104.405000000000         7.409438925404514E-012
   104.595000000000         7.407666418427954E-012
   104.785000000000         7.405358857015433E-012
   104.975000000000         7.402233701559068E-012
   105.165000000000         7.398007096585167E-012
   105.355000000000         7.392631446564349E-012
   105.545000000000         7.386191696649219E-012
   105.735000000000         7.378778443294991E-012
   105.925000000000         7.370559608596398E-012
   106.115000000000         7.361790760209810E-012
   106.305000000000         7.352737331951728E-012
   106.495000000000         7.343667006571777E-012
   106.685000000000         7.334960202639445E-012
   106.875000000000         7.326859861315855E-012
   107.065000000000         7.319613482635949E-012
   107.255000000000         7.313553822981682E-012
   107.445000000000         7.308805531882614E-012
   107.635000000000         7.305347067597199E-012
   107.825000000000         7.302973697919226E-012
   108.015000000000         7.301370344097768E-012
   108.205000000000         7.300367504736921E-012
   108.395000000000         7.300340231472404E-012
   108.585000000000         7.302137015178048E-012
   108.775000000000         7.306258843115415E-012
   108.965000000000         7.312873657897163E-012
   109.155000000000         7.321368307088659E-012
   109.345000000000         7.331551647646940E-012
   109.535000000000         7.343406126165483E-012
   109.725000000000         7.356305739345802E-012
   109.915000000000         7.370062967309902E-012
   110.105000000000         7.384384090932127E-012