  -1.42500000000000         0.000000000000000E+000
  -1.23500000000000         1.436862705140115E-020
  -1.04500000000000         7.356730126316892E-020
 -0.855000000000000         3.685219915093638E-019
 -0.665000000000000         1.748230718821722E-018
 -0.475000000000000         7.435538931056148E-018
 -0.285000000000000         2.678069886426025E-017
 -9.499999999999975E-002    8.442019786791090E-017
  9.500000000000020E-002    2.334202457855976E-016
  0.285000000000000         5.734187357072134E-016
  0.475000000000000         1.258247610823962E-015
  0.665000000000000         2.492407280993874E-015
  0.855000000000000         4.539203524830816E-015
   1.04500000000000         7.698985598798881E-015
   1.23500000000000         1.229309236489833E-014
   1.42500000000000         1.862647174958410E-014
   1.61500000000000         2.693073491154523E-014
   1.80500000000000         3.749930542366632E-014
   1.99500000000000         5.068825337223534E-014
   2.18500000000000         6.682668690549541E-014
   2.37500000000000         8.624979695184305E-014
   2.56500000000000         1.092805524077326E-013
   2.75500000000000         1.361928605248878E-013
   2.94500000000000         1.672115182574888E-013
   3.13500000000000         2.025084570315432E-013
   3.32500000000000         2.421795403403731E-013
   3.51500000000000         2.862529253809438E-013
   3.70500000000000         3.347756079817856E-013
   3.89500000000000         3.877574747979001E-013
   4.08500000000000         4.452028969967930E-013
   4.27500000000000         5.071103493401120E-013
   4.46500000000000         5.734721693342771E-013
   4.65500000000000         6.442628408324373E-013
   4.84500000000000         7.194246769266644E-013
   5.03500000000000         7.988549514614096E-013
   5.22500000000000         8.824219277527172E-013
   5.41500000000000         9.700958031603409E-013
   5.60500000000000         1.061745975594458E-012
   5.79500000000000         1.157282729714660E-012
   5.98500000000000         1.256667038562474E-012
   6.17500000000000         1.359934345352944E-012
   6.36500000000000         1.467203831219809E-012
   6.55500000000000         1.578687847757333E-012
   6.74500000000000         1.694619975042414E-012
   6.93500000000000         1.815228720974522E-012
   7.12500000000000         1.940782404579964E-012
   7.31500000000000         2.071627895446058E-012
   7.50500000000000         2.208019821832916E-012
   7.69500000000000         2.350120756602712E-012
   7.88500000000000         2.497992941228588E-012
   8.07500000000000         2.651615453222568E-012
   8.26500000000000         2.810876283639080E-012
   8.45500000000000         2.975636647245449E-012
   8.64500000000000         3.145726120750730E-012
   8.83500000000000         3.320895207392467E-012
   9.02500000000000         3.500858136793555E-012
   9.21500000000000         3.685062427776719E-012
   9.40500000000000         3.872684441000389E-012
   9.59500000000000         4.062921567299001E-012
   9.78500000000000         4.255133347442167E-012
   9.97500000000000         4.448923903373432E-012
   10.1650000000000         4.643941789397599E-012
   10.3550000000000         4.839937570211560E-012
   10.5450000000000         5.036774833876182E-012
   10.7350000000000         5.234366388256073E-012
   10.9250000000000         5.432699124743780E-012
   11.1150000000000         5.631766879912766E-012
   11.3050000000000         5.831561501106598E-012
   11.4950000000000         6.032083078046944E-012
   11.6850000000000         6.233383267215367E-012
   11.8750000000000         6.435611540541727E-012
   12.0650000000000         6.639005272872770E-012
   12.2550000000000         6.843845564769571E-012
   12.4450000000000         7.050419876250855E-012
   12.6350000000000         7.259073052289339E-012
   12.8250000000000         7.469884120858982E-012
   13.0150000000000         7.683119756575878E-012
   13.2050000000000         7.898979793246084E-012
   13.3950000000000         8.117620323796398E-012
   13.5850000000000         8.339185642870015E-012
   13.7750000000000         8.563759398406562E-012
   13.9650000000000         8.791371464616845E-012
   14.1550000000000         9.022033381980073E-012
   14.3450000000000         9.255749802866818E-012
   14.5350000000000         9.492539445078820E-012
   14.7250000000000         9.732419569136810E-012
   14.9150000000000         9.975444331206304E-012
   15.1050000000000         1.022177176340338E-011
   15.2950000000000         1.047177493958167E-011
   15.4850000000000         1.072595358883103E-011
   15.6750000000000         1.098484449631640E-011
   15.8650000000000         1.124886278753182E-011
   16.0550000000000         1.151837585888917E-011
   16.2450000000000         1.179372421562389E-011
   16.4350000000000         1.207512602558538E-011
   16.6250000000000         1.236268883478452E-011
   16.8150000000000         1.265644794983618E-011
   17.0050000000000         1.295637765676450E-011
   17.1950000000000         1.326246314714149E-011
   17.3850000000000         1.357462458443038E-011
   17.5750000000000         1.389282863050161E-011
   17.7650000000000         1.421692087741333E-011
   17.9550000000000         1.454684248028671E-011
   18.1450000000000         1.488250166359845E-011
   18.3350000000000         1.522382119761418E-011
   18.5250000000000         1.557072031612890E-011
   18.7150000000000         1.592309093053373E-011
   18.9050000000000         1.628069137290077E-011
   19.0950000000000         1.664316129640980E-011
   19.2850000000000         1.701008165573691E-011
   19.4750000000000         1.738105233111067E-011
   19.6650000000000         1.775574774298118E-011
   19.8550000000000         1.813391325057306E-011
   20.0450000000000         1.851531408689923E-011
   20.2350000000000         1.889972672911827E-011
   20.4250000000000         1.928693173187651E-011
   20.6150000000000         1.967669629581074E-011
   20.8050000000000         2.006873888140164E-011
   20.9950000000000         2.046274999741833E-011
   21.1850000000000         2.085841869842979E-011
   21.3750000000000         2.125566891920682E-011
   21.5650000000000         2.165414221864410E-011
   21.7550000000000         2.205375857944337E-011
   21.9450000000000         2.245434065622774E-011
   22.1350000000000         2.285563971531115E-011
   22.3250000000000         2.325739950691761E-011
   22.5150000000000         2.365946413360407E-011
   22.7050000000000         2.406196075650380E-011
   22.8950000000000         2.446521387984581E-011
   23.0850000000000         2.486968312715285E-011
   23.2750000000000         2.527590551096818E-011
   23.4650000000000         2.568444849940732E-011
   23.6550000000000         2.609580743900305E-011
   23.8450000000000         2.651058089926914E-011
   24.0350000000000         2.692942645141669E-011
   24.2250000000000         2.735291547792154E-011
   24.4150000000000         2.778155933184759E-011
   24.6050000000000         2.821579137987507E-011
   24.7950000000000         2.865599777130352E-011
   24.9850000000000         2.910234353559482E-011
   25.1750000000000         2.955491302641194E-011
   25.3650000000000         3.001368242970420E-011
   25.5550000000000         3.047854513129259E-011
   25.7450000000000         3.094936470124692E-011
   25.9350000000000         3.142587954279176E-011
   26.1250000000000         3.190780671569313E-011
   26.3150000000000         3.239494343853468E-011
   26.5050000000000         3.288712842750865E-011
   26.6950000000000         3.338419205572492E-011
   26.8850000000000         3.388599110345783E-011
   27.0750000000000         3.439239486494608E-011
   27.2650000000000         3.490328122045661E-011
   27.4550000000000         3.541858849066798E-011
   27.6450000000000         3.593834976319060E-011
   27.8350000000000         3.646265592645431E-011
   28.0250000000000         3.699153414008509E-011
   28.2150000000000         3.752513045615531E-011
   28.4050000000000         3.806355996447831E-011
   28.5950000000000         3.860693786692612E-011
   28.7850000000000         3.915532531718692E-011
   28.9750000000000         3.970862903920764E-011
   29.1650000000000         4.026653886826081E-011
   29.3550000000000         4.082857712142782E-011
   29.5450000000000         4.139411721467749E-011
   29.7350000000000         4.196249076851524E-011
   29.9250000000000         4.253303370124489E-011
   30.1150000000000         4.310507341035876E-011
   30.3050000000000         4.367802896460752E-011
   30.4950000000000         4.425142631892503E-011
   30.6850000000000         4.482503239778998E-011
   30.8750000000000         4.539863060761082E-011
   31.0650000000000         4.597194815228291E-011
   31.2550000000000         4.654461560573133E-011
   31.4450000000000         4.711656004539384E-011
   31.6350000000000         4.768789971835254E-011
   31.8250000000000         4.825888668937646E-011
   32.0150000000000         4.882981985803771E-011
   32.2050000000000         4.940102421711504E-011
   32.3950000000000         4.997283551128737E-011
   32.5850000000000         5.054558612603362E-011
   32.7750000000000         5.111959230461639E-011
   32.9650000000000         5.169513128297278E-011
   33.1550000000000         5.227242073350237E-011
   33.3450000000000         5.285156581701767E-011
   33.5350000000000         5.343272698718551E-011
   33.7250000000000         5.401614441029729E-011
   33.9150000000000         5.460217750300390E-011
   34.1050000000000         5.519130543682020E-011
   34.2950000000000         5.578402408968175E-011
   34.4850000000000         5.638073513388957E-011
   34.6750000000000         5.698167367938330E-011
   34.8650000000000         5.758706756855665E-011
   35.0550000000000         5.819712887753612E-011
   35.2450000000000         5.881205259664800E-011
   35.4350000000000         5.943204131840633E-011
   35.6250000000000         6.005724818277482E-011
   35.8150000000000         6.068774689730926E-011
   36.0050000000000         6.132353901993688E-011
   36.1950000000000         6.196457001905456E-011
   36.3850000000000         6.261073956010401E-011
   36.5750000000000         6.326201501209745E-011
   36.7650000000000         6.391829406719970E-011
   36.9550000000000         6.457953113159826E-011
   37.1450000000000         6.524560460079577E-011
   37.3350000000000         6.591637621147440E-011
   37.5250000000000         6.659172155396701E-011
   37.7150000000000         6.727154710299653E-011
   37.9050000000000         6.795577927146286E-011
   38.0950000000000         6.864436610653854E-011
   38.2850000000000         6.933728965296186E-011
   38.4750000000000         7.003451248451784E-011
   38.6650000000000         7.073597388195018E-011
   38.8550000000000         7.144161559794825E-011
   39.0450000000000         7.215136273421786E-011
   39.2350000000000         7.286513083507108E-011
   39.4250000000000         7.358279787532525E-011
   39.6150000000000         7.430419229513876E-011
   39.8050000000000         7.502910962994924E-011
   39.9950000000000         7.575732415678747E-011
   40.1850000000000         7.648866908409660E-011
   40.3750000000000         7.722294213954017E-011
   40.5650000000000         7.796010676357689E-011
   40.7550000000000         7.870007902042567E-011
   40.9450000000000         7.944268667544064E-011
   41.1350000000000         8.018751333829484E-011
   41.3250000000000         8.093389345499922E-011
   41.5150000000000         8.168113896600692E-011
   41.7050000000000         8.242880633947756E-011
   41.8950000000000         8.317668033601790E-011
   42.0850000000000         8.392469042217198E-011
   42.2750000000000         8.467290383379932E-011
   42.4650000000000         8.542148871337379E-011
   42.6550000000000         8.617072276363357E-011
   42.8450000000000         8.692093069605119E-011
   43.0350000000000         8.767251742629727E-011
   43.2250000000000         8.842589370029743E-011
   43.4150000000000         8.918138123949161E-011
   43.6050000000000         8.993943054110774E-011
   43.7950000000000         9.070018801171979E-011
   43.9850000000000         9.146384828320676E-011
   44.1750000000000         9.223057731859721E-011
   44.3650000000000         9.300060652179878E-011
   44.5550000000000         9.377427446580880E-011
   44.7450000000000         9.455200656275930E-011
   44.9350000000000         9.533414855479332E-011
   45.1250000000000         9.612078196892598E-011
   45.3150000000000         9.691179840443976E-011
   45.5050000000000         9.770702873307317E-011
   45.6950000000000         9.850631830873982E-011
   45.8850000000000         9.930957416215783E-011
   46.0750000000000         1.001167583901837E-010
   46.2650000000000         1.009278880308493E-010
   46.4550000000000         1.017429853313852E-010
   46.6450000000000         1.025620671674419E-010
   46.8350000000000         1.033851321142617E-010
   47.0250000000000         1.042122169942260E-010
   47.2150000000000         1.050434261332701E-010
   47.4050000000000         1.058788795243825E-010
   47.5950000000000         1.067186152900316E-010
   47.7850000000000         1.075626206095213E-010
   47.9750000000000         1.084108260522501E-010
   48.1650000000000         1.092631227138903E-010
   48.3550000000000         1.101193849721347E-010
   48.5450000000000         1.109794520638441E-010
   48.7350000000000         1.118431740809749E-010
   48.9250000000000         1.127103949032247E-010
   49.1150000000000         1.135809853325293E-010
   49.3050000000000         1.144548116670012E-010
   49.4950000000000         1.153315947060093E-010
   49.6850000000000         1.162109835089078E-010
   49.8750000000000         1.170928092915557E-010
   50.0650000000000         1.179771268639857E-010
   50.2550000000000         1.188641097684578E-010
   50.4450000000000         1.197540422638264E-010
   50.6350000000000         1.206472214188876E-010
   50.8250000000000         1.215438391960527E-010
   51.0150000000000         1.224441830748601E-010
   51.2050000000000         1.233483170726821E-010
   51.3950000000000         1.242563268756973E-010
   51.5850000000000         1.251683249693497E-010
   51.7750000000000         1.260843843810486E-010
   51.9650000000000         1.270042804684173E-010
   52.1550000000000         1.279274613318256E-010
   52.3450000000000         1.288532613233652E-010
   52.5350000000000         1.297810288518608E-010
   52.7250000000000         1.307100624296865E-010
   52.9150000000000         1.316397523388051E-010
   53.1050000000000         1.325696212396942E-010
   53.2950000000000         1.334991796625831E-010
   53.4850000000000         1.344280469898902E-010
   53.6750000000000         1.353559082457317E-010
   53.8650000000000         1.362826006002106E-010
   54.0550000000000         1.372083134650468E-010
   54.2450000000000         1.381334869305997E-010
   54.4350000000000         1.390587647981361E-010
   54.6250000000000         1.399849357491772E-010
   54.8150000000000         1.409127896452426E-010
   55.0050000000000         1.418431177543838E-010
   55.1950000000000         1.427766392288722E-010
   55.3850000000000         1.437138572208658E-010
   55.5750000000000         1.446553150225069E-010
   55.7650000000000         1.456013125172030E-010
   55.9550000000000         1.465521541517142E-010
   56.1450000000000         1.475082142042486E-010
   56.3350000000000         1.484699102179956E-010
   56.5250000000000         1.494374586679272E-010
   56.7150000000000         1.504108209257346E-010
   56.9050000000000         1.513898018786007E-010
   57.0950000000000         1.523740928729490E-010
   57.2850000000000         1.533633405753052E-010
   57.4750000000000         1.543572298514533E-010
   57.6650000000000         1.553554172967596E-010
   57.8550000000000         1.563575341900835E-010
   58.0450000000000         1.573633119445481E-010
   58.2350000000000         1.583726137477324E-010
   58.4250000000000         1.593853335977638E-010
   58.6150000000000         1.604013739500537E-010
   58.8050000000000         1.614206789313705E-010
   58.9950000000000         1.624432151224651E-010
   59.1850000000000         1.634689540012872E-010
   59.3750000000000         1.644978756264044E-010
   59.5650000000000         1.655299569922587E-010
   59.7550000000000         1.665651721090499E-010
   59.9450000000000         1.676035006086685E-010
   60.1350000000000         1.686449330347921E-010
   60.3250000000000         1.696894711340959E-010
   60.5150000000000         1.707370990387379E-010
   60.7050000000000         1.717877193469713E-010
   60.8950000000000         1.728411527977797E-010
   61.0850000000000         1.738971252961589E-010
   61.2750000000000         1.749553613224006E-010
   61.4650000000000         1.760155846789106E-010
   61.6550000000000         1.770775309646264E-010
   61.8450000000000         1.781409732189131E-010
   62.0350000000000         1.792057059572739E-010
   62.2250000000000         1.802715626746260E-010
   62.4150000000000         1.813384193309711E-010
   62.6050000000000         1.824061360316705E-010
   62.7950000000000         1.834745775823259E-010
   62.9850000000000         1.845437007313475E-010
   63.1750000000000         1.856133928816965E-010
   63.3650000000000         1.866834736509758E-010
   63.5550000000000         1.877536899903385E-010
   63.7450000000000         1.888237263627099E-010
   63.9350000000000         1.898932855808911E-010
   64.1250000000000         1.909621843093636E-010
   64.3150000000000         1.920303690977198E-010
   64.5050000000000         1.930979121395358E-010
   64.6950000000000         1.941649867769263E-010
   64.8850000000000         1.952318871654892E-010
   65.0750000000000         1.962988812123212E-010
   65.2650000000000         1.973662853194375E-010
   65.4550000000000         1.984344963305848E-010
   65.6450000000000         1.995038893127133E-010
   65.8350000000000         2.005748548030522E-010
   66.0250000000000         2.016478327086763E-010
   66.2150000000000         2.027232239670832E-010
   66.4050000000000         2.038014058852944E-010
   66.5950000000000         2.048827700409012E-010
   66.7850000000000         2.059674673420486E-010
   66.9750000000000         2.070558187487338E-010
   67.1650000000000         2.081479952930248E-010
   67.3550000000000         2.092441880974174E-010
   67.5450000000000         2.103446022721141E-010
   67.7350000000000         2.114494667667713E-010
   67.9250000000000         2.125590008196467E-010
   68.1150000000000         2.136733391173277E-010
   68.3050000000000         2.147924834128204E-010
   68.4950000000000         2.159163041007402E-010
   68.6850000000000         2.170445679030995E-010
   68.8750000000000         2.181770052745022E-010
   69.0650000000000         2.193133383772792E-010
   69.2550000000000         2.204533016515736E-010
   69.4450000000000         2.215966557417727E-010
   69.6350000000000         2.227432183596285E-010
   69.8250000000000         2.238928866982304E-010
   70.0150000000000         2.250456301110833E-010
   70.2050000000000         2.262014654221750E-010
   70.3950000000000         2.273604532749159E-010
   70.5850000000000         2.285226804642651E-010
   70.7750000000000         2.296882197943387E-010
   70.9650000000000         2.308570980956607E-010
   71.1550000000000         2.320292606455589E-010
   71.3450000000000         2.332045407083019E-010
   71.5350000000000         2.343827344147042E-010
   71.7250000000000         2.355635501838801E-010
   71.9150000000000         2.367468279129355E-010
   72.1050000000000         2.379323523094464E-010
   72.2950000000000         2.391201048969473E-010
   72.4850000000000         2.403101090208289E-010
   72.6750000000000         2.415024368478685E-010
   72.8650000000000         2.426971806271052E-010
   73.0550000000000         2.438942915270825E-010
   73.2450000000000         2.450935905061644E-010
   73.4350000000000         2.462947195923962E-010
   73.6250000000000         2.474970838869691E-010
   73.8150000000000         2.486999709600643E-010
   74.0050000000000         2.499027866351258E-010
   74.1950000000000         2.511051152684458E-010
   74.3850000000000         2.523067773350787E-010
   74.5750000000000         2.535077862497093E-010
   74.7650000000000         2.547082934659092E-010
   74.9550000000000         2.559085527080838E-010
   75.1450000000000         2.571088508881458E-010
   75.3350000000000         2.583094864276553E-010
   75.5250000000000         2.595105810545072E-010
   75.7150000000000         2.607124567364700E-010
   75.9050000000000         2.619151674562830E-010
   76.0950000000000         2.631188340464549E-010
   76.2850000000000         2.643236889951455E-010
   76.4750000000000         2.655302232596936E-010
   76.6650000000000         2.667390734191404E-010
   76.8550000000000         2.679507809583228E-010
   77.0450000000000         2.691656417141464E-010
   77.2350000000000         2.703839232733255E-010
   77.4250000000000         2.716060061692097E-010
   77.6150000000000         2.728323523844140E-010
   77.8050000000000         2.740633295145515E-010
   77.9950000000000         2.752990584816304E-010
   78.1850000000000         2.765394957551886E-010
   78.3750000000000         2.777844944507332E-010
   78.5650000000000         2.790338552932778E-010
   78.7550000000000         2.802873790591727E-010
   78.9450000000000         2.815448435541877E-010
   79.1350000000000         2.828061499355526E-010
   79.3250000000000         2.840710999514019E-010
   79.5150000000000         2.853395347030845E-010
   79.7050000000000         2.866112193031819E-010
   79.8950000000000         2.878858179337485E-010
   80.0850000000000         2.891628864467110E-010
   80.2750000000000         2.904420086393521E-010
   80.4650000000000         2.917229412413743E-010
   80.6550000000000         2.930056043642823E-010
   80.8450000000000         2.942899827438831E-010
   81.0350000000000         2.955760737840459E-010
   81.2250000000000         2.968638224990488E-010
   81.4150000000000         2.981531111343894E-010
   81.6050000000000         2.994437435076759E-010
   81.7950000000000         3.007354699147195E-010
   81.9850000000000         3.020280484963704E-010
   82.1750000000000         3.033212504036770E-010
   82.3650000000000         3.046149235649144E-010
   82.5550000000000         3.059089742238228E-010
   82.7450000000000         3.072033107313770E-010
   82.9350000000000         3.084978464024235E-010
   83.1250000000000         3.097925501269658E-010
   83.3150000000000         3.110874182705265E-010
   83.5050000000000         3.123824427158773E-010
   83.6950000000000         3.136775894656907E-010
   83.8850000000000         3.149728123669556E-010
   84.0750000000000         3.162680521960160E-010
   84.2650000000000         3.175632474400241E-010
   84.4550000000000         3.188583542948026E-010
   84.6450000000000         3.201533544095571E-010
   84.8350000000000         3.214482681401869E-010
   85.0250000000000         3.227431500690680E-010
   85.2150000000000         3.240381121569690E-010
   85.4050000000000         3.253333410330704E-010
   85.5950000000000         3.266291146781402E-010
   85.7850000000000         3.279257731568014E-010
   85.9750000000000         3.292236120201350E-010
   86.1650000000000         3.305228478892355E-010
   86.3550000000000         3.318236520222621E-010
   86.5450000000000         3.331261817525687E-010
   86.7350000000000         3.344306255267106E-010
   86.9250000000000         3.357372096761505E-010
   87.1150000000000         3.370461807619025E-010
   87.3050000000000         3.383577912662279E-010
   87.4950000000000         3.396723024151776E-010
   87.6850000000000         3.409899835145598E-010
   87.8750000000000         3.423110842302049E-010
   88.0650000000000         3.436357777261642E-010
   88.2550000000000         3.449642435648829E-010
   88.4450000000000         3.462966171318148E-010
   88.6350000000000         3.476330651918586E-010
   88.8250000000000         3.489737578455223E-010
   89.0150000000000         3.503188916933179E-010
   89.2050000000000         3.516686116659049E-010
   89.3950000000000         3.530228915454420E-010
   89.5850000000000         3.543814092108721E-010
   89.7750000000000         3.557435815882037E-010
   89.9650000000000         3.571088314574003E-010
   90.1550000000000         3.584765926820569E-010
   90.3450000000000         3.598463235348311E-010
   90.5350000000000         3.612176120223896E-010
   90.7250000000000         3.625901567679647E-010
   90.9150000000000         3.639637838250616E-010
   91.1050000000000         3.653384279312592E-010
   91.2950000000000         3.667140976858751E-010
   91.4850000000000         3.680908252436746E-010
   91.6750000000000         3.694686321581712E-010
   91.8650000000000         3.708475298530624E-010
   92.0550000000000         3.722275193908174E-010
   92.2450000000000         3.736085889054362E-010
   92.4350000000000         3.749907037670777E-010
   92.6250000000000         3.763738529873290E-010
   92.8150000000000         3.777580908833900E-010
   93.0050000000000         3.791435094616336E-010
   93.1950000000000         3.805302292777712E-010
   93.3850000000000         3.819183318050405E-010
   93.5750000000000         3.833077528027334E-010
   93.7650000000000         3.846981708165207E-010
   93.9550000000000         3.860891028821124E-010
   94.1450000000000         3.874800461902578E-010
   94.3350000000000         3.888704895866094E-010
   94.5250000000000         3.902599739870299E-010
   94.7150000000000         3.916481315337646E-010
   94.9050000000000         3.930347060713518E-010
   95.0950000000000         3.944195280662868E-010
   95.2850000000000         3.958025615801920E-010
   95.4750000000000         3.971838121738878E-010
   95.6650000000000         3.985633067722681E-010
   95.8550000000000         3.999411422976921E-010
   96.0450000000000         4.013173420173591E-010
   96.2350000000000         4.026919760893181E-010
   96.4250000000000         4.040651946481969E-010
   96.6150000000000         4.054373095293102E-010
   96.8050000000000         4.068088246592238E-010
   96.9950000000000         4.081803928234861E-010
   97.1850000000000         4.095526681963915E-010
   97.3750000000000         4.109261993035902E-010
   97.5650000000000         4.123012855375849E-010
   97.7550000000000         4.136782300283990E-010
   97.9450000000000         4.150572827885671E-010
   98.1350000000000         4.164386712063848E-010
   98.3250000000000         4.178226165236642E-010
   98.5150000000000         4.192092943612115E-010
   98.7050000000000         4.205988330125390E-010
   98.8950000000000         4.219913149895974E-010
   99.0850000000000         4.233867826214726E-010
   99.2750000000000         4.247852333567058E-010
   99.4650000000000         4.261865572945531E-010
   99.6550000000000         4.275904441676416E-010
   99.8450000000000         4.289965079233738E-010
   100.035000000000         4.304042763325222E-010
   100.225000000000         4.318132563126342E-010
   100.415000000000         4.332229685731632E-010
   100.605000000000         4.346330097562899E-010
   100.795000000000         4.360430693113224E-010
   100.985000000000         4.374529808574948E-010
   101.175000000000         4.388626558664780E-010
   101.365000000000         4.402721424893122E-010
   101.555000000000         4.416814688247855E-010
   101.745000000000         4.430906894805729E-010
   101.935000000000         4.444997965265155E-010
   102.125000000000         4.459087237363559E-010
   102.315000000000         4.473174081204601E-010
   102.505000000000         4.487258557925377E-010
   102.695000000000         4.501340962711841E-010
   102.885000000000         4.515421844046972E-010
   103.075000000000         4.529501954649642E-010
   103.265000000000         4.543582068675421E-010
   103.455000000000         4.557662877409553E-010
   103.645000000000         4.571744650752685E-010
   103.835000000000         4.585827202908514E-010
   104.025000000000         4.599909809395276E-010
   104.215000000000         4.613991283405660E-010
   104.405000000000         4.628070690019854E-010
   104.595000000000         4.642147151322197E-010
   104.785000000000         4.656219822409880E-010
   104.975000000000         4.670287514978857E-010
   105.165000000000         4.684348310475805E-010
   105.355000000000         4.698399941945881E-010
   105.545000000000         4.712440309972749E-010
   105.735000000000         4.726467470393146E-010
   105.925000000000         4.740479668057271E-010
   106.115000000000         4.754475596905812E-010
   106.305000000000         4.768454472946068E-010
   106.495000000000         4.782415998767230E-010
   106.685000000000         4.796360407571041E-010
   106.875000000000         4.810288847537260E-010
   107.065000000000         4.824202475044041E-010
   107.255000000000         4.838103378771278E-010
   107.445000000000         4.851993979571371E-010
   107.635000000000         4.865876839792431E-010
   107.825000000000         4.879754298428241E-010
   108.015000000000         4.893628139844525E-010
   108.205000000000         4.907499505735812E-010
   108.395000000000         4.921369536362524E-010
   108.585000000000         4.935240798615409E-010
   108.775000000000         4.949117657020202E-010
   108.965000000000         4.963004582219246E-010
   109.155000000000         4.976906576920211E-010
   109.345000000000         4.990825781786184E-010
   109.535000000000         5.004766473181269E-010
   109.725000000000         5.018730725065612E-010
   109.915000000000         5.032720434990783E-010
   110.105000000000         5.046736964341390E-010