  -105.000000000000         0.000000000000000E+000
  -104.810000000000        -3.599046340788416E-011
  -104.620000000000        -1.290110685696935E-010
  -104.430000000000        -1.830537671240405E-010
  -104.240000000000        -1.337094483311346E-010
  -104.050000000000        -2.844090042106794E-011
  -103.860000000000         5.762991716788240E-012
  -103.670000000000        -1.084819864232413E-010
  -103.480000000000        -3.278825333756172E-010
  -103.290000000000        -5.043318835858117E-010
  -103.100000000000        -6.712799821507676E-010
  -102.910000000000        -6.294858974775316E-010
  -102.720000000000        -3.768134135407143E-010
  -102.530000000000         2.232171766480850E-010
  -102.340000000000         8.830006284638276E-010
  -102.150000000000         1.476855561955717E-009
  -101.960000000000         2.012463574323629E-009
  -101.770000000000         2.663385554078671E-009
  -101.580000000000         3.291740150851513E-009
  -101.390000000000         4.095897021853419E-009
  -101.200000000000         5.112532283756609E-009
  -101.010000000000         6.376519636147433E-009
  -100.820000000000         7.479179449331690E-009
  -100.630000000000         8.335622327280286E-009
  -100.440000000000         9.045209522970445E-009
  -100.250000000000         9.747365906746090E-009
  -100.060000000000         1.044696951669306E-008
  -99.8700000000000         1.127212071079791E-008
  -99.6800000000000         1.229433757529928E-008
  -99.4900000000000         1.342722318972440E-008
  -99.3000000000000         1.449898908604373E-008
  -99.1100000000000         1.544948207046268E-008
  -98.9200000000000         1.638905669885422E-008
  -98.7300000000000         1.742525749065155E-008
  -98.5400000000000         1.864332023295933E-008
  -98.3500000000000         2.023474740702844E-008
  -98.1600000000000         2.214158627778717E-008
  -97.9700000000000         2.413298159841803E-008
  -97.7800000000000         2.585806756020887E-008
  -97.5900000000000         2.710992069137203E-008
  -97.4000000000000         2.804597186625660E-008
  -97.2100000000000         2.866302048532827E-008
  -97.0200000000000         2.901441191731608E-008
  -96.8300000000000         2.909661158995825E-008
  -96.6400000000000         2.880233461043491E-008
  -96.4500000000000         2.870285501468490E-008
  -96.2600000000000         2.800828591631085E-008
  -96.0700000000000         2.762376507595988E-008
  -95.8800000000000         2.681260041721335E-008
  -95.6900000000000         2.666904585562943E-008
  -95.5000000000000         2.636362032802369E-008
  -95.3100000000000         2.641312912258383E-008
  -95.1200000000000         2.644483377372928E-008
  -94.9300000000000         2.629251743962660E-008
  -94.7400000000000         2.600855708255106E-008
  -94.5500000000000         2.545713507214466E-008
  -94.3600000000000         2.480167381624880E-008
  -94.1700000000000         2.428230430612032E-008
  -93.9800000000000         2.395345727559719E-008
  -93.7900000000000         2.374986548648490E-008
  -93.6000000000000         2.361659454188551E-008
  -93.4100000000000         2.337209696079350E-008
  -93.2200000000000         2.371899335965521E-008
  -93.0300000000000         2.401975621561705E-008
  -92.8400000000000         2.528152785040228E-008
  -92.6500000000000         2.661685633472648E-008
  -92.4600000000000         2.869454874162526E-008
  -92.2700000000000         3.009192908398896E-008
  -92.0800000000000         3.184343662876898E-008
  -91.8900000000000         3.348126925696412E-008
  -91.7000000000000         3.496709487007800E-008
  -91.5100000000000         3.642645347113943E-008
  -91.3200000000000         3.818160211678677E-008
  -91.1300000000000         4.036013131302806E-008
  -90.9400000000000         4.270267095427033E-008
  -90.7500000000000         4.505949027810981E-008
  -90.5600000000000         4.691680714809813E-008
  -90.3700000000000         4.840002954032930E-008
  -90.1800000000000         4.947838921595297E-008
  -89.9900000000000         5.029691692935647E-008
  -89.8000000000000         5.047459095205533E-008
  -89.6100000000000         5.123027999959628E-008
  -89.4200000000000         5.115367511389420E-008
  -89.2300000000000         5.123620731929843E-008
  -89.0400000000000         5.082472275718308E-008
  -88.8500000000000         5.012946006982451E-008
  -88.6600000000000         4.928607545389694E-008
  -88.4700000000000         4.853003367076035E-008
  -88.2800000000000         4.808147729218110E-008
  -88.0900000000000         4.807717782350915E-008
  -87.9000000000000         4.854800271286069E-008
  -87.7100000000000         4.945772398974926E-008
  -87.5200000000000         5.091115197795746E-008
  -87.3300000000000         5.364333482791820E-008
  -87.1400000000000         5.687721261223497E-008
  -86.9500000000000         6.062626798986316E-008
  -86.7600000000000         6.463852086240343E-008
  -86.5700000000000         6.858542722015051E-008
  -86.3800000000000         7.223199687259242E-008
  -86.1900000000000         7.549600127166023E-008
  -86.0000000000000         7.855771560921796E-008
  -85.8100000000000         8.162413334067262E-008
  -85.6200000000000         8.498205619199572E-008
  -85.4300000000000         8.847782028343337E-008
  -85.2400000000000         9.247914621822256E-008
  -85.0500000000000         9.646216819618583E-008
  -84.8600000000000         9.990705152327483E-008
  -84.6700000000000         1.040788617793230E-007
  -84.4800000000000         1.071694699478925E-007
  -84.2900000000000         1.105661891592098E-007
  -84.1000000000000         1.152844266953125E-007
  -83.9100000000000         1.193203917502316E-007
  -83.7200000000000         1.234127630984961E-007
  -83.5300000000000         1.268924724891634E-007
  -83.3400000000000         1.299144292577714E-007
  -83.1500000000000         1.303416721841659E-007
  -82.9600000000000         1.305373733047768E-007
  -82.7700000000000         1.288983988546534E-007
  -82.5800000000000         1.285103851396736E-007
  -82.3900000000000         1.273477178075027E-007
  -82.2000000000000         1.275046083403391E-007
  -82.0100000000000         1.287433724200471E-007
  -81.8200000000000         1.301632941916875E-007
  -81.6300000000000         1.319176824882914E-007
  -81.4400000000000         1.341059439062056E-007
  -81.2500000000000         1.367490224218552E-007
  -81.0600000000000         1.396938068107254E-007
  -80.8700000000000         1.426776518246869E-007
  -80.6800000000000         1.455068294345900E-007
  -80.4900000000000         1.477349029955908E-007
  -80.3000000000000         1.501751990143301E-007
  -80.1100000000000         1.503775103739455E-007
  -79.9200000000000         1.519692117019677E-007
  -79.7300000000000         1.517027711181365E-007
  -79.5400000000000         1.523650949766742E-007
  -79.3500000000000         1.536660065283970E-007
  -79.1600000000000         1.552862976288514E-007
  -78.9700000000000         1.575675942194324E-007
  -78.7800000000000         1.602905222197191E-007
  -78.5900000000000         1.636759054717238E-007
  -78.4000000000000         1.678683727897120E-007
  -78.2100000000000         1.725430669744624E-007
  -78.0200000000000         1.772535668698214E-007
  -77.8300000000000         1.815014804269282E-007
  -77.6400000000000         1.849556818168530E-007
  -77.4500000000000         1.872258709173443E-007
  -77.2600000000000         1.887982959590974E-007
  -77.0700000000000         1.900078976699178E-007
  -76.8800000000000         1.915433957068055E-007
  -76.6900000000000         1.931164694245440E-007
  -76.5000000000000         1.950077991909530E-007
  -76.3100000000000         1.971731554009812E-007
  -76.1200000000000         1.989164719732337E-007
  -75.9300000000000         2.017097441169676E-007
  -75.7400000000000         2.048584253771049E-007
  -75.5500000000000         2.094615312874807E-007
  -75.3600000000000         2.150811451257033E-007
  -75.1700000000000         2.210316546204774E-007
  -74.9800000000000         2.266511387055171E-007
  -74.7900000000000         2.316495103929513E-007
  -74.6000000000000         2.359050213376869E-007
  -74.4100000000000         2.393920178358716E-007
  -74.2200000000000         2.439482216690501E-007
  -74.0300000000000         2.464029315472015E-007
  -73.8400000000000         2.499614569092368E-007
  -73.6500000000000         2.537741465579510E-007
  -73.4600000000000         2.573494568015930E-007
  -73.2700000000000         2.609248064222685E-007
  -73.0800000000000         2.645487188542604E-007
  -72.8900000000000         2.689669388426480E-007
  -72.7000000000000         2.749537312820903E-007
  -72.5100000000000         2.823593049530690E-007
  -72.3200000000000         2.905403449213801E-007
  -72.1300000000000         2.988185490444979E-007
  -71.9400000000000         3.082907267136676E-007
  -71.7500000000000         3.132184117689491E-007
  -71.5600000000000         3.194660946839932E-007
  -71.3700000000000         3.224977874690541E-007
  -71.1800000000000         3.281152612584593E-007
  -70.9900000000000         3.314838383656661E-007
  -70.8000000000000         3.360963740307752E-007
  -70.6100000000000         3.408054304989628E-007
  -70.4200000000000         3.453980366717875E-007
  -70.2300000000000         3.501583095594987E-007
  -70.0400000000000         3.552395607273480E-007
  -69.8500000000000         3.610013640842514E-007
  -69.6600000000000         3.676988435311713E-007
  -69.4700000000000         3.753559710923777E-007
  -69.2800000000000         3.834978211540994E-007
  -69.0900000000000         3.915893007536281E-007
  -68.9000000000000         3.990641495123576E-007
  -68.7100000000000         4.055680332182202E-007
  -68.5200000000000         4.111474098409283E-007
  -68.3300000000000         4.162306585181581E-007
  -68.1400000000000         4.210349302721426E-007
  -67.9500000000000         4.248139895335840E-007
  -67.7600000000000         4.297237690609363E-007
  -67.5700000000000         4.346196378782415E-007
  -67.3800000000000         4.400873323963843E-007
  -67.1900000000000         4.462540056259375E-007
  -67.0000000000000         4.533478755226029E-007
  -66.8100000000000         4.615812477733307E-007
  -66.6200000000000         4.710265487933361E-007
  -66.4300000000000         4.813757379249632E-007
  -66.2400000000000         4.924307334417362E-007
  -66.0500000000000         5.040436471932698E-007
  -65.8600000000000         5.162881377004443E-007
  -65.6700000000000         5.290137432937916E-007
  -65.4800000000000         5.416216546403643E-007
  -65.2900000000000         5.542198938430199E-007
  -65.1000000000000         5.665956921858383E-007
  -64.9100000000000         5.783029766575418E-007
  -64.7200000000000         5.891134840105304E-007
  -64.5300000000000         5.991893854109423E-007
  -64.3400000000000         6.089400845413498E-007
  -64.1500000000000         6.187911963448996E-007
  -63.9600000000000         6.288006903436284E-007
  -63.7700000000000         6.392428033192610E-007
  -63.5800000000000         6.500568779072146E-007
  -63.3900000000000         6.608747945931706E-007
  -63.2000000000000         6.714542798754511E-007
  -63.0100000000000         6.820346556563643E-007
  -62.8200000000000         6.929221736214073E-007
  -62.6300000000000         7.040312979791861E-007
  -62.4400000000000         7.152836582628126E-007
  -62.2500000000000         7.261353788837173E-007
  -62.0600000000000         7.364164324454886E-007
  -61.8700000000000         7.459420589001102E-007
  -61.6800000000000         7.547609100331395E-007
  -61.4900000000000         7.636434682156583E-007
  -61.3000000000000         7.731886048568034E-007
  -61.1100000000000         7.834100132492836E-007
  -60.9200000000000         7.942822732360561E-007
  -60.7300000000000         8.055086518856829E-007
  -60.5400000000000         8.165254038959429E-007
  -60.3500000000000         8.273612041237985E-007
  -60.1600000000000         8.379570044978518E-007
  -59.9700000000000         8.488466324462355E-007
  -59.7800000000000         8.604717775192630E-007
  -59.5900000000000         8.730064234737438E-007
  -59.4000000000000         8.860515455898919E-007
  -59.2100000000000         8.994147960809248E-007
  -59.0200000000000         9.122278465938101E-007
  -58.8300000000000         9.245482696706886E-007
  -58.6400000000000         9.362389345298946E-007
  -58.4500000000000         9.476583772514309E-007
  -58.2600000000000         9.595018463533966E-007
  -58.0700000000000         9.718988943294073E-007
  -57.8800000000000         9.847781420485138E-007
  -57.6900000000000         9.978851329473113E-007
  -57.5000000000000         1.010942578592190E-006
  -57.3100000000000         1.024266964042569E-006
  -57.1200000000000         1.038156996198561E-006
  -56.9300000000000         1.052685582537316E-006
  -56.7400000000000         1.067951331764331E-006
  -56.5500000000000         1.083921912220822E-006
  -56.3600000000000         1.100894587373739E-006
  -56.1700000000000         1.117846239722791E-006
  -55.9800000000000         1.134996387227886E-006
  -55.7900000000000         1.152293986093700E-006
  -55.6000000000000         1.170046680543037E-006
  -55.4100000000000         1.188282490942637E-006
  -55.2200000000000         1.207317514699120E-006
  -55.0300000000000         1.226936856650540E-006
  -54.8400000000000         1.247314626639532E-006
  -54.6500000000000         1.267420543031778E-006
  -54.4600000000000         1.287885686128098E-006
  -54.2700000000000         1.308669886619369E-006
  -54.0800000000000         1.329903915504852E-006
  -53.8900000000000         1.351708959779910E-006
  -53.7000000000000         1.374066865424125E-006
  -53.5100000000000         1.396595280709597E-006
  -53.3200000000000         1.418860469483877E-006
  -53.1300000000000         1.440784898493552E-006
  -52.9400000000000         1.462382518411225E-006
  -52.7500000000000         1.484497340391499E-006
  -52.5600000000000         1.506563319451004E-006
  -52.3700000000000         1.529110241884959E-006
  -52.1800000000000         1.552446977399955E-006
  -51.9900000000000         1.576224475494788E-006
  -51.8000000000000         1.600250835995138E-006
  -51.6100000000000         1.624684203614711E-006
  -51.4200000000000         1.649090801769547E-006
  -51.2300000000000         1.674173687379313E-006
  -51.0400000000000         1.699304468265939E-006
  -50.8500000000000         1.724669549198491E-006
  -50.6600000000000         1.749942229508622E-006
  -50.4700000000000         1.775003725369095E-006
  -50.2800000000000         1.799554006209542E-006
  -50.0900000000000         1.823723189089147E-006
  -49.9000000000000         1.847798768366185E-006
  -49.7100000000000         1.871822075437076E-006
  -49.5200000000000         1.896238872643467E-006
  -49.3300000000000         1.920736079010164E-006
  -49.1400000000000         1.945428337604308E-006
  -48.9500000000000         1.970491755989078E-006
  -48.7600000000000         1.995628550597173E-006
  -48.5700000000000         2.021051156273363E-006
  -48.3800000000000         2.046867869429491E-006
  -48.1900000000000         2.073385408064670E-006
  -48.0000000000000         2.099798675735384E-006
  -47.8100000000000         2.126078350437481E-006
  -47.6200000000000         2.151673024569743E-006
  -47.4300000000000         2.177105891309403E-006
  -47.2400000000000         2.202358734439491E-006
  -47.0500000000000         2.228430003895870E-006
  -46.8600000000000         2.255450637306803E-006
  -46.6700000000000         2.283976517839773E-006
  -46.4800000000000         2.313348613980801E-006
  -46.2900000000000         2.343023082266403E-006
  -46.1000000000000         2.372622219806165E-006
  -45.9100000000000         2.402319378452207E-006
  -45.7200000000000         2.432206552969010E-006
  -45.5300000000000         2.462745248191648E-006
  -45.3400000000000         2.494723733735971E-006
  -45.1500000000000         2.527816002065095E-006
  -44.9600000000000         2.561609247990133E-006
  -44.7700000000000         2.594964623792917E-006
  -44.5800000000000         2.627926707784466E-006
  -44.3900000000000         2.659943849861210E-006
  -44.2000000000000         2.691273709265809E-006
  -44.0100000000000         2.722600711401955E-006
  -43.8200000000000         2.754721724461869E-006
  -43.6300000000000         2.787932509692397E-006
  -43.4400000000000         2.821610752352679E-006
  -43.2500000000000         2.855595002317622E-006
  -43.0600000000000         2.890803029118217E-006
  -42.8700000000000         2.926573128958063E-006
  -42.6800000000000         2.963064140822549E-006
  -42.4900000000000         3.000225611115337E-006
  -42.3000000000000         3.037812324302965E-006
  -42.1100000000000         3.076023987802098E-006
  -41.9200000000000         3.113577593611639E-006
  -41.7300000000000         3.150982676164826E-006
  -41.5400000000000         3.188562331754795E-006
  -41.3500000000000         3.225893019236015E-006
  -41.1600000000000         3.264578143469931E-006
  -40.9700000000000         3.303664736758848E-006
  -40.7800000000000         3.343210800013008E-006
  -40.5900000000000         3.383711560448511E-006
  -40.4000000000000         3.424055918744401E-006
  -40.2100000000000         3.464791337055180E-006
  -40.0200000000000         3.506020004175148E-006
  -39.8300000000000         3.548369046512830E-006
  -39.6400000000000         3.590890395934126E-006
  -39.4500000000000         3.634941509763525E-006
  -39.2600000000000         3.678791173090632E-006
  -39.0700000000000         3.723510899193408E-006
  -38.8800000000000         3.767402242840688E-006
  -38.6900000000000         3.811765659862866E-006
  -38.5000000000000         3.856436470171091E-006
  -38.3100000000000         3.901022711407074E-006
  -38.1200000000000         3.945294607368435E-006
  -37.9300000000000         3.989916063606557E-006
  -37.7400000000000         4.033971723956412E-006
  -37.5500000000000         4.078296387571105E-006
  -37.3600000000000         4.123813167927969E-006
  -37.1700000000000         4.169992917727363E-006
  -36.9800000000000         4.216844661527579E-006
  -36.7900000000000         4.264796234058699E-006
  -36.6000000000000         4.313080861373554E-006
  -36.4100000000000         4.360409067101462E-006
  -36.2200000000000         4.408274047217525E-006
  -36.0300000000000         4.457117315214945E-006
  -35.8400000000000         4.505278853227292E-006
  -35.6500000000000         4.552948831607854E-006
  -35.4600000000000         4.602106153347212E-006
  -35.2700000000000         4.652455747666465E-006
  -35.0800000000000         4.700817544027845E-006
  -34.8900000000000         4.748442427074404E-006
  -34.7000000000000         4.797478165539412E-006
  -34.5100000000000         4.845411689378714E-006
  -34.3200000000000         4.894217624966063E-006
  -34.1300000000000         4.943805921646870E-006
  -33.9400000000000         4.995029843150322E-006
  -33.7500000000000         5.046797825327873E-006
  -33.5600000000000         5.098099888108267E-006
  -33.3700000000000         5.149566036522359E-006
  -33.1800000000000         5.200498467759784E-006
  -32.9900000000000         5.249147716161106E-006
  -32.8000000000000         5.300628696304736E-006
  -32.6100000000000         5.350697111792257E-006
  -32.4200000000000         5.401604666050475E-006
  -32.2300000000000         5.453406946870241E-006
  -32.0400000000000         5.506163456481544E-006
  -31.8500000000000         5.558155598534825E-006
  -31.6600000000000         5.614346484934651E-006
  -31.4700000000000         5.668141317829009E-006
  -31.2800000000000         5.724226133905555E-006
  -31.0900000000000         5.780157133431928E-006
  -30.9000000000000         5.837530292984998E-006
  -30.7100000000000         5.896442364255684E-006
  -30.5200000000000         5.954220252129467E-006
  -30.3300000000000         6.013059618322939E-006
  -30.1400000000000         6.072611885056114E-006
  -29.9500000000000         6.132487719709676E-006
  -29.7600000000000         6.193837853467824E-006
  -29.5700000000000         6.256817971191553E-006
  -29.3800000000000         6.316775848415020E-006
  -29.1900000000000         6.379106115826873E-006
  -29.0000000000000         6.442107443048774E-006
  -28.8100000000000         6.505954413657064E-006
  -28.6200000000000         6.569881375182809E-006
  -28.4300000000000         6.638584552275422E-006
  -28.2400000000000         6.702939723771018E-006
  -28.0500000000000         6.770251977697391E-006
  -27.8600000000000         6.838135091353377E-006
  -27.6700000000000         6.906328211476704E-006
  -27.4800000000000         6.973094819122533E-006
  -27.2900000000000         7.041896207966491E-006
  -27.1000000000000         7.108436338165828E-006
  -26.9100000000000         7.177405358599854E-006
  -26.7200000000000         7.244347107829154E-006
  -26.5300000000000         7.312677727759593E-006
  -26.3400000000000         7.380079219236254E-006
  -26.1500000000000         7.450335931319339E-006
  -25.9600000000000         7.518418619281664E-006
  -25.7700000000000         7.587889658025043E-006
  -25.5800000000000         7.657350559588687E-006
  -25.3900000000000         7.727216387006216E-006
  -25.2000000000000         7.796981451103738E-006
  -25.0100000000000         7.865896712006147E-006
  -24.8200000000000         7.937648775776034E-006
  -24.6300000000000         8.008663661689501E-006
  -24.4400000000000         8.080095449883290E-006
  -24.2500000000000         8.152170176933112E-006
  -24.0600000000000         8.224129421317485E-006
  -23.8700000000000         8.295201031830549E-006
  -23.6800000000000         8.369023703034773E-006
  -23.4900000000000         8.440583029205801E-006
  -23.3000000000000         8.508760640013124E-006
  -23.1100000000000         8.588131450997288E-006
  -22.9200000000000         8.660708758850529E-006
  -22.7300000000000         8.735810837184630E-006
  -22.5400000000000         8.812109275423836E-006
  -22.3500000000000         8.889829457575459E-006
  -22.1600000000000         8.968944645841652E-006
  -21.9700000000000         9.048804519377323E-006
  -21.7800000000000         9.129052605073663E-006
  -21.5900000000000         9.207444897788984E-006
  -21.4000000000000         9.283417717976491E-006
  -21.2100000000000         9.368391379182947E-006
  -21.0200000000000         9.438526179508756E-006
  -20.8300000000000         9.516515142142004E-006
  -20.6400000000000         9.594807065520551E-006
  -20.4500000000000         9.673417575151327E-006
  -20.2600000000000         9.753189736397405E-006
  -20.0700000000000         9.832571781430170E-006
  -19.8800000000000         9.912808279620212E-006
  -19.6900000000000         9.993332849006990E-006
  -19.5000000000000         1.007416618662923E-005
  -19.3100000000000         1.015555057538274E-005
  -19.1200000000000         1.023752447261241E-005
  -18.9300000000000         1.032028802397824E-005
  -18.7400000000000         1.040316940624123E-005
  -18.5500000000000         1.048678071730616E-005
  -18.3600000000000         1.057021162584040E-005
  -18.1700000000000         1.065335502157110E-005
  -17.9800000000000         1.073600016705847E-005
  -17.7900000000000         1.081881061136014E-005
  -17.6000000000000         1.089991972804728E-005
  -17.4100000000000         1.098567517461503E-005
  -17.2200000000000         1.106738693445722E-005
  -17.0300000000000         1.115482602760950E-005
  -16.8400000000000         1.123573205819799E-005
  -16.6500000000000         1.132313422042818E-005
  -16.4600000000000         1.140638626712364E-005
  -16.2700000000000         1.149422167152150E-005
  -16.0800000000000         1.157782416496241E-005
  -15.8900000000000         1.166542669959837E-005
  -15.7000000000000         1.174894430845346E-005
  -15.5100000000000         1.183487256043845E-005
  -15.3200000000000         1.191818998344787E-005
  -15.1300000000000         1.200376124039595E-005
  -14.9400000000000         1.208903502795467E-005
  -14.7500000000000         1.217439739261922E-005
  -14.5600000000000         1.225518160129400E-005
  -14.3700000000000         1.234502523237076E-005
  -14.1800000000000         1.242914993834980E-005
  -13.9900000000000         1.251513390740206E-005
  -13.8000000000000         1.260539631050330E-005
  -13.6100000000000         1.269522424583369E-005
  -13.4200000000000         1.278664543191379E-005
  -13.2300000000000         1.287959901223746E-005
  -13.0400000000000         1.297309771378645E-005
  -12.8500000000000         1.306661153159263E-005
  -12.6600000000000         1.315460304268156E-005
  -12.4700000000000         1.325145226825254E-005
  -12.2800000000000         1.333846617189994E-005
  -12.0900000000000         1.342954912543588E-005
  -11.9000000000000         1.351826230659405E-005
  -11.7100000000000         1.361169250897999E-005
  -11.5200000000000         1.370044240787834E-005
  -11.3300000000000         1.379400329117382E-005
  -11.1400000000000         1.388561169602521E-005
  -10.9500000000000         1.397805065226494E-005
  -10.7600000000000         1.406866518116336E-005
  -10.5700000000000         1.416512582797029E-005
  -10.3800000000000         1.425709288909808E-005
  -10.1900000000000         1.435134078523997E-005
  -10.0000000000000         1.444545428320475E-005
  -9.81000000000000         1.453861641699521E-005
  -9.62000000000000         1.462682127431156E-005
  -9.42999999999999         1.472363157009721E-005
  -9.23999999999999         1.481134351532693E-005
  -9.05000000000000         1.490419060645493E-005
  -8.86000000000000         1.500042216739626E-005
  -8.67000000000000         1.509226617154415E-005
  -8.48000000000000         1.518634805626685E-005
  -8.28999999999999         1.528617239518545E-005
  -8.09999999999999         1.537653475877744E-005
  -7.91000000000000         1.547483530531223E-005
  -7.72000000000000         1.556986182656914E-005
  -7.53000000000000         1.567034313678322E-005
  -7.34000000000000         1.576739337420966E-005
  -7.15000000000001         1.586393417428434E-005
  -6.95999999999999         1.596716051739484E-005
  -6.77000000000000         1.606903149053921E-005
  -6.58000000000000         1.616056465493234E-005
  -6.39000000000000         1.625845042139477E-005
  -6.20000000000000         1.635389169191722E-005
  -6.01000000000001         1.645061377681338E-005
  -5.81999999999999         1.654790281085327E-005
  -5.63000000000000         1.664398979917260E-005
  -5.44000000000000         1.674048981992354E-005
  -5.25000000000000         1.683701878511539E-005
  -5.06000000000000         1.693433880196207E-005
  -4.87000000000000         1.703182631745272E-005
  -4.67999999999999         1.712999116092716E-005
  -4.48999999999999         1.722557587841774E-005
  -4.30000000000000         1.732666713098137E-005
  -4.11000000000000         1.742299383992872E-005
  -3.92000000000000         1.752437497388842E-005
  -3.73000000000000         1.762106489328050E-005
  -3.53999999999999         1.771869004996619E-005
  -3.34999999999999         1.781651750267153E-005
  -3.16000000000000         1.791374206968491E-005
  -2.97000000000000         1.801099338492638E-005
  -2.78000000000000         1.810804070893450E-005
  -2.59000000000000         1.820247586997208E-005
  -2.40000000000001         1.830232392873957E-005
  -2.20999999999999         1.840014141742395E-005
  -2.02000000000000         1.849779107353323E-005
  -1.83000000000000         1.859282459538381E-005
  -1.64000000000000         1.869303602640548E-005
  -1.45000000000000         1.878847628036946E-005
  -1.26000000000001         1.888888373352468E-005
  -1.06999999999999         1.898263581835570E-005
 -0.879999999999995         1.908362432329270E-005
 -0.689999999999998         1.918015184200604E-005
 -0.500000000000000         1.928239654760413E-005
 -0.310000000000002         1.937980686088304E-005
 -0.120000000000005         1.947941889113193E-005
  7.000000000000739E-002    1.957941234048068E-005
  0.260000000000005         1.968244710852561E-005
  0.450000000000003         1.978133798537103E-005
  0.640000000000001         1.988199168487732E-005
  0.829999999999998         1.998390157748365E-005
   1.02000000000000         2.008642133738422E-005
   1.21000000000001         2.018639220405167E-005
   1.40000000000001         2.029195528048276E-005
   1.59000000000000         2.039192414251297E-005
   1.78000000000000         2.049371245735155E-005
   1.97000000000000         2.059268785515712E-005
   2.16000000000000         2.069358362100518E-005
   2.34999999999999         2.079468943038394E-005
   2.54000000000001         2.089544150044610E-005
   2.73000000000000         2.099661201200854E-005
   2.92000000000000         2.109662285317282E-005
   3.11000000000000         2.119609895310692E-005
   3.30000000000000         2.129248996551438E-005
   3.48999999999999         2.139437961874609E-005
   3.68000000000001         2.148873615363004E-005
   3.87000000000000         2.159261684093031E-005
   4.06000000000000         2.168846222014249E-005
   4.25000000000000         2.178788390078959E-005
   4.44000000000000         2.188723338252375E-005
   4.63000000000000         2.198605712267019E-005
   4.82000000000001         2.208406599554644E-005
   5.01000000000001         2.217629065086735E-005
   5.20000000000000         2.227763011312982E-005
   5.39000000000000         2.236955342075745E-005
   5.58000000000000         2.247120289631881E-005
   5.77000000000000         2.256886248063266E-005
   5.96000000000001         2.266095530894588E-005
   6.15000000000001         2.276159429077315E-005
   6.34000000000000         2.285328709652411E-005
   6.53000000000000         2.294893638589658E-005