  -105.000000000000         0.000000000000000E+000
  -104.810000000000        -7.367301439844294E-012
  -104.620000000000        -5.790178350197650E-011
  -104.430000000000        -8.589446988306594E-011
  -104.240000000000        -5.604777898104323E-011
  -104.050000000000         1.199096647742679E-011
  -103.860000000000         3.493323517800556E-011
  -103.670000000000        -3.394386885412369E-011
  -103.480000000000        -1.609120183335745E-010
  -103.290000000000        -2.252555893197144E-010
  -103.100000000000        -3.108217230117523E-010
  -102.910000000000        -2.962672699952729E-010
  -102.720000000000        -1.958899647801942E-010
  -102.530000000000         1.444535453268486E-010
  -102.340000000000         5.075485015250922E-010
  -102.150000000000         8.276823524430311E-010
  -101.960000000000         1.120211013497583E-009
  -101.770000000000         1.552177871534896E-009
  -101.580000000000         1.910638437409629E-009
  -101.390000000000         2.375215503366344E-009
  -101.200000000000         2.962456067333804E-009
  -101.010000000000         3.757654084013965E-009
  -100.820000000000         4.467978422433599E-009
  -100.630000000000         5.083769741978729E-009
  -100.440000000000         5.701915584317417E-009
  -100.250000000000         6.395298970704455E-009
  -100.060000000000         7.092881685469892E-009
  -99.8700000000000         7.850852844730637E-009
  -99.6800000000000         8.728198719829062E-009
  -99.4900000000000         9.706977484290528E-009
  -99.3000000000000         1.068037180460299E-008
  -99.1100000000000         1.161591241664160E-008
  -98.9200000000000         1.255866213799826E-008
  -98.7300000000000         1.353593026601553E-008
  -98.5400000000000         1.453974145049325E-008
  -98.3500000000000         1.570742598159712E-008
  -98.1600000000000         1.704832031556131E-008
  -97.9700000000000         1.843912248895676E-008
  -97.7800000000000         1.967890290018009E-008
  -97.5900000000000         2.065243696548120E-008
  -97.4000000000000         2.148572734507608E-008
  -97.2100000000000         2.212786883658511E-008
  -97.0200000000000         2.259002725568698E-008
  -96.8300000000000         2.281295438357251E-008
  -96.6400000000000         2.270494837608558E-008
  -96.4500000000000         2.288359775994672E-008
  -96.2600000000000         2.256208596402723E-008
  -96.0700000000000         2.263661708712955E-008
  -95.8800000000000         2.224660006003103E-008
  -95.6900000000000         2.241325790039136E-008
  -95.5000000000000         2.230364418506304E-008
  -95.3100000000000         2.230161540062594E-008
  -95.1200000000000         2.230248172902354E-008
  -94.9300000000000         2.213032702894868E-008
  -94.7400000000000         2.191758678789944E-008
  -94.5500000000000         2.158178031109652E-008
  -94.3600000000000         2.119247886074558E-008
  -94.1700000000000         2.087336422645795E-008
  -93.9800000000000         2.066172691264101E-008
  -93.7900000000000         2.049069647346157E-008
  -93.6000000000000         2.033493587537401E-008
  -93.4100000000000         2.001525296851643E-008
  -93.2200000000000         2.011178876746811E-008
  -93.0300000000000         2.004042870083510E-008
  -92.8400000000000         2.069210087527479E-008
  -92.6500000000000         2.121256038660405E-008
  -92.4600000000000         2.233117854288894E-008
  -92.2700000000000         2.266744705203472E-008
  -92.0800000000000         2.335365482050569E-008
  -91.8900000000000         2.393706466474299E-008
  -91.7000000000000         2.437345723383297E-008
  -91.5100000000000         2.474566069759351E-008
  -91.3200000000000         2.536070046628411E-008
  -91.1300000000000         2.634986955089025E-008
  -90.9400000000000         2.749077714029012E-008
  -90.7500000000000         2.883661449639098E-008
  -90.5600000000000         2.983981501865088E-008
  -90.3700000000000         3.059950981455932E-008
  -90.1800000000000         3.118714245637031E-008
  -89.9900000000000         3.153232180386923E-008
  -89.8000000000000         3.128123799344692E-008
  -89.6100000000000         3.162443771943918E-008
  -89.4200000000000         3.119766567827051E-008
  -89.2300000000000         3.111778320136884E-008
  -89.0400000000000         3.071393008115508E-008
  -88.8500000000000         3.010850470578046E-008
  -88.6600000000000         2.945303427732878E-008
  -88.4700000000000         2.886081534747019E-008
  -88.2800000000000         2.843559149393993E-008
  -88.0900000000000         2.821581847831698E-008
  -87.9000000000000         2.823259340860414E-008
  -87.7100000000000         2.853545623488694E-008
  -87.5200000000000         2.923005930888351E-008
  -87.3300000000000         3.096824813682352E-008
  -87.1400000000000         3.312135236234106E-008
  -86.9500000000000         3.562864150502791E-008
  -86.7600000000000         3.830088980676748E-008
  -86.5700000000000         4.095289448745823E-008
  -86.3800000000000         4.350878662348222E-008
  -86.1900000000000         4.596266192271290E-008
  -86.0000000000000         4.844118251758642E-008
  -85.8100000000000         5.097797046455886E-008
  -85.6200000000000         5.372033781436339E-008
  -85.4300000000000         5.642986131167381E-008
  -85.2400000000000         5.935565052830297E-008
  -85.0500000000000         6.208961223291837E-008
  -84.8600000000000         6.414821473145454E-008
  -84.6700000000000         6.713636471057639E-008
  -84.4800000000000         6.888971145186792E-008
  -84.2900000000000         7.107381727839175E-008
  -84.1000000000000         7.435303141798021E-008
  -83.9100000000000         7.661985025139674E-008
  -83.7200000000000         7.903484281139191E-008
  -83.5300000000000         8.112876519235026E-008
  -83.3400000000000         8.327366155914454E-008
  -83.1500000000000         8.356952021330729E-008
  -82.9600000000000         8.395465907150293E-008
  -82.7700000000000         8.308084062676498E-008
  -82.5800000000000         8.335825830346180E-008
  -82.3900000000000         8.283065400487941E-008
  -82.2000000000000         8.305071330729757E-008
  -82.0100000000000         8.392469506811525E-008
  -81.8200000000000         8.453990260677417E-008
  -81.6300000000000         8.579982649934721E-008
  -81.4400000000000         8.713569750448110E-008
  -81.2500000000000         8.862960296656954E-008
  -81.0600000000000         9.030304052677058E-008
  -80.8700000000000         9.201861582883854E-008
  -80.6800000000000         9.348897337290974E-008
  -80.4900000000000         9.483163058546084E-008
  -80.3000000000000         9.683910196803683E-008
  -80.1100000000000         9.705120595314205E-008
  -79.9200000000000         9.848224844941435E-008
  -79.7300000000000         9.849204139886543E-008
  -79.5400000000000         9.895974995455279E-008
  -79.3500000000000         9.956882189962764E-008
  -79.1600000000000         1.003499238295397E-007
  -78.9700000000000         1.015143785107090E-007
  -78.7800000000000         1.032541938327273E-007
  -78.5900000000000         1.052023134116454E-007
  -78.4000000000000         1.073734193396042E-007
  -78.2100000000000         1.098107722488709E-007
  -78.0200000000000         1.123163834452401E-007
  -77.8300000000000         1.145256966633387E-007
  -77.6400000000000         1.160596918041318E-007
  -77.4500000000000         1.170313456932818E-007
  -77.2600000000000         1.181479035307467E-007
  -77.0700000000000         1.195021586661442E-007
  -76.8800000000000         1.206967818842195E-007
  -76.6900000000000         1.218140894814709E-007
  -76.5000000000000         1.231618383683016E-007
  -76.3100000000000         1.247515958721421E-007
  -76.1200000000000         1.252639181074655E-007
  -75.9300000000000         1.272198660068450E-007
  -75.7400000000000         1.294141580333153E-007
  -75.5500000000000         1.320922309663904E-007
  -75.3600000000000         1.351980523389807E-007
  -75.1700000000000         1.385432197055174E-007
  -74.9800000000000         1.418066125222166E-007
  -74.7900000000000         1.445832919454749E-007
  -74.6000000000000         1.468160526634149E-007
  -74.4100000000000         1.496177840715034E-007
  -74.2200000000000         1.528112974019359E-007
  -74.0300000000000         1.535854252852899E-007
  -73.8400000000000         1.570454261539693E-007
  -73.6500000000000         1.597121060348481E-007
  -73.4600000000000         1.622612621719536E-007
  -73.2700000000000         1.646747924381062E-007
  -73.0800000000000         1.669762639834572E-007
  -72.8900000000000         1.697423647524958E-007
  -72.7000000000000         1.733128764225922E-007
  -72.5100000000000         1.776000419308036E-007
  -72.3200000000000         1.823651997319267E-007
  -72.1300000000000         1.872443406624141E-007
  -71.9400000000000         1.935591511916236E-007
  -71.7500000000000         1.964695581081620E-007
  -71.5600000000000         2.011268272815745E-007
  -71.3700000000000         2.030548649523597E-007
  -71.1800000000000         2.075194136124036E-007
  -70.9900000000000         2.088002473521010E-007
  -70.8000000000000         2.132802871969370E-007
  -70.6100000000000         2.162681017572434E-007
  -70.4200000000000         2.192413095204483E-007
  -70.2300000000000         2.222996634469220E-007
  -70.0400000000000         2.255172589684595E-007
  -69.8500000000000         2.291834236281794E-007
  -69.6600000000000         2.334569502977251E-007
  -69.4700000000000         2.381113422377716E-007
  -69.2800000000000         2.429787048125530E-007
  -69.0900000000000         2.478612555445955E-007
  -68.9000000000000         2.524633621016304E-007
  -68.7100000000000         2.565804677196041E-007
  -68.5200000000000         2.601960288757804E-007
  -68.3300000000000         2.635812116282562E-007
  -68.1400000000000         2.668276589456823E-007
  -67.9500000000000         2.677618932860080E-007
  -67.7600000000000         2.724018141285253E-007
  -67.5700000000000         2.757757331413314E-007
  -67.3800000000000         2.791799451978691E-007
  -67.1900000000000         2.829913055827935E-007
  -67.0000000000000         2.873105690102869E-007
  -66.8100000000000         2.923640957789459E-007
  -66.6200000000000         2.980984932087869E-007
  -66.4300000000000         3.044534045453832E-007
  -66.2400000000000         3.110960324574477E-007
  -66.0500000000000         3.180539311310461E-007
  -65.8600000000000         3.253569815164455E-007
  -65.6700000000000         3.329854211363136E-007
  -65.4800000000000         3.408289873242490E-007
  -65.2900000000000         3.486183205485019E-007
  -65.1000000000000         3.562331380535054E-007
  -64.9100000000000         3.634739229046234E-007
  -64.7200000000000         3.702053592592862E-007
  -64.5300000000000         3.764892924389845E-007
  -64.3400000000000         3.826892554821730E-007
  -64.1500000000000         3.883346928891356E-007
  -63.9600000000000         3.941971144084179E-007
  -63.7700000000000         4.002957223282783E-007
  -63.5800000000000         4.065220509628205E-007
  -63.3900000000000         4.128352382663097E-007
  -63.2000000000000         4.193011278343660E-007
  -63.0100000000000         4.259365473885448E-007
  -62.8200000000000         4.326388686685101E-007
  -62.6300000000000         4.394074985550381E-007
  -62.4400000000000         4.455339590930266E-007
  -62.2500000000000         4.516756873949534E-007
  -62.0600000000000         4.575112646902194E-007
  -61.8700000000000         4.625473827235941E-007
  -61.6800000000000         4.675227199862139E-007
  -61.4900000000000         4.728707821492783E-007
  -61.3000000000000         4.793721675272008E-007
  -61.1100000000000         4.857609518167540E-007
  -60.9200000000000         4.923070601973769E-007
  -60.7300000000000         4.987901002476235E-007
  -60.5400000000000         5.059101148198556E-007
  -60.3500000000000         5.122829752820515E-007
  -60.1600000000000         5.185220252836834E-007
  -59.9700000000000         5.249828985407062E-007
  -59.7800000000000         5.322927554594761E-007
  -59.5900000000000         5.399255129159310E-007
  -59.4000000000000         5.480292663543960E-007
  -59.2100000000000         5.555396981350005E-007
  -59.0200000000000         5.636280735496382E-007
  -58.8300000000000         5.709977190113423E-007
  -58.6400000000000         5.772298274022128E-007
  -58.4500000000000         5.846320594215361E-007
  -58.2600000000000         5.917436362741587E-007
  -58.0700000000000         5.995636288848909E-007
  -57.8800000000000         6.074439224528920E-007
  -57.6900000000000         6.154157345586487E-007
  -57.5000000000000         6.241467860027538E-007
  -57.3100000000000         6.329614506436174E-007
  -57.1200000000000         6.411949345348876E-007
  -56.9300000000000         6.497012059730118E-007
  -56.7400000000000         6.595510568190801E-007
  -56.5500000000000         6.705357099013193E-007
  -56.3600000000000         6.804090220651068E-007
  -56.1700000000000         6.908792968297526E-007
  -55.9800000000000         7.017768605203020E-007
  -55.7900000000000         7.130751751670180E-007
  -55.6000000000000         7.239146503667755E-007
  -55.4100000000000         7.351412523376343E-007
  -55.2200000000000         7.469821631643189E-007
  -55.0300000000000         7.594819929504834E-007
  -54.8400000000000         7.707474113327043E-007
  -54.6500000000000         7.828576124070792E-007
  -54.4600000000000         7.950237682341747E-007
  -54.2700000000000         8.076173849169184E-007
  -54.0800000000000         8.204395838599331E-007
  -53.8900000000000         8.335579311302360E-007
  -53.7000000000000         8.469875035376669E-007
  -53.5100000000000         8.605571964952692E-007
  -53.3200000000000         8.740280521622613E-007
  -53.1300000000000         8.873607219381846E-007
  -52.9400000000000         9.013285496807097E-007
  -52.7500000000000         9.142256705687355E-007
  -52.5600000000000         9.279265540529488E-007
  -52.3700000000000         9.420505259495896E-007
  -52.1800000000000         9.560427347893376E-007
  -51.9900000000000         9.702307081903445E-007
  -51.8000000000000         9.845903866258101E-007
  -51.6100000000000         9.986815461358127E-007
  -51.4200000000000         1.014015856749089E-006
  -51.2300000000000         1.028790076478541E-006
  -51.0400000000000         1.044137564801786E-006
  -50.8500000000000         1.059321901165501E-006
  -50.6600000000000         1.074591332915706E-006
  -50.4700000000000         1.089302383682807E-006
  -50.2800000000000         1.103662113363888E-006
  -50.0900000000000         1.117715488032769E-006
  -49.9000000000000         1.130813931748346E-006
  -49.7100000000000         1.146455826055304E-006
  -49.5200000000000         1.159794728424287E-006
  -49.3300000000000         1.174281475944177E-006
  -49.1400000000000         1.190210118464989E-006
  -48.9500000000000         1.203755511745650E-006
  -48.7600000000000         1.218618809501419E-006
  -48.5700000000000         1.233748985632603E-006
  -48.3800000000000         1.247872551545410E-006
  -48.1900000000000         1.263676202560739E-006
  -48.0000000000000         1.278456799254295E-006
  -47.8100000000000         1.293975840833276E-006
  -47.6200000000000         1.308684803897652E-006
  -47.4300000000000         1.323825112538227E-006
  -47.2400000000000         1.338613827648789E-006
  -47.0500000000000         1.354481124199132E-006
  -46.8600000000000         1.370477482758312E-006
  -46.6700000000000         1.387915988514396E-006
  -46.4800000000000         1.405307981668800E-006
  -46.2900000000000         1.422003688187100E-006
  -46.1000000000000         1.438456710967273E-006
  -45.9100000000000         1.455507970667246E-006
  -45.7200000000000         1.472640034211197E-006
  -45.5300000000000         1.489733507572655E-006
  -45.3400000000000         1.508035281254724E-006
  -45.1500000000000         1.526781741312999E-006
  -44.9600000000000         1.546782368054287E-006
  -44.7700000000000         1.565482424607187E-006
  -44.5800000000000         1.585049166546562E-006
  -44.3900000000000         1.603597648851627E-006
  -44.2000000000000         1.621801840965589E-006
  -44.0100000000000         1.640208040135463E-006
  -43.8200000000000         1.659386927098598E-006
  -43.6300000000000         1.680271511098739E-006
  -43.4400000000000         1.700285173035863E-006
  -43.2500000000000         1.718999573296609E-006
  -43.0600000000000         1.741049140544487E-006
  -42.8700000000000         1.762227150832517E-006
  -42.6800000000000         1.784002958175256E-006
  -42.4900000000000         1.805530230441778E-006
  -42.3000000000000         1.826351329552243E-006
  -42.1100000000000         1.850124810758031E-006
  -41.9200000000000         1.870825442126860E-006
  -41.7300000000000         1.892736041355446E-006
  -41.5400000000000         1.915786519133213E-006
  -41.3500000000000         1.936974964702419E-006
  -41.1600000000000         1.961983947919691E-006
  -40.9700000000000         1.985452547965395E-006
  -40.7800000000000         2.007492385809292E-006
  -40.5900000000000         2.033240817966843E-006
  -40.4000000000000         2.055621448619285E-006
  -40.2100000000000         2.079214019904099E-006
  -40.0200000000000         2.103012291631091E-006
  -39.8300000000000         2.128508265279520E-006
  -39.6400000000000         2.152057755138381E-006
  -39.4500000000000         2.178594015873809E-006
  -39.2600000000000         2.203163256694631E-006
  -39.0700000000000         2.230057446120807E-006
  -38.8800000000000         2.254534676287316E-006
  -38.6900000000000         2.280628354448842E-006
  -38.5000000000000         2.307723511981384E-006
  -38.3100000000000         2.334462871043164E-006
  -38.1200000000000         2.360107012975098E-006
  -37.9300000000000         2.386948591695019E-006
  -37.7400000000000         2.411946812657462E-006
  -37.5500000000000         2.437141490932617E-006
  -37.3600000000000         2.463866971095277E-006
  -37.1700000000000         2.490838103292807E-006
  -36.9800000000000         2.517691681091031E-006
  -36.7900000000000         2.545426218226512E-006
  -36.6000000000000         2.573278104428277E-006
  -36.4100000000000         2.599551572409752E-006
  -36.2200000000000         2.626935495969778E-006
  -36.0300000000000         2.655901659876939E-006
  -35.8400000000000         2.683620047057327E-006
  -35.6500000000000         2.710281952239222E-006
  -35.4600000000000         2.738691726440799E-006
  -35.2700000000000         2.768741697822259E-006
  -35.0800000000000         2.796053228729028E-006
  -34.8900000000000         2.823030757558243E-006
  -34.7000000000000         2.851893818796303E-006
  -34.5100000000000         2.879644509005388E-006
  -34.3200000000000         2.908059425786738E-006
  -34.1300000000000         2.936859101823010E-006
  -33.9400000000000         2.966825456870505E-006
  -33.7500000000000         2.996937569164877E-006
  -33.5600000000000         3.026365540633950E-006
  -33.3700000000000         3.056175670775563E-006
  -33.1800000000000         3.085707362787900E-006
  -32.9900000000000         3.113270698692971E-006
  -32.8000000000000         3.143481986789864E-006
  -32.6100000000000         3.172474680660203E-006
  -32.4200000000000         3.201894426593401E-006
  -32.2300000000000         3.231834135370191E-006
  -32.0400000000000         3.262411394486271E-006
  -31.8500000000000         3.291984975672254E-006
  -31.6600000000000         3.324965987497279E-006
  -31.4700000000000         3.355403051307329E-006
  -31.2800000000000         3.387450316480220E-006
  -31.0900000000000         3.419073991882464E-006
  -30.9000000000000         3.451588263023671E-006
  -30.7100000000000         3.485263747702754E-006
  -30.5200000000000         3.517806597430378E-006
  -30.3300000000000         3.551055802518173E-006
  -30.1400000000000         3.584791167306559E-006
  -29.9500000000000         3.618671386847415E-006
  -29.7600000000000         3.653710471338225E-006
  -29.5700000000000         3.690312224729692E-006
  -29.3800000000000         3.723910451527264E-006
  -29.1900000000000         3.759339013748707E-006
  -29.0000000000000         3.795197513676013E-006
  -28.8100000000000         3.831466269184057E-006
  -28.6200000000000         3.867364535201177E-006
  -28.4300000000000         3.907370870012548E-006
  -28.2400000000000         3.942770722438293E-006
  -28.0500000000000         3.980547892224770E-006
  -27.8600000000000         4.018837309475319E-006
  -27.6700000000000         4.057397455610419E-006
  -27.4800000000000         4.094779059627345E-006
  -27.2900000000000         4.133891300796359E-006
  -27.1000000000000         4.171263935123288E-006
  -26.9100000000000         4.210516285904620E-006
  -26.7200000000000         4.248234239239275E-006
  -26.5300000000000         4.286926716222626E-006
  -26.3400000000000         4.324862278621818E-006
  -26.1500000000000         4.364819947726955E-006
  -25.9600000000000         4.403180430239031E-006
  -25.7700000000000         4.442476907510777E-006
  -25.5800000000000         4.481788352808026E-006
  -25.3900000000000         4.521343018937626E-006
  -25.2000000000000         4.560771462068341E-006
  -25.0100000000000         4.599459085129159E-006
  -24.8200000000000         4.639971829589201E-006
  -24.6300000000000         4.679902199528492E-006
  -24.4400000000000         4.720001334457592E-006
  -24.2500000000000         4.760573051732686E-006
  -24.0600000000000         4.801125136570392E-006
  -23.8700000000000         4.841122918845637E-006
  -23.6800000000000         4.883055873959157E-006
  -23.4900000000000         4.923629719561815E-006
  -23.3000000000000         4.961975240588038E-006
  -23.1100000000000         5.007137665603646E-006
  -22.9200000000000         5.048349281995940E-006
  -22.7300000000000         5.090790460378454E-006
  -22.5400000000000         5.133871105547332E-006
  -22.3500000000000         5.177713993789631E-006
  -22.1600000000000         5.222368765055117E-006
  -21.9700000000000         5.267453821955029E-006
  -21.7800000000000         5.312776795468236E-006
  -21.5900000000000         5.356915806415037E-006
  -21.4000000000000         5.399680280439259E-006
  -21.2100000000000         5.448157055664363E-006
  -21.0200000000000         5.487943973420598E-006
  -20.8300000000000         5.531699910454326E-006
  -20.6400000000000         5.575924379242718E-006
  -20.4500000000000         5.620292655424412E-006
  -20.2600000000000         5.665214267294025E-006
  -20.0700000000000         5.709893433027246E-006
  -19.8800000000000         5.754963534502568E-006
  -19.6900000000000         5.800184083534202E-006
  -19.5000000000000         5.845525191905538E-006
  -19.3100000000000         5.891114550067061E-006
  -19.1200000000000         5.937012108827947E-006
  -18.9300000000000         5.983357118877654E-006
  -18.7400000000000         6.029826698501580E-006
  -18.5500000000000         6.076745155588506E-006
  -18.3600000000000         6.123705350835011E-006
  -18.1700000000000         6.170600685135279E-006
  -17.9800000000000         6.217247851564188E-006
  -17.7900000000000         6.263930412461237E-006
  -17.6000000000000         6.309708240290322E-006
  -17.4100000000000         6.357707872162361E-006
  -17.2200000000000         6.403846145074883E-006
  -17.0300000000000         6.452637744517832E-006
  -16.8400000000000         6.498389859682345E-006
  -16.6500000000000         6.546970374452069E-006
  -16.4600000000000         6.593826098659237E-006
  -16.2700000000000         6.642670225611565E-006
  -16.0800000000000         6.689722100800030E-006
  -15.8900000000000         6.738479459232885E-006
  -15.7000000000000         6.785485564288213E-006
  -15.5100000000000         6.833375631233964E-006
  -15.3200000000000         6.880165363418494E-006
  -15.1300000000000         6.927774177970506E-006
  -14.9400000000000         6.975325651304125E-006
  -14.7500000000000         7.022888856423587E-006
  -14.5600000000000         7.068492651651471E-006
  -14.3700000000000         7.117556689433613E-006
  -14.1800000000000         7.164683751302176E-006
  -13.9900000000000         7.212239453408846E-006
  -13.8000000000000         7.261684815821916E-006
  -13.6100000000000         7.311259763458952E-006
  -13.4200000000000         7.361592781027955E-006
  -13.2300000000000         7.412827135506229E-006
  -13.0400000000000         7.464600103319769E-006
  -12.8500000000000         7.516608891431617E-006
  -12.6600000000000         7.566334824930552E-006
  -12.4700000000000         7.619536303670465E-006
  -12.2800000000000         7.669099998123714E-006
  -12.0900000000000         7.719785117525216E-006
  -11.9000000000000         7.769626744621081E-006
  -11.7100000000000         7.821161403378593E-006
  -11.5200000000000         7.871051157452879E-006
  -11.3300000000000         7.922524802731038E-006
  -11.1400000000000         7.973448879210831E-006
  -10.9500000000000         8.024558293475708E-006
  -10.7600000000000         8.074960410486029E-006
  -10.5700000000000         8.127528434468638E-006
  -10.3800000000000         8.178739720473050E-006
  -10.1900000000000         8.230585369793034E-006
  -10.0000000000000         8.282505669870859E-006
  -9.81000000000000         8.334028517886364E-006
  -9.62000000000000         8.383530523777493E-006
  -9.42999999999999         8.435768456460088E-006
  -9.23999999999999         8.485167005623893E-006
  -9.05000000000000         8.535798766261354E-006
  -8.86000000000000         8.587978624735738E-006
  -8.67000000000000         8.638857892976968E-006
  -8.48000000000000         8.690321835087973E-006
  -8.28999999999999         8.744152805950069E-006
  -8.09999999999999         8.794964558129001E-006
  -7.91000000000000         8.848112136247689E-006
  -7.72000000000000         8.900649570364334E-006
  -7.53000000000000         8.955114055444588E-006
  -7.34000000000000         9.008759890600052E-006
  -7.15000000000001         9.062085119364875E-006
  -6.95999999999999         9.117922525439387E-006
  -6.77000000000000         9.173920393989308E-006
  -6.58000000000000         9.226101150206264E-006
  -6.39000000000000         9.279714663642593E-006
  -6.20000000000000         9.332799459840203E-006
  -6.01000000000001         9.386056383994890E-006
  -5.81999999999999         9.439479506560366E-006
  -5.63000000000000         9.492466958057348E-006
  -5.44000000000000         9.545452364339908E-006
  -5.25000000000000         9.598436460730220E-006
  -5.06000000000000         9.651658404072637E-006
  -4.87000000000000         9.704986570371568E-006
  -4.67999999999999         9.758561050931500E-006
  -4.48999999999999         9.811313140858382E-006
  -4.30000000000000         9.865664253845275E-006
  -4.11000000000000         9.918919853514426E-006
  -3.92000000000000         9.973534257067178E-006
  -3.73000000000000         1.002701830997620E-005
  -3.53999999999999         1.008041659458820E-005
  -3.34999999999999         1.013386570345457E-005
  -3.16000000000000         1.018707360143814E-005
  -2.97000000000000         1.024014977082174E-005
  -2.78000000000000         1.029307580690007E-005
  -2.59000000000000         1.034510719605099E-005
  -2.40000000000001         1.039859511869007E-005
  -2.20999999999999         1.045197439807976E-005
  -2.02000000000000         1.050519155201577E-005
  -1.83000000000000         1.055755263144225E-005
  -1.64000000000000         1.061127763394745E-005
  -1.45000000000000         1.066397269295539E-005
  -1.26000000000001         1.071780618491335E-005
  -1.06999999999999         1.076999876334569E-005
 -0.879999999999995         1.082385706439923E-005
 -0.689999999999998         1.087704669809285E-005
 -0.500000000000000         1.093169840024662E-005
 -0.310000000000002         1.098541714327175E-005
 -0.120000000000005         1.103945141611653E-005
  7.000000000000739E-002    1.109384672047937E-005
  0.260000000000005         1.114934124432490E-005
  0.450000000000003         1.120394720774277E-005
  0.640000000000001         1.125881931393749E-005
  0.829999999999998         1.131432939900759E-005
   1.02000000000000         1.137028415400669E-005
   1.21000000000001         1.142561079703751E-005
   1.40000000000001         1.148258842880084E-005
   1.59000000000000         1.153846011041156E-005
   1.78000000000000         1.159444441527871E-005
   1.97000000000000         1.164968797999288E-005
   2.16000000000000         1.170523754489409E-005
   2.34999999999999         1.176101822004043E-005
   2.54000000000001         1.181669081706534E-005
   2.73000000000000         1.187247080462996E-005
   2.92000000000000         1.192796221108017E-005
   3.11000000000000         1.198315381620430E-005
   3.30000000000000         1.203720291051764E-005
   3.48999999999999         1.209257633785219E-005
   3.68000000000001         1.214612454847858E-005
   3.87000000000000         1.220182747499821E-005
   4.06000000000000         1.225601738782933E-005
   4.25000000000000         1.231043707613204E-005
   4.44000000000000         1.236521664563619E-005
   4.63000000000000         1.241980009716158E-005
   4.82000000000001         1.247395154267128E-005
   5.01000000000001         1.252598374898591E-005
   5.20000000000000         1.258000215239447E-005
   5.39000000000000         1.263211466718652E-005
   5.58000000000000         1.268608217015148E-005
   5.77000000000000         1.274011190287650E-005
   5.96000000000001         1.279189127945808E-005
   6.15000000000001         1.284554410905973E-005
   6.34000000000000         1.289739913088453E-005
   6.53000000000000         1.294921749169960E-005