  -105.000000000000         0.000000000000000E+000
  -104.810000000000         1.302690208158563E-011
  -104.620000000000        -1.176551807006975E-011
  -104.430000000000        -2.767113320535751E-011
  -104.240000000000        -3.916617563732713E-012
  -104.050000000000         4.614333799167983E-011
  -103.860000000000         6.707127336400914E-011
  -103.670000000000         2.986465742933077E-011
  -103.480000000000        -3.131992374522061E-011
  -103.290000000000        -2.692517174930339E-011
  -103.100000000000        -7.142760687650682E-011
  -102.910000000000        -7.164835860740944E-011
  -102.720000000000        -4.703943522020991E-011
  -102.530000000000         1.751776897083736E-010
  -102.340000000000         4.261740729121052E-010
  -102.150000000000         6.685440378141074E-010
  -101.960000000000         9.237189189553298E-010
  -101.770000000000         1.321596968819051E-009
  -101.580000000000         1.645236626410350E-009
  -101.390000000000         2.033094535024332E-009
  -101.200000000000         2.517653657147575E-009
  -101.010000000000         3.226935258989268E-009
  -100.820000000000         3.890448977906154E-009
  -100.630000000000         4.528364857329594E-009
  -100.440000000000         5.214040083114158E-009
  -100.250000000000         6.014721833569776E-009
  -100.060000000000         6.801375553245962E-009
  -99.8700000000000         7.619767123766626E-009
  -99.6800000000000         8.542291446822350E-009
  -99.4900000000000         9.549888948043850E-009
  -99.3000000000000         1.056313257854509E-008
  -99.1100000000000         1.155524069713570E-008
  -98.9200000000000         1.255909848892168E-008
  -98.7300000000000         1.356352031389140E-008
  -98.5400000000000         1.451327488643408E-008
  -98.3500000000000         1.555763414408381E-008
  -98.1600000000000         1.671950024936435E-008
  -97.9700000000000         1.793870001949345E-008
  -97.7800000000000         1.905554288687901E-008
  -97.5900000000000         1.998762819345522E-008
  -97.4000000000000         2.083577157509091E-008
  -97.2100000000000         2.150724552708195E-008
  -97.0200000000000         2.200115060374733E-008
  -96.8300000000000         2.221274687271269E-008
  -96.6400000000000         2.207095729181741E-008
  -96.4500000000000         2.225406964377326E-008
  -96.2600000000000         2.195502914039742E-008
  -96.0700000000000         2.209246325943913E-008
  -95.8800000000000         2.174575320575264E-008
  -95.6900000000000         2.195402607137892E-008
  -95.5000000000000         2.183114750766887E-008
  -95.3100000000000         2.175870923317298E-008
  -95.1200000000000         2.169243203576994E-008
  -94.9300000000000         2.148926927305149E-008
  -94.7400000000000         2.133545284596198E-008
  -94.5500000000000         2.110713463727337E-008
  -94.3600000000000         2.090650552434786E-008
  -94.1700000000000         2.081629402870981E-008
  -93.9800000000000         2.082778835056209E-008
  -93.7900000000000         2.085403203600629E-008
  -93.6000000000000         2.086465127917453E-008
  -93.4100000000000         2.066530764311573E-008
  -93.2200000000000         2.085259530754342E-008
  -93.0300000000000         2.078783078470496E-008
  -92.8400000000000         2.143305092057410E-008
  -92.6500000000000         2.180976659738794E-008
  -92.4600000000000         2.275837027444957E-008
  -92.2700000000000         2.290129279507608E-008
  -92.0800000000000         2.332459984122436E-008
  -91.8900000000000         2.362616811343720E-008
  -91.7000000000000         2.375172977215168E-008
  -91.5100000000000         2.376599747359497E-008
  -91.3200000000000         2.396935035957106E-008
  -91.1300000000000         2.451410731116733E-008
  -90.9400000000000         2.523478984178629E-008
  -90.7500000000000         2.622064987818406E-008
  -90.5600000000000         2.696876749676871E-008
  -90.3700000000000         2.759390901495022E-008
  -90.1800000000000         2.805117693791431E-008
  -89.9900000000000         2.828015446209951E-008
  -89.8000000000000         2.788207969828071E-008
  -89.6100000000000         2.812447903779081E-008
  -89.4200000000000         2.766364194169552E-008
  -89.2300000000000         2.766716115835085E-008
  -89.0400000000000         2.752691065597245E-008
  -88.8500000000000         2.734365700769350E-008
  -88.6600000000000         2.714298090468356E-008
  -88.4700000000000         2.692644198270702E-008
  -88.2800000000000         2.674936680293696E-008
  -88.0900000000000         2.668123393408826E-008
  -87.9000000000000         2.679367024417067E-008
  -87.7100000000000         2.717403029542192E-008
  -87.5200000000000         2.797610846270904E-008
  -87.3300000000000         2.989444085985225E-008
  -87.1400000000000         3.216334155962089E-008
  -86.9500000000000         3.477662323751274E-008
  -86.7600000000000         3.755111811989233E-008
  -86.5700000000000         4.032834157435146E-008
  -86.3800000000000         4.305153191071704E-008
  -86.1900000000000         4.576157759710222E-008
  -86.0000000000000         4.849700806889126E-008
  -85.8100000000000         5.126362098943295E-008
  -85.6200000000000         5.410410929589493E-008
  -85.4300000000000         5.674673236451832E-008
  -85.2400000000000         5.934669271787222E-008
  -85.0500000000000         6.164194603759210E-008
  -84.8600000000000         6.321261109889355E-008
  -84.6700000000000         6.561683943507695E-008
  -84.4800000000000         6.681026946555588E-008
  -84.2900000000000         6.828784136446177E-008
  -84.1000000000000         7.081881803531199E-008
  -83.9100000000000         7.244775283016999E-008
  -83.7200000000000         7.427513020302726E-008
  -83.5300000000000         7.599656036835938E-008
  -83.3400000000000         7.806241856215750E-008
  -83.1500000000000         7.851176324213866E-008
  -82.9600000000000         7.938006952872053E-008
  -82.7700000000000         7.893112902356618E-008
  -82.5800000000000         7.961423403406758E-008
  -82.3900000000000         7.922602816918177E-008
  -82.2000000000000         7.954132556959583E-008
  -82.0100000000000         8.035502489485550E-008
  -81.8200000000000         8.083867429465291E-008
  -81.6300000000000         8.181076799061645E-008
  -81.4400000000000         8.280593521956287E-008
  -81.2500000000000         8.390387649617274E-008
  -81.0600000000000         8.516996550445543E-008
  -80.8700000000000         8.656619579509712E-008
  -80.6800000000000         8.794159312864060E-008
  -80.4900000000000         8.947699309506608E-008
  -80.3000000000000         9.192313340904997E-008
  -80.1100000000000         9.270694787312469E-008
  -79.9200000000000         9.484457169048870E-008
  -79.7300000000000         9.534838719487790E-008
  -79.5400000000000         9.628311546259006E-008
  -79.3500000000000         9.722314685164365E-008
  -79.1600000000000         9.810405627677318E-008
  -78.9700000000000         9.918519373725276E-008
  -78.7800000000000         1.006840119789014E-007
  -78.5900000000000         1.022959531597943E-007
  -78.4000000000000         1.040747503912653E-007
  -78.2100000000000         1.060804289972771E-007
  -78.0200000000000         1.081940615793344E-007
  -77.8300000000000         1.101406412627920E-007
  -77.6400000000000         1.116066855730359E-007
  -77.4500000000000         1.126536540650460E-007
  -77.2600000000000         1.138949176579184E-007
  -77.0700000000000         1.153247379032143E-007
  -76.8800000000000         1.167161278749030E-007
  -76.6900000000000         1.179871944398452E-007
  -76.5000000000000         1.194960631305963E-007
  -76.3100000000000         1.211815603641611E-007
  -76.1200000000000         1.217207162180245E-007
  -75.9300000000000         1.234059334808213E-007
  -75.7400000000000         1.251414329308758E-007
  -75.5500000000000         1.272239672036920E-007
  -75.3600000000000         1.295881378096804E-007
  -75.1700000000000         1.321579520903307E-007
  -74.9800000000000         1.347443487963577E-007
  -74.7900000000000         1.370870683173008E-007
  -74.6000000000000         1.391722064336496E-007
  -74.4100000000000         1.418697783695710E-007
  -74.2200000000000         1.451754374506087E-007
  -74.0300000000000         1.459548866857442E-007
  -73.8400000000000         1.490934720162654E-007
  -73.6500000000000         1.516109779415345E-007
  -73.4600000000000         1.539707276889078E-007
  -73.2700000000000         1.563038560513072E-007
  -73.0800000000000         1.585993034560787E-007
  -72.8900000000000         1.613680731798570E-007
  -72.7000000000000         1.649467693607706E-007
  -72.5100000000000         1.692060605542910E-007
  -72.3200000000000         1.738979087988899E-007
  -72.1300000000000         1.787542436207688E-007
  -71.9400000000000         1.851838723094657E-007
  -71.7500000000000         1.882230083396606E-007
  -71.5600000000000         1.934773966227921E-007
  -71.3700000000000         1.955639841473824E-007
  -71.1800000000000         2.005353908026968E-007
  -70.9900000000000         2.019027839119947E-007
  -70.8000000000000         2.060941286344128E-007
  -70.6100000000000         2.087928783389980E-007
  -70.4200000000000         2.113710746362538E-007
  -70.2300000000000         2.140093398417583E-007
  -70.0400000000000         2.168474629738282E-007
  -69.8500000000000         2.201924247540414E-007
  -69.6600000000000         2.241830726958878E-007
  -69.4700000000000         2.285954434999797E-007
  -69.2800000000000         2.332831971255216E-007
  -69.0900000000000         2.380709220458664E-007
  -68.9000000000000         2.426524208261736E-007
  -68.7100000000000         2.467875166238040E-007
  -68.5200000000000         2.503975086531344E-007
  -68.3300000000000         2.536897734898061E-007
  -68.1400000000000         2.567110877762585E-007
  -67.9500000000000         2.575012624660147E-007
  -67.7600000000000         2.614651849351967E-007
  -67.5700000000000         2.643136336609749E-007
  -67.3800000000000         2.671739346891569E-007
  -67.1900000000000         2.704295342193081E-007
  -67.0000000000000         2.741973587708875E-007
  -66.8100000000000         2.787191918527805E-007
  -66.6200000000000         2.839980218885644E-007
  -66.4300000000000         2.900361749862074E-007
  -66.2400000000000         2.965277458267054E-007
  -66.0500000000000         3.035120375637415E-007
  -65.8600000000000         3.109313435509050E-007
  -65.6700000000000         3.186133244884445E-007
  -65.4800000000000         3.261757838820173E-007
  -65.2900000000000         3.335063973258297E-007
  -65.1000000000000         3.405193892840108E-007
  -64.9100000000000         3.470782924800720E-007
  -64.7200000000000         3.531394307441170E-007
  -64.5300000000000         3.588132974132710E-007
  -64.3400000000000         3.644878574886142E-007
  -64.1500000000000         3.697116138353792E-007
  -63.9600000000000         3.751988101046797E-007
  -63.7700000000000         3.809780950025525E-007
  -63.5800000000000         3.869801871765601E-007
  -63.3900000000000         3.931779031900356E-007
  -63.2000000000000         3.995985008092486E-007
  -63.0100000000000         4.062099229426632E-007
  -62.8200000000000         4.128776970376253E-007
  -62.6300000000000         4.195337198003972E-007
  -62.4400000000000         4.255314897876964E-007
  -62.2500000000000         4.314393498758741E-007
  -62.0600000000000         4.370288344851273E-007
  -61.8700000000000         4.418648465867833E-007
  -61.6800000000000         4.465778732444242E-007
  -61.4900000000000         4.515515889776165E-007
  -61.3000000000000         4.575086447186971E-007
  -61.1100000000000         4.633395419886793E-007
  -60.9200000000000         4.693799693502512E-007
  -60.7300000000000         4.755160157817133E-007
  -60.5400000000000         4.824108845350556E-007
  -60.3500000000000         4.887917845647605E-007
  -60.1600000000000         4.950926914225750E-007
  -59.9700000000000         5.015076525221196E-007
  -59.7800000000000         5.085042474124168E-007
  -59.5900000000000         5.156095966870737E-007
  -59.4000000000000         5.230189726302900E-007
  -59.2100000000000         5.298794190969122E-007
  -59.0200000000000         5.373415954982293E-007
  -58.8300000000000         5.442862447272609E-007
  -58.6400000000000         5.503093384666199E-007
  -58.4500000000000         5.574504553575263E-007
  -58.2600000000000         5.643911687395675E-007
  -58.0700000000000         5.720313825887791E-007
  -57.8800000000000         5.798209693217819E-007
  -57.6900000000000         5.877935256619672E-007
  -57.5000000000000         5.964943489941659E-007
  -57.3100000000000         6.052950108521784E-007
  -57.1200000000000         6.135949109176367E-007
  -56.9300000000000         6.220167109692644E-007
  -56.7400000000000         6.314784723265196E-007
  -56.5500000000000         6.418707374960491E-007
  -56.3600000000000         6.512212325953635E-007
  -56.1700000000000         6.610848689385169E-007
  -55.9800000000000         6.713789036196448E-007
  -55.7900000000000         6.821005360423380E-007
  -55.6000000000000         6.924684023946980E-007
  -55.4100000000000         7.032418157925644E-007
  -55.2200000000000         7.146282815565881E-007
  -55.0300000000000         7.266435355091039E-007
  -54.8400000000000         7.375498854931688E-007
  -54.6500000000000         7.491202585279462E-007
  -54.4600000000000         7.606459342333079E-007
  -54.2700000000000         7.724552375469427E-007
  -54.0800000000000         7.844020754186116E-007
  -53.8900000000000         7.965974647125516E-007
  -53.7000000000000         8.091044615829621E-007
  -53.5100000000000         8.217914568959348E-007
  -53.3200000000000         8.344346504681553E-007
  -53.1300000000000         8.469822538917356E-007
  -52.9400000000000         8.601294689620113E-007
  -52.7500000000000         8.723770487326314E-007
  -52.5600000000000         8.854203369984764E-007
  -52.3700000000000         8.989727832711961E-007
  -52.1800000000000         9.125614235166742E-007
  -51.9900000000000         9.264445052599857E-007
  -51.8000000000000         9.405376014068024E-007
  -51.6100000000000         9.543841814178579E-007
  -51.4200000000000         9.692296262272374E-007
  -51.2300000000000         9.834850769043970E-007
  -51.0400000000000         9.981259986254988E-007
  -50.8500000000000         1.012554165655960E-006
  -50.6600000000000         1.027038873923405E-006
  -50.4700000000000         1.041050947346984E-006
  -50.2800000000000         1.054791137331860E-006
  -50.0900000000000         1.068308054899544E-006
  -49.9000000000000         1.081014842763166E-006
  -49.7100000000000         1.096056451017371E-006
  -49.5200000000000         1.109090139504574E-006
  -49.3300000000000         1.123186361728023E-006
  -49.1400000000000         1.138613882777138E-006
  -48.9500000000000         1.151902811505583E-006
  -48.7600000000000         1.166288850405455E-006
  -48.5700000000000         1.180778490404100E-006
  -48.3800000000000         1.194158472840762E-006
  -48.1900000000000         1.208885161199954E-006
  -48.0000000000000         1.222516198557038E-006
  -47.8100000000000         1.236751483161755E-006
  -47.6200000000000         1.250259254442440E-006
  -47.4300000000000         1.264253292057978E-006
  -47.2400000000000         1.278036667422406E-006
  -47.0500000000000         1.292907363152477E-006
  -46.8600000000000         1.307931895264460E-006
  -46.6700000000000         1.324275448677649E-006
  -46.4800000000000         1.340532517017094E-006
  -46.2900000000000         1.356092628583321E-006
  -46.1000000000000         1.371381438558690E-006
  -45.9100000000000         1.387199408491805E-006
  -45.7200000000000         1.403089127022757E-006
  -45.5300000000000         1.418953851594330E-006
  -45.3400000000000         1.435968874641511E-006
  -45.1500000000000         1.453456728363431E-006
  -44.9600000000000         1.472192658405881E-006
  -44.7700000000000         1.489838001995896E-006
  -44.5800000000000         1.508416147878179E-006
  -44.3900000000000         1.526175929439945E-006
  -44.2000000000000         1.543712529442073E-006
  -44.0100000000000         1.561515063274516E-006
  -43.8200000000000         1.580105891302877E-006
  -43.6300000000000         1.600319165649398E-006
  -43.4400000000000         1.619745916023302E-006
  -43.2500000000000         1.637936562433453E-006
  -43.0600000000000         1.659117548759231E-006
  -42.8700000000000         1.679388130870937E-006
  -42.6800000000000         1.700069521211698E-006
  -42.4900000000000         1.720422639428347E-006
  -42.3000000000000         1.740069246207874E-006
  -42.1100000000000         1.762466366726428E-006
  -41.9200000000000         1.782103600341402E-006
  -41.7300000000000         1.802927574667110E-006
  -41.5400000000000         1.824877284393616E-006
  -41.3500000000000         1.845104694294670E-006
  -41.1600000000000         1.868847322788289E-006
  -40.9700000000000         1.891134516628054E-006
  -40.7800000000000         1.912052404148366E-006
  -40.5900000000000         1.936317316074784E-006
  -40.4000000000000         1.957441114042841E-006
  -40.2100000000000         1.979575308144231E-006
  -40.0200000000000         2.001814524947302E-006
  -39.8300000000000         2.025564542136822E-006
  -39.6400000000000         2.047480289776049E-006
  -39.4500000000000         2.072190205711468E-006
  -39.2600000000000         2.095166684708375E-006
  -39.0700000000000         2.120429986547823E-006
  -38.8800000000000         2.143592657525448E-006
  -38.6900000000000         2.168410228834084E-006
  -38.5000000000000         2.194320941132858E-006
  -38.3100000000000         2.220026842547949E-006
  -38.1200000000000         2.244791459477951E-006
  -37.9300000000000         2.270709237263338E-006
  -37.7400000000000         2.294847166533567E-006
  -37.5500000000000         2.319038360868801E-006
  -37.3600000000000         2.344508147971618E-006
  -37.1700000000000         2.370021987871496E-006
  -36.9800000000000         2.395281367095499E-006
  -36.7900000000000         2.421310413546324E-006
  -36.6000000000000         2.447477827004779E-006
  -36.4100000000000         2.472238080642137E-006
  -36.2200000000000         2.498150137042411E-006
  -36.0300000000000         2.525675237669925E-006
  -35.8400000000000         2.552087847957050E-006
  -35.6500000000000         2.577518022741733E-006
  -35.4600000000000         2.604649967290869E-006
  -35.2700000000000         2.633396575291232E-006
  -35.0800000000000         2.659526404815673E-006
  -34.8900000000000         2.685291918164284E-006
  -34.7000000000000         2.712849947215227E-006
  -34.5100000000000         2.739221539873716E-006
  -34.3200000000000         2.766121891383082E-006
  -34.1300000000000         2.793291568240864E-006
  -33.9400000000000         2.821535712121856E-006
  -33.7500000000000         2.849914348340380E-006
  -33.5600000000000         2.877665820879560E-006
  -33.3700000000000         2.905856147983300E-006
  -33.1800000000000         2.933872722810460E-006
  -32.9900000000000         2.960050322267482E-006
  -32.8000000000000         2.988958810869752E-006
  -32.6100000000000         3.016747052643023E-006
  -32.4200000000000         3.044995843253658E-006
  -32.2300000000000         3.073719508762712E-006
  -32.0400000000000         3.102953916369654E-006
  -31.8500000000000         3.131017587986181E-006
  -31.6600000000000         3.162286114741156E-006
  -31.4700000000000         3.190912743815888E-006
  -31.2800000000000         3.221046107188779E-006
  -31.0900000000000         3.250747466148137E-006
  -30.9000000000000         3.281335468194803E-006
  -30.7100000000000         3.313080848052564E-006
  -30.5200000000000         3.343719983855341E-006
  -30.3300000000000         3.375053712699077E-006
  -30.1400000000000         3.406887398682788E-006
  -29.9500000000000         3.438910757555775E-006
  -29.7600000000000         3.472139281323003E-006
  -29.5700000000000         3.506956654034592E-006
  -29.3800000000000         3.538816171969166E-006
  -29.1900000000000         3.572417374312939E-006
  -29.0000000000000         3.606334645158347E-006
  -28.8100000000000         3.640528583006911E-006
  -28.6200000000000         3.674242995980803E-006
  -28.4300000000000         3.711898330049423E-006
  -28.2400000000000         3.744994528415060E-006
  -28.0500000000000         3.780357329619113E-006
  -27.8600000000000         3.816194436729222E-006
  -27.6700000000000         3.852292421034296E-006
  -27.4800000000000         3.887260563712977E-006
  -27.2900000000000         3.923986704760754E-006
  -27.1000000000000         3.959078841535446E-006
  -26.9100000000000         3.996082478858013E-006
  -26.7200000000000         4.031569641998836E-006
  -26.5300000000000         4.067958532900173E-006
  -26.3400000000000         4.103496430994154E-006
  -26.1500000000000         4.140911592557105E-006
  -25.9600000000000         4.176664121894091E-006
  -25.7700000000000         4.213280786862937E-006
  -25.5800000000000         4.249901225747351E-006
  -25.3900000000000         4.286765089622666E-006
  -25.2000000000000         4.323509395563753E-006
  -25.0100000000000         4.359533255839696E-006
  -24.8200000000000         4.397362254931484E-006
  -24.6300000000000         4.434674363856862E-006
  -24.4400000000000         4.472218355275847E-006
  -24.2500000000000         4.510306177688797E-006
  -24.0600000000000         4.548442333306664E-006
  -23.8700000000000         4.586064796638713E-006
  -23.6800000000000         4.625617612894570E-006
  -23.4900000000000         4.663813829279304E-006
  -23.3000000000000         4.699818670502584E-006
  -23.1100000000000         4.742542246944511E-006
  -22.9200000000000         4.781378004381863E-006
  -22.7300000000000         4.821416999494725E-006
  -22.5400000000000         4.862053010267229E-006
  -22.3500000000000         4.903381552636747E-006
  -22.1600000000000         4.945444326129104E-006
  -21.9700000000000         4.987883432534492E-006
  -21.7800000000000         5.030546645975565E-006
  -21.5900000000000         5.072066938976544E-006
  -21.4000000000000         5.112284574508102E-006
  -21.2100000000000         5.158175099287073E-006
  -21.0200000000000         5.195517747986976E-006
  -20.8300000000000         5.236741852959648E-006
  -20.6400000000000         5.278375391730471E-006
  -20.4500000000000         5.320061948720714E-006
  -20.2600000000000         5.362198032643703E-006
  -20.0700000000000         5.404034690221050E-006
  -19.8800000000000         5.446231711514404E-006
  -19.6900000000000         5.488610166547701E-006
  -19.5000000000000         5.531180380784252E-006
  -19.3100000000000         5.574078098442723E-006
  -19.1200000000000         5.617342097700424E-006
  -18.9300000000000         5.661074518432986E-006
  -18.7400000000000         5.704929026725828E-006
  -18.5500000000000         5.749214662506596E-006
  -18.3600000000000         5.793539440782550E-006
  -18.1700000000000         5.837814960624803E-006
  -17.9800000000000         5.881870488589327E-006
  -17.7900000000000         5.925974876346167E-006
  -17.6000000000000         5.969163087981759E-006
  -17.4100000000000         6.014506875499809E-006
  -17.2200000000000         6.057953893188021E-006
  -17.0300000000000         6.103980226544721E-006
  -16.8400000000000         6.146982969476024E-006
  -16.6500000000000         6.192779376270067E-006
  -16.4600000000000         6.236863417584549E-006
  -16.2700000000000         6.282885122176847E-006
  -16.0800000000000         6.327053378726864E-006
  -15.8900000000000         6.372809048379806E-006
  -15.7000000000000         6.416741172264509E-006
  -15.5100000000000         6.461485307052354E-006
  -15.3200000000000         6.505120197718423E-006
  -15.1300000000000         6.549582354501498E-006
  -14.9400000000000         6.594021004530339E-006
  -14.7500000000000         6.638499078079319E-006
  -14.5600000000000         6.681027730477239E-006
  -14.3700000000000         6.727066412369830E-006
  -14.1800000000000         6.771214268692923E-006
  -13.9900000000000         6.815853462338453E-006
  -13.8000000000000         6.862448267307882E-006
  -13.6100000000000         6.909172926447766E-006
  -13.4200000000000         6.956605095461662E-006
  -13.2300000000000         7.004839629564724E-006
  -13.0400000000000         7.053495138506629E-006
  -12.8500000000000         7.102293240542410E-006
  -12.6600000000000         7.148739314864341E-006
  -12.4700000000000         7.198658092110311E-006
  -12.2800000000000         7.244874007818183E-006
  -12.0900000000000         7.292147969242678E-006
  -11.9000000000000         7.338486371047896E-006
  -11.7100000000000         7.386441262483599E-006
  -11.5200000000000         7.432727212567770E-006
  -11.3300000000000         7.480648427755727E-006
  -11.1400000000000         7.528138037398764E-006
  -10.9500000000000         7.575933346573403E-006
  -10.7600000000000         7.623067693405821E-006
  -10.5700000000000         7.672369082679531E-006
  -10.3800000000000         7.720180323182205E-006
  -10.1900000000000         7.768492802755352E-006
  -10.0000000000000         7.816754446181058E-006
  -9.81000000000000         7.864538700005820E-006
  -9.62000000000000         7.910260442735336E-006
  -9.42999999999999         7.958668037491065E-006
  -9.23999999999999         8.004179297710639E-006
  -9.05000000000000         8.050818395684745E-006
  -8.86000000000000         8.098915584710586E-006
  -8.67000000000000         8.145716474783296E-006
  -8.48000000000000         8.193150113109901E-006
  -8.28999999999999         8.243075873308996E-006
  -8.09999999999999         8.290109805967626E-006
  -7.91000000000000         8.339555540002338E-006
  -7.72000000000000         8.388365378126511E-006
  -7.53000000000000         8.439021507308922E-006
  -7.34000000000000         8.488759655004361E-006
  -7.15000000000001         8.538122791536545E-006
  -6.95999999999999         8.589984667476374E-006
  -6.77000000000000         8.642053960096329E-006
  -6.58000000000000         8.690327086697304E-006
  -6.39000000000000         8.739985216324049E-006
  -6.20000000000000         8.789034369613555E-006
  -6.01000000000001         8.838125628267420E-006
  -5.81999999999999         8.887286086605728E-006
  -5.63000000000000         8.936003233317128E-006
  -5.44000000000000         8.984763180700952E-006
  -5.25000000000000         9.033613494630639E-006
  -5.06000000000000         9.082782706088287E-006
  -4.87000000000000         9.132104472808405E-006
  -4.67999999999999         9.181668362387000E-006
  -4.48999999999999         9.230408168669370E-006
  -4.30000000000000         9.280681560804503E-006
  -4.11000000000000         9.329904270913823E-006
  -3.92000000000000         9.380448515291411E-006
  -3.73000000000000         9.429901436117815E-006
  -3.53999999999999         9.479234042805078E-006
  -3.34999999999999         9.528572970897664E-006
  -3.16000000000000         9.577637689216273E-006
  -2.97000000000000         9.626559711921646E-006
  -2.78000000000000         9.675364889112743E-006
  -2.59000000000000         9.723364474238469E-006
  -2.40000000000001         9.772821492193353E-006
  -2.20999999999999         9.822257082809134E-006
  -2.02000000000000         9.871556661442516E-006
  -1.83000000000000         9.920024660866617E-006
  -1.64000000000000         9.969785300073073E-006
  -1.45000000000000         1.001854714686844E-005
  -1.26000000000001         1.006834283414093E-005
  -1.06999999999999         1.011652261553446E-005
 -0.879999999999995         1.016614535019142E-005
 -0.689999999999998         1.021508943882104E-005
 -0.500000000000000         1.026528654113542E-005
 -0.310000000000002         1.031462201410728E-005
 -0.120000000000005         1.036423520299157E-005
  7.000000000000739E-002    1.041427668607222E-005
  0.260000000000005         1.046544995421804E-005
  0.450000000000003         1.051585681725029E-005
  0.640000000000001         1.056645851241190E-005
  0.829999999999998         1.061757854289289E-005
   1.02000000000000         1.066899944738904E-005
   1.21000000000001         1.071973528218155E-005
   1.40000000000001         1.077186755323960E-005
   1.59000000000000         1.082303880300859E-005
   1.78000000000000         1.087424199265735E-005
   1.97000000000000         1.092479622481731E-005
   2.16000000000000         1.097554287357636E-005
   2.34999999999999         1.102646800535104E-005
   2.54000000000001         1.107724464541997E-005
   2.73000000000000         1.112808642936762E-005
   2.92000000000000         1.117872606034529E-005
   3.11000000000000         1.122917152610997E-005
   3.30000000000000         1.127869462480473E-005
   3.48999999999999         1.132937594445620E-005
   3.68000000000001         1.137858363629469E-005
   3.87000000000000         1.142943799672116E-005
   4.06000000000000         1.147908606417720E-005
   4.25000000000000         1.152862899246399E-005
   4.44000000000000         1.157847937030412E-005
   4.63000000000000         1.162813273752353E-005
   4.82000000000001         1.167738927530484E-005
   5.01000000000001         1.172480911400256E-005
   5.20000000000000         1.177369150036592E-005
   5.39000000000000         1.182124174593420E-005
   5.58000000000000         1.187006979443116E-005
   5.77000000000000         1.191932692947988E-005
   5.96000000000001         1.196667710997949E-005
   6.15000000000001         1.201554594463894E-005
   6.34000000000000         1.206324408119459E-005
   6.53000000000000         1.211066724905358E-005