  -105.000000000000         0.000000000000000E+000
  -104.810000000000         5.316927849498093E-011
  -104.620000000000         8.278384248228669E-011
  -104.430000000000         9.965362991535270E-011
  -104.240000000000         1.037181400455866E-010
  -104.050000000000         1.083588600513343E-010
  -103.860000000000         1.168031708958288E-010
  -103.670000000000         1.402358843370801E-010
  -103.480000000000         2.094887183439624E-010
  -103.290000000000         3.685397353759082E-010
  -103.100000000000         4.101084154651143E-010
  -102.910000000000         3.731165226012604E-010
  -102.720000000000         2.002581966925018E-010
  -102.530000000000         1.166219355428836E-010
  -102.340000000000         3.070857837164210E-011
  -102.150000000000        -1.473090682915862E-011
  -101.960000000000         1.615771713543920E-011
  -101.770000000000         2.100179973189282E-010
  -101.580000000000         2.673890697918145E-010
  -101.390000000000         3.028786525478535E-010
  -101.200000000000         3.372159612330309E-010
  -101.010000000000         5.836951984922180E-010
  -100.820000000000         8.906389623621439E-010
  -100.630000000000         1.354106990474039E-009
  -100.440000000000         2.050805962094272E-009
  -100.250000000000         2.910369468711801E-009
  -100.060000000000         3.805602444219583E-009
  -99.8700000000000         4.636367172739745E-009
  -99.6800000000000         5.487897143235580E-009
  -99.4900000000000         6.418185178451084E-009
  -99.3000000000000         7.410691644834072E-009
  -99.1100000000000         8.467343812373404E-009
  -98.9200000000000         9.552069416641589E-009
  -98.7300000000000         1.054615063859122E-008
  -98.5400000000000         1.131548441214982E-008
  -98.3500000000000         1.190983772931563E-008
  -98.1600000000000         1.247628186070992E-008
  -97.9700000000000         1.308919638857709E-008
  -97.7800000000000         1.375178796282931E-008
  -97.5900000000000         1.446931933780750E-008
  -97.4000000000000         1.523986952678964E-008
  -97.2100000000000         1.598837091919806E-008
  -97.0200000000000         1.659156575786991E-008
  -96.8300000000000         1.697940391369369E-008
  -96.6400000000000         1.702198722134244E-008
  -96.4500000000000         1.746699889966752E-008
  -96.2600000000000         1.756497858627331E-008
  -96.0700000000000         1.809906036693326E-008
  -95.8800000000000         1.823974103591647E-008
  -95.6900000000000         1.870863965140152E-008
  -95.5000000000000         1.869845987782953E-008
  -95.3100000000000         1.862091264046073E-008
  -95.1200000000000         1.839318945929999E-008
  -94.9300000000000         1.812013575740225E-008
  -94.7400000000000         1.808833772534673E-008
  -94.5500000000000         1.810769272844503E-008
  -94.3600000000000         1.821556712297968E-008
  -94.1700000000000         1.841993150627387E-008
  -93.9800000000000         1.865127130789356E-008
  -93.7900000000000         1.880593001656285E-008
  -93.6000000000000         1.888301085591087E-008
  -93.4100000000000         1.858994979196194E-008
  -93.2200000000000         1.867231910033212E-008
  -93.0300000000000         1.820002264744203E-008
  -92.8400000000000         1.832930179072335E-008
  -92.6500000000000         1.790123660252582E-008
  -92.4600000000000         1.781363533327709E-008
  -92.2700000000000         1.685044848803277E-008
  -92.0800000000000         1.612400726672467E-008
  -91.8900000000000         1.525283493962191E-008
  -91.7000000000000         1.417584582731482E-008
  -91.5100000000000         1.292030147548031E-008
  -91.3200000000000         1.177339840374848E-008
  -91.1300000000000         1.092239903459087E-008
  -90.9400000000000         1.029756758127340E-008
  -90.7500000000000         1.011027196683658E-008
  -90.5600000000000         9.877685908618737E-009
  -90.3700000000000         9.755964377368373E-009
  -90.1800000000000         9.605054304003097E-009
  -89.9900000000000         9.262610352491434E-009
  -89.8000000000000         8.481313383383107E-009
  -89.6100000000000         8.030550263207403E-009
  -89.4200000000000         7.246822929394938E-009
  -89.2300000000000         7.033973603481362E-009
  -89.0400000000000         6.991792524608551E-009
  -88.8500000000000         7.134527414821984E-009
  -88.6600000000000         7.337504996458451E-009
  -88.4700000000000         7.432444680257693E-009
  -88.2800000000000         7.336420425024886E-009
  -88.0900000000000         7.094729399776514E-009
  -87.9000000000000         6.828691481366469E-009
  -87.7100000000000         6.673942556542214E-009
  -87.5200000000000         6.825752798003564E-009
  -87.3300000000000         7.982567006115466E-009
  -87.1400000000000         9.395656721945686E-009
  -86.9500000000000         1.099757948426523E-008
  -86.7600000000000         1.266790400668762E-008
  -86.5700000000000         1.440551481184812E-008
  -86.3800000000000         1.635825366900536E-008
  -86.1900000000000         1.863127850802679E-008
  -86.0000000000000         2.116700541791929E-008
  -85.8100000000000         2.369234263397318E-008
  -85.6200000000000         2.608044484585641E-008
  -85.4300000000000         2.818795872941810E-008
  -85.2400000000000         2.970262929948638E-008
  -85.0500000000000         3.068255690022523E-008
  -84.8600000000000         3.070326921382396E-008
  -84.6700000000000         3.184050006482354E-008
  -84.4800000000000         3.154913096254144E-008
  -84.2900000000000         3.149599345232629E-008
  -84.1000000000000         3.242361621134208E-008
  -83.9100000000000         3.210571444613022E-008
  -83.7200000000000         3.207145421468930E-008
  -83.5300000000000         3.224798040220449E-008
  -83.3400000000000         3.353676799863653E-008
  -83.1500000000000         3.382306669065714E-008
  -82.9600000000000         3.519414535337832E-008
  -82.7700000000000         3.581288432571862E-008
  -82.5800000000000         3.722138062114060E-008
  -82.3900000000000         3.748953585542284E-008
  -82.2000000000000         3.787920739967089E-008
  -82.0100000000000         3.815863003608211E-008
  -81.8200000000000         3.838619354705134E-008
  -81.6300000000000         3.842652981315481E-008
  -81.4400000000000         3.831525504173292E-008
  -81.2500000000000         3.810128141483904E-008
  -81.0600000000000         3.792776325551906E-008
  -80.8700000000000         3.791915863824387E-008
  -80.6800000000000         3.814912054573318E-008
  -80.4900000000000         3.885747926593146E-008
  -80.3000000000000         4.104230625991843E-008
  -80.1100000000000         4.238668801070568E-008
  -79.9200000000000         4.469490793010240E-008
  -79.7300000000000         4.585780778211851E-008
  -79.5400000000000         4.693468228837134E-008
  -79.3500000000000         4.751356374482576E-008
  -79.1600000000000         4.785475913232341E-008
  -78.9700000000000         4.817651754738703E-008
  -78.7800000000000         4.832392159661754E-008
  -78.5900000000000         4.823525098541532E-008
  -78.4000000000000         4.799121858258049E-008
  -78.2100000000000         4.774032623567571E-008
  -78.0200000000000         4.758317018122616E-008
  -77.8300000000000         4.755198433003120E-008
  -77.6400000000000         4.763739923782388E-008
  -77.4500000000000         4.787725482050218E-008
  -77.2600000000000         4.845183283783400E-008
  -77.0700000000000         4.966499580751868E-008
  -76.8800000000000         5.096574483002891E-008
  -76.6900000000000         5.189543070449158E-008
  -76.5000000000000         5.297569315631613E-008
  -76.3100000000000         5.409169871147006E-008
  -76.1200000000000         5.436760143763139E-008
  -75.9300000000000         5.488682575160757E-008
  -75.7400000000000         5.510195494426175E-008
  -75.5500000000000         5.498476736635000E-008
  -75.3600000000000         5.468863433905212E-008
  -75.1700000000000         5.438131354546490E-008
  -74.9800000000000         5.424930933408038E-008
  -74.7900000000000         5.437163915969579E-008
  -74.6000000000000         5.478529348542724E-008
  -74.4100000000000         5.587134269022583E-008
  -74.2200000000000         5.864088018448705E-008
  -74.0300000000000         5.892036254215936E-008
  -73.8400000000000         5.989845912216089E-008
  -73.6500000000000         6.128793765887757E-008
  -73.4600000000000         6.246199272415503E-008
  -73.2700000000000         6.383091817995406E-008
  -73.0800000000000         6.514084341504527E-008
  -72.8900000000000         6.651065918407463E-008
  -72.7000000000000         6.810580572006200E-008
  -72.5100000000000         6.972558519449745E-008
  -72.3200000000000         7.134502842863747E-008
  -72.1300000000000         7.311108503989672E-008
  -71.9400000000000         7.700357346657798E-008
  -71.7500000000000         7.803575214264148E-008
  -71.5600000000000         8.209310486160563E-008
  -71.3700000000000         8.348564155922272E-008
  -71.1800000000000         8.770381718494735E-008
  -70.9900000000000         8.830745855733403E-008
  -70.8000000000000         9.043788239189239E-008
  -70.6100000000000         9.155989664102957E-008
  -70.4200000000000         9.267786611527779E-008
  -70.2300000000000         9.372932792233631E-008
  -70.0400000000000         9.478095845689731E-008
  -69.8500000000000         9.595686571491351E-008
  -69.6600000000000         9.741428168161563E-008
  -69.4700000000000         9.906020027333275E-008
  -69.2800000000000         1.007558397151491E-007
  -69.0900000000000         1.026063076098954E-007
  -68.9000000000000         1.045391219490118E-007
  -68.7100000000000         1.064569422329922E-007
  -68.5200000000000         1.081993917028520E-007
  -68.3300000000000         1.098144541936679E-007
  -68.1400000000000         1.112647866290707E-007
  -67.9500000000000         1.122199603927403E-007
  -67.7600000000000         1.132288350897861E-007
  -67.5700000000000         1.144807526267257E-007
  -67.3800000000000         1.156011085100985E-007
  -67.1900000000000         1.166111366286917E-007
  -67.0000000000000         1.175742696057513E-007
  -66.8100000000000         1.186210577221468E-007
  -66.6200000000000         1.199352765761142E-007
  -66.4300000000000         1.217295462024007E-007
  -66.2400000000000         1.239893988823682E-007
  -66.0500000000000         1.267543507773539E-007
  -65.8600000000000         1.298661355397353E-007
  -65.6700000000000         1.330253534265614E-007
  -65.4800000000000         1.357529114534158E-007
  -65.2900000000000         1.381087875513837E-007
  -65.1000000000000         1.402146777755677E-007
  -64.9100000000000         1.421551019948960E-007
  -64.7200000000000         1.440323173295504E-007
  -64.5300000000000         1.458938829519907E-007
  -64.3400000000000         1.479218308166451E-007
  -64.1500000000000         1.497200169937711E-007
  -63.9600000000000         1.514968051436247E-007
  -63.7700000000000         1.532595504391753E-007
  -63.5800000000000         1.550744743617167E-007
  -63.3900000000000         1.570703824106076E-007
  -63.2000000000000         1.593812043054886E-007
  -63.0100000000000         1.620066198105698E-007
  -62.8200000000000         1.646653495927986E-007
  -62.6300000000000         1.672288733358860E-007
  -62.4400000000000         1.692487094787101E-007
  -62.2500000000000         1.711953228102127E-007
  -62.0600000000000         1.730085026842063E-007
  -61.8700000000000         1.746279396409732E-007
  -61.6800000000000         1.762152320917509E-007
  -61.4900000000000         1.778575199094401E-007
  -61.3000000000000         1.797059095381344E-007
  -61.1100000000000         1.815872715476269E-007
  -60.9200000000000         1.834500141163000E-007
  -60.7300000000000         1.853458801573132E-007
  -60.5400000000000         1.876451406006761E-007
  -60.3500000000000         1.900924845641986E-007
  -60.1600000000000         1.926061598638253E-007
  -59.9700000000000         1.950876583013897E-007
  -59.7800000000000         1.976057252079147E-007
  -59.5900000000000         1.999753381443692E-007
  -59.4000000000000         2.022742649421249E-007
  -59.2100000000000         2.043727366742323E-007
  -59.0200000000000         2.066129156280552E-007
  -58.8300000000000         2.089629157025654E-007
  -58.6400000000000         2.112060426479710E-007
  -58.4500000000000         2.137921528673888E-007
  -58.2600000000000         2.164525024948108E-007
  -58.0700000000000         2.193704741835299E-007
  -57.8800000000000         2.224229692444113E-007
  -57.6900000000000         2.256372921831172E-007
  -57.5000000000000         2.293914860076396E-007
  -57.3100000000000         2.334488791442827E-007
  -57.1200000000000         2.370489302890435E-007
  -56.9300000000000         2.405292911474645E-007
  -56.7400000000000         2.443558458759641E-007
  -56.5500000000000         2.486496186372746E-007
  -56.3600000000000         2.523373433805721E-007
  -56.1700000000000         2.561773822699801E-007
  -55.9800000000000         2.602454648607091E-007
  -55.7900000000000         2.646305416998804E-007
  -55.6000000000000         2.688714713386866E-007
  -55.4100000000000         2.731545860779931E-007
  -55.2200000000000         2.775884481147198E-007
  -55.0300000000000         2.823035569082210E-007
  -54.8400000000000         2.862077800971712E-007
  -54.6500000000000         2.902207761351738E-007
  -54.4600000000000         2.940782576852366E-007
  -54.2700000000000         2.979032457922815E-007
  -54.0800000000000         3.016646406050658E-007
  -53.8900000000000         3.054131656055968E-007
  -53.7000000000000         3.092549268725890E-007
  -53.5100000000000         3.132598789880747E-007
  -53.3200000000000         3.174158909235993E-007
  -53.1300000000000         3.217146165996847E-007
  -52.9400000000000         3.264644650188658E-007
  -52.7500000000000         3.310276227476119E-007
  -52.5600000000000         3.359100509304431E-007
  -52.3700000000000         3.410677851026044E-007
  -52.1800000000000         3.462157703007371E-007
  -51.9900000000000         3.514183598518630E-007
  -51.8000000000000         3.566504097469978E-007
  -51.6100000000000         3.616628093926731E-007
  -51.4200000000000         3.670394715906526E-007
  -51.2300000000000         3.721101828696821E-007
  -51.0400000000000         3.772325777505563E-007
  -50.8500000000000         3.822151159081155E-007
  -50.6600000000000         3.871848608091645E-007
  -50.4700000000000         3.920188027751158E-007
  -50.2800000000000         3.967825464497848E-007
  -50.0900000000000         4.015015189905391E-007
  -49.9000000000000         4.059956117180056E-007
  -49.7100000000000         4.111934095087656E-007
  -49.5200000000000         4.159406623443841E-007
  -49.3300000000000         4.208808799737230E-007
  -49.1400000000000         4.262903098942330E-007
  -48.9500000000000         4.310656352973372E-007
  -48.7600000000000         4.359056466021160E-007
  -48.5700000000000         4.405816442757427E-007
  -48.3800000000000         4.447458366094084E-007
  -48.1900000000000         4.488385532567049E-007
  -48.0000000000000         4.525759063290163E-007
  -47.8100000000000         4.561632144450012E-007
  -47.6200000000000         4.596196941492542E-007
  -47.4300000000000         4.632096539461114E-007
  -47.2400000000000         4.669958347062611E-007
  -47.0500000000000         4.711367768838684E-007
  -46.8600000000000         4.755007432844485E-007
  -46.6700000000000         4.801476719885143E-007
  -46.4800000000000         4.847598643514561E-007
  -46.2900000000000         4.890182360296536E-007
  -46.1000000000000         4.929097939864746E-007
  -45.9100000000000         4.966039375330338E-007
  -45.7200000000000         5.001385771342700E-007
  -45.5300000000000         5.035531942347859E-007
  -45.3400000000000         5.071022472077387E-007
  -45.1500000000000         5.108727015140722E-007
  -44.9600000000000         5.150337586777351E-007
  -44.7700000000000         5.193374929101189E-007
  -44.5800000000000         5.240822831482810E-007
  -44.3900000000000         5.291296461966670E-007
  -44.2000000000000         5.344536248696213E-007
  -44.0100000000000         5.400937708196485E-007
  -43.8200000000000         5.461561331102328E-007
  -43.6300000000000         5.528605295368396E-007
  -43.4400000000000         5.595545577191780E-007
  -43.2500000000000         5.658101950493903E-007
  -43.0600000000000         5.725605446573365E-007
  -42.8700000000000         5.791552303464619E-007
  -42.6800000000000         5.856399261652470E-007
  -42.4900000000000         5.918494079532642E-007
  -42.3000000000000         5.977315885464100E-007
  -42.1100000000000         6.040314333803208E-007
  -41.9200000000000         6.100535979179083E-007
  -41.7300000000000         6.162752301981888E-007
  -41.5400000000000         6.229847404118755E-007
  -41.3500000000000         6.296406475256128E-007
  -41.1600000000000         6.370637427421542E-007
  -40.9700000000000         6.444777365210190E-007
  -40.7800000000000         6.514569606566076E-007
  -40.5900000000000         6.588903171609536E-007
  -40.4000000000000         6.657264050265104E-007
  -40.2100000000000         6.723697619235604E-007
  -40.0200000000000         6.788314951345845E-007
  -39.8300000000000         6.853318386557981E-007
  -39.6400000000000         6.914160686448284E-007
  -39.4500000000000         6.976437008270529E-007
  -39.2600000000000         7.037027854491765E-007
  -39.0700000000000         7.101474482833580E-007
  -38.8800000000000         7.166183430818868E-007
  -38.6900000000000         7.235781575537257E-007
  -38.5000000000000         7.312299001914250E-007
  -38.3100000000000         7.393519811154661E-007
  -38.1200000000000         7.475541207979958E-007
  -37.9300000000000         7.560385683601932E-007
  -37.7400000000000         7.641417919976262E-007
  -37.5500000000000         7.719489190182444E-007
  -37.3600000000000         7.796701247588653E-007
  -37.1700000000000         7.871051158506142E-007
  -36.9800000000000         7.941431795131454E-007
  -36.7900000000000         8.010001763136937E-007
  -36.6000000000000         8.077584808573227E-007
  -36.4100000000000         8.142541696023438E-007
  -36.2200000000000         8.208142503953473E-007
  -36.0300000000000         8.277997192783388E-007
  -35.8400000000000         8.349502617285043E-007
  -35.6500000000000         8.420308806201636E-007
  -35.4600000000000         8.493754944062196E-007
  -35.2700000000000         8.572596671409990E-007
  -35.0800000000000         8.650673311787802E-007
  -34.8900000000000         8.727921643930583E-007
  -34.7000000000000         8.807174797409676E-007
  -34.5100000000000         8.885939954110860E-007
  -34.3200000000000         8.963739736997340E-007
  -34.1300000000000         9.040446288850845E-007
  -33.9400000000000         9.117440394453199E-007
  -33.7500000000000         9.195091375139745E-007
  -33.5600000000000         9.272048356516824E-007
  -33.3700000000000         9.348797554837303E-007
  -33.1800000000000         9.425770534886316E-007
  -32.9900000000000         9.501227004773700E-007
  -32.8000000000000         9.578948208271302E-007
  -32.6100000000000         9.659041109916641E-007
  -32.4200000000000         9.741388414096538E-007
  -32.2300000000000         9.826316775490224E-007
  -32.0400000000000         9.912588227882083E-007
  -31.8500000000000         9.996454174845810E-007
  -31.6600000000000         1.008025503258241E-006
  -31.4700000000000         1.016063143729282E-006
  -31.2800000000000         1.023739423168288E-006
  -31.0900000000000         1.031140716445515E-006
  -30.9000000000000         1.038374357739342E-006
  -30.7100000000000         1.045642474112778E-006
  -30.5200000000000         1.052846440241296E-006
  -30.3300000000000         1.059966000952657E-006
  -30.1400000000000         1.067151516523023E-006
  -29.9500000000000         1.074506617755255E-006
  -29.7600000000000         1.082193235162883E-006
  -29.5700000000000         1.090395170400230E-006
  -29.3800000000000         1.098635348483815E-006
  -29.1900000000000         1.106849010994051E-006
  -29.0000000000000         1.115054489179212E-006
  -28.8100000000000         1.123142754272205E-006
  -28.6200000000000         1.131011623111301E-006
  -28.4300000000000         1.139003364737440E-006
  -28.2400000000000         1.146806954032478E-006
  -28.0500000000000         1.154399126840469E-006
  -27.8600000000000         1.162001570413202E-006
  -27.6700000000000         1.169609568501774E-006
  -27.4800000000000         1.177150486525213E-006
  -27.2900000000000         1.184754578663313E-006
  -27.1000000000000         1.192486311761262E-006
  -26.9100000000000         1.200432531199062E-006
  -26.7200000000000         1.208574553923329E-006
  -26.5300000000000         1.216735158597153E-006
  -26.3400000000000         1.224814043458736E-006
  -26.1500000000000         1.232830247512568E-006
  -25.9600000000000         1.240777005476796E-006
  -25.7700000000000         1.248541707166410E-006
  -25.5800000000000         1.256264207580424E-006
  -25.3900000000000         1.264001396237188E-006
  -25.2000000000000         1.271764863604187E-006
  -25.0100000000000         1.279430025140447E-006
  -24.8200000000000         1.287032721502549E-006
  -24.6300000000000         1.294742006016053E-006
  -24.4400000000000         1.302515755539354E-006
  -24.2500000000000         1.310443084485794E-006
  -24.0600000000000         1.318602843491689E-006
  -23.8700000000000         1.326990879218306E-006
  -23.6800000000000         1.335681721230233E-006
  -23.4900000000000         1.344636221838118E-006
  -23.3000000000000         1.353461401877441E-006
  -23.1100000000000         1.362433714138780E-006
  -22.9200000000000         1.371868579154267E-006
  -22.7300000000000         1.381183096682491E-006
  -22.5400000000000         1.390572686118414E-006
  -22.3500000000000         1.400049869524503E-006
  -22.1600000000000         1.409587781794239E-006
  -21.9700000000000         1.419114436573928E-006
  -21.7800000000000         1.428581105646151E-006
  -21.5900000000000         1.437917648105836E-006
  -21.4000000000000         1.447022303751484E-006
  -21.2100000000000         1.456249311489383E-006
  -21.0200000000000         1.465660360463918E-006
  -20.8300000000000         1.474589651999014E-006
  -20.6400000000000         1.483741175241575E-006
  -20.4500000000000         1.492938964335576E-006
  -20.2600000000000         1.502078241359612E-006
  -20.0700000000000         1.511134664012104E-006
  -19.8800000000000         1.520036960161295E-006
  -19.6900000000000         1.528872124592868E-006
  -19.5000000000000         1.537727199250110E-006
  -19.3100000000000         1.546705093906416E-006
  -19.1200000000000         1.555855902142171E-006
  -18.9300000000000         1.565149243964609E-006
  -18.7400000000000         1.574538711105840E-006
  -18.5500000000000         1.583987946291926E-006
  -18.3600000000000         1.593540284506011E-006
  -18.1700000000000         1.603176563182035E-006
  -17.9800000000000         1.612890648854894E-006
  -17.7900000000000         1.622687710219263E-006
  -17.6000000000000         1.632549981457569E-006
  -17.4100000000000         1.642364408482013E-006
  -17.2200000000000         1.652313005153848E-006
  -17.0300000000000         1.662022980372681E-006
  -16.8400000000000         1.671826781468022E-006
  -16.6500000000000         1.681205729220129E-006
  -16.4600000000000         1.690698463670879E-006
  -16.2700000000000         1.699918061121016E-006
  -16.0800000000000         1.709187104273056E-006
  -15.8900000000000         1.718078553415317E-006
  -15.7000000000000         1.726933417577004E-006
  -15.5100000000000         1.735420379742928E-006
  -15.3200000000000         1.743872502466726E-006
  -15.1300000000000         1.752093355079466E-006
  -14.9400000000000         1.760369358621935E-006
  -14.7500000000000         1.768679594211591E-006
  -14.5600000000000         1.777037182107774E-006
  -14.3700000000000         1.785008743401642E-006
  -14.1800000000000         1.793533728700833E-006
  -13.9900000000000         1.801995454440328E-006
  -13.8000000000000         1.810650446533001E-006
  -13.6100000000000         1.819751977587469E-006
  -13.4200000000000         1.828986161463276E-006
  -13.2300000000000         1.838308215954005E-006
  -13.0400000000000         1.847670941155309E-006
  -12.8500000000000         1.856980562670377E-006
  -12.6600000000000         1.866221110024617E-006
  -12.4700000000000         1.875019828860703E-006
  -12.2800000000000         1.884376337735028E-006
  -12.0900000000000         1.893280092219121E-006
  -11.9000000000000         1.902201272082773E-006
  -11.7100000000000         1.910818828829135E-006
  -11.5200000000000         1.919603373184105E-006
  -11.3300000000000         1.928051123628335E-006
  -11.1400000000000         1.936777584601509E-006
  -10.9500000000000         1.945561425373621E-006
  -10.7600000000000         1.954454630451493E-006
  -10.5700000000000         1.963091563439444E-006
  -10.3800000000000         1.971870452389898E-006
  -10.1900000000000         1.980097605924314E-006
  -10.0000000000000         1.988013332726739E-006
  -9.81000000000000         1.995637782119732E-006
  -9.62000000000000         2.003068294861977E-006
  -9.42999999999999         2.009869545468623E-006
  -9.23999999999999         2.017226046426774E-006
  -9.05000000000000         2.023943212952590E-006
  -8.86000000000000         2.030589758215193E-006
  -8.67000000000000         2.037532426187777E-006
  -8.48000000000000         2.044273599197681E-006
  -8.28999999999999         2.051129581706881E-006
  -8.09999999999999         2.058859870352572E-006
  -7.91000000000000         2.066254869739604E-006
  -7.72000000000000         2.074231919209785E-006
  -7.53000000000000         2.082074786840022E-006
  -7.34000000000000         2.090207490344477E-006
  -7.15000000000001         2.098116866144645E-006
  -6.95999999999999         2.105768433773112E-006
  -6.77000000000000         2.113863290171388E-006
  -6.58000000000000         2.122213733099342E-006
  -6.39000000000000         2.129770238692544E-006
  -6.20000000000000         2.137406659914652E-006
  -6.01000000000001         2.144758518893367E-006
  -5.81999999999999         2.151968105994552E-006
  -5.63000000000000         2.159143680328759E-006
  -5.44000000000000         2.166245170100935E-006
  -5.25000000000000         2.173401725513942E-006
  -5.06000000000000         2.180623349018128E-006
  -4.87000000000000         2.187947983357641E-006
  -4.67999999999999         2.195277310145989E-006
  -4.48999999999999         2.202583796415215E-006
  -4.30000000000000         2.209524796048005E-006
  -4.11000000000000         2.216742707069087E-006
  -3.92000000000000         2.223628582435765E-006
  -3.73000000000000         2.230801192161801E-006
  -3.53999999999999         2.237696127779703E-006
  -3.34999999999999         2.244518427321482E-006
  -3.16000000000000         2.251297683053570E-006
  -2.97000000000000         2.257970183265474E-006
  -2.78000000000000         2.264600088423992E-006
  -2.59000000000000         2.271267472336584E-006
  -2.40000000000001         2.277736279943744E-006
  -2.20999999999999         2.284656210531925E-006
  -2.02000000000000         2.291637323353796E-006
  -1.83000000000000         2.298655782670059E-006
  -1.64000000000000         2.305390432861133E-006
  -1.45000000000000         2.312452721330667E-006
  -1.26000000000001         2.319140420121898E-006
  -1.06999999999999         2.326117771197628E-006
 -0.879999999999995         2.332531825714657E-006
 -0.689999999999998         2.339299598683167E-006
 -0.500000000000000         2.345701113068980E-006
 -0.310000000000002         2.352422903952098E-006
 -0.120000000000005         2.358870747966470E-006
  7.000000000000739E-002    2.365473742014867E-006
  0.260000000000005         2.372299161143954E-006
  0.450000000000003         2.379674502168886E-006
  0.640000000000001         2.387017902449637E-006
  0.829999999999998         2.394493188679617E-006
   1.02000000000000         2.402035832194752E-006
   1.21000000000001         2.409545015227186E-006
   1.40000000000001         2.416781386131926E-006
   1.59000000000000         2.424402560561440E-006
   1.78000000000000         2.431817926240994E-006
   1.97000000000000         2.439430613429286E-006
   2.16000000000000         2.447015282632142E-006
   2.34999999999999         2.454776073466573E-006
   2.54000000000001         2.462581146440065E-006
   2.73000000000000         2.470385008151665E-006
   2.92000000000000         2.478295028455207E-006
   3.11000000000000         2.486265131819546E-006
   3.30000000000000         2.494301937811212E-006
   3.48999999999999         2.502333770559686E-006
   3.68000000000001         2.510797150189758E-006
   3.87000000000000         2.518836054038598E-006
   4.06000000000000         2.527229102587047E-006
   4.25000000000000         2.534884473212900E-006
   4.44000000000000         2.542437405933034E-006
   4.63000000000000         2.549844722822794E-006
   4.82000000000001         2.557129340401535E-006
   5.01000000000001         2.564172186832060E-006
   5.20000000000000         2.570812043278911E-006
   5.39000000000000         2.577889705232026E-006
   5.58000000000000         2.584460969036667E-006
   5.77000000000000         2.591768634415903E-006
   5.96000000000001         2.598938942917699E-006
   6.15000000000001         2.605860513504264E-006
   6.34000000000000         2.613406420706172E-006
   6.53000000000000         2.620407879421084E-006