  -105.000000000000         0.000000000000000E+000
  -104.810000000000         7.484862595850522E-011
  -104.620000000000         1.298037417982006E-010
  -104.430000000000         1.556215292650988E-010
  -104.240000000000         1.545123261211895E-010
  -104.050000000000         1.482947688971314E-010
  -103.860000000000         1.588736947269697E-010
  -103.670000000000         2.131747059335347E-010
  -103.480000000000         3.475920970383381E-010
  -103.290000000000         5.743147338398123E-010
  -103.100000000000         6.573830112950845E-010
  -102.910000000000         5.987251286701989E-010
  -102.720000000000         3.630095165457080E-010
  -102.530000000000         1.882215871297186E-010
  -102.340000000000         3.413043485200465E-011
  -102.150000000000        -3.931795145854307E-011
  -101.960000000000         1.001408309342413E-011
  -101.770000000000         2.477373513435724E-010
  -101.580000000000         3.348736119434361E-010
  -101.390000000000         3.754120660897985E-010
  -101.200000000000         4.081148662272041E-010
  -101.010000000000         6.851887802927028E-010
  -100.820000000000         1.065503800014658E-009
  -100.630000000000         1.646858974638950E-009
  -100.440000000000         2.514542942525397E-009
  -100.250000000000         3.589199783399272E-009
  -100.060000000000         4.642121875169701E-009
  -99.8700000000000         5.610882014695852E-009
  -99.6800000000000         6.586221616490191E-009
  -99.4900000000000         7.644510666138024E-009
  -99.3000000000000         8.773575727195325E-009
  -99.1100000000000         9.976112164328106E-009
  -98.9200000000000         1.119260690636937E-008
  -98.7300000000000         1.228782479982171E-008
  -98.5400000000000         1.309032106308754E-008
  -98.3500000000000         1.365608075186626E-008
  -98.1600000000000         1.417208597053517E-008
  -97.9700000000000         1.475792945039692E-008
  -97.7800000000000         1.543857293450960E-008
  -97.5900000000000         1.620611750985032E-008
  -97.4000000000000         1.705483623315009E-008
  -97.2100000000000         1.787706970186025E-008
  -97.0200000000000         1.851711644537084E-008
  -96.8300000000000         1.886851292576268E-008
  -96.6400000000000         1.882638867977156E-008
  -96.4500000000000         1.918337486651979E-008
  -96.2600000000000         1.919364034258791E-008
  -96.0700000000000         1.969384040676849E-008
  -95.8800000000000         1.978100196714944E-008
  -95.6900000000000         2.021639525095699E-008
  -95.5000000000000         2.013555989890790E-008
  -95.3100000000000         1.994983164110511E-008
  -95.1200000000000         1.962296923067193E-008
  -94.9300000000000         1.930913539351241E-008
  -94.7400000000000         1.934600084906737E-008
  -94.5500000000000         1.947336342799234E-008
  -94.3600000000000         1.979451934780938E-008
  -94.1700000000000         2.028224562908659E-008
  -93.9800000000000         2.082125941594099E-008
  -93.7900000000000         2.126658316979240E-008
  -93.6000000000000         2.158777704879997E-008
  -93.4100000000000         2.150011126846664E-008
  -93.2200000000000         2.177226169926300E-008
  -93.0300000000000         2.147146758285389E-008
  -92.8400000000000         2.170967698181948E-008
  -92.6500000000000         2.140038364613015E-008
  -92.4600000000000         2.137614084205418E-008
  -92.2700000000000         2.045117249201142E-008
  -92.0800000000000         1.969170306765469E-008
  -91.8900000000000         1.873712594492348E-008
  -91.7000000000000         1.751924805147183E-008
  -91.5100000000000         1.605970165560714E-008
  -91.3200000000000         1.466838427399576E-008
  -91.1300000000000         1.357284093341041E-008
  -90.9400000000000         1.273126440344577E-008
  -90.7500000000000         1.233562779730831E-008
  -90.5600000000000         1.203154389908541E-008
  -90.3700000000000         1.190982531139646E-008
  -90.1800000000000         1.175461884968484E-008
  -89.9900000000000         1.138363969611359E-008
  -89.8000000000000         1.048686008576373E-008
  -89.6100000000000         1.006071147007302E-008
  -89.4200000000000         9.299102613035423E-009
  -89.2300000000000         9.347958999417813E-009
  -89.0400000000000         9.680159087536053E-009
  -88.8500000000000         1.035169486503643E-008
  -88.6600000000000         1.114480893225618E-008
  -88.4700000000000         1.175339411900787E-008
  -88.2800000000000         1.206738306551444E-008
  -88.0900000000000         1.214379655366287E-008
  -87.9000000000000         1.215072743124260E-008
  -87.7100000000000         1.231204901642424E-008
  -87.5200000000000         1.288104440612057E-008
  -87.3300000000000         1.458406822671189E-008
  -87.1400000000000         1.660594337503800E-008
  -86.9500000000000         1.885614288721033E-008
  -86.7600000000000         2.119353688725855E-008
  -86.5700000000000         2.361364944334555E-008
  -86.3800000000000         2.625574107797228E-008
  -86.1900000000000         2.919740455784796E-008
  -86.0000000000000         3.238745071100504E-008
  -85.8100000000000         3.555548605707172E-008
  -85.6200000000000         3.844613540044159E-008
  -85.4300000000000         4.076690243976428E-008
  -85.2400000000000         4.227876189592041E-008
  -85.0500000000000         4.309203086650364E-008
  -84.8600000000000         4.288206433744500E-008
  -84.6700000000000         4.360068113494498E-008
  -84.4800000000000         4.288558528275527E-008
  -84.2900000000000         4.227464434023635E-008
  -84.1000000000000         4.266142679864999E-008
  -83.9100000000000         4.189073266163628E-008
  -83.7200000000000         4.155892713823191E-008
  -83.5300000000000         4.169984453970931E-008
  -83.3400000000000         4.319202364171072E-008
  -83.1500000000000         4.397309878036869E-008
  -82.9600000000000         4.588356283186694E-008
  -82.7700000000000         4.690751718262170E-008
  -82.5800000000000         4.875213015070316E-008
  -82.3900000000000         4.923900861697485E-008
  -82.2000000000000         4.982320311261541E-008
  -82.0100000000000         5.018478023197545E-008
  -81.8200000000000         5.022202366087503E-008
  -81.6300000000000         5.015070888708759E-008
  -81.4400000000000         4.982907893789714E-008
  -81.2500000000000         4.937936738526147E-008
  -81.0600000000000         4.903931882102450E-008
  -80.8700000000000         4.905499825491461E-008
  -80.6800000000000         4.962219935659421E-008
  -80.4900000000000         5.101026028631746E-008
  -80.3000000000000         5.401645279479158E-008
  -80.1100000000000         5.621713513222821E-008
  -79.9200000000000         5.969437468922829E-008
  -79.7300000000000         6.163981688964039E-008
  -79.5400000000000         6.352308353149383E-008
  -79.3500000000000         6.481932745310747E-008
  -79.1600000000000         6.549435446369001E-008
  -78.9700000000000         6.600580955798986E-008
  -78.7800000000000         6.631238368447517E-008
  -78.5900000000000         6.627110685515853E-008
  -78.4000000000000         6.605418184838293E-008
  -78.2100000000000         6.590584521550104E-008
  -78.0200000000000         6.598826243220002E-008
  -77.8300000000000         6.632738790809849E-008
  -77.6400000000000         6.682274330652034E-008
  -77.4500000000000         6.743365522059163E-008
  -77.2600000000000         6.857189598893463E-008
  -77.0700000000000         7.019892820522314E-008
  -76.8800000000000         7.186337036844428E-008
  -76.6900000000000         7.332846353804924E-008
  -76.5000000000000         7.491070466390252E-008
  -76.3100000000000         7.646539468374813E-008
  -76.1200000000000         7.675195324941650E-008
  -75.9300000000000         7.737726419452563E-008
  -75.7400000000000         7.741464793601345E-008
  -75.5500000000000         7.700963509062726E-008
  -75.3600000000000         7.637167184892788E-008
  -75.1700000000000         7.581727916417843E-008
  -74.9800000000000         7.565443698002790E-008
  -74.7900000000000         7.599276476884534E-008
  -74.6000000000000         7.680833793899786E-008
  -74.4100000000000         7.845831697283584E-008
  -74.2200000000000         8.161908559228044E-008
  -74.0300000000000         8.195763365285246E-008
  -73.8400000000000         8.357105492340836E-008
  -73.6500000000000         8.505884234022779E-008
  -73.4600000000000         8.656553136186067E-008
  -73.2700000000000         8.828397592976815E-008
  -73.0800000000000         9.004974524730586E-008
  -72.8900000000000         9.200602776313529E-008
  -72.7000000000000         9.432147318493506E-008
  -72.5100000000000         9.687126449492140E-008
  -72.3200000000000         9.957477090493306E-008
  -72.1300000000000         1.025167071282923E-007
  -71.9400000000000         1.076344525522244E-007
  -71.7500000000000         1.101472333898234E-007
  -71.5600000000000         1.152847196194756E-007
  -71.3700000000000         1.179292147097152E-007
  -71.1800000000000         1.230067896994384E-007
  -70.9900000000000         1.243500814550566E-007
  -70.8000000000000         1.271248667191548E-007
  -70.6100000000000         1.284183971072797E-007
  -70.4200000000000         1.294895305565142E-007
  -70.2300000000000         1.305318967555067E-007
  -70.0400000000000         1.317425133526721E-007
  -69.8500000000000         1.333354021262878E-007
  -69.6600000000000         1.353910207668043E-007
  -69.4700000000000         1.377733744326838E-007
  -69.2800000000000         1.404168341160010E-007
  -69.0900000000000         1.433039744745280E-007
  -68.9000000000000         1.463155781266648E-007
  -68.7100000000000         1.492426587495451E-007
  -68.5200000000000         1.518583755490892E-007
  -68.3300000000000         1.540898791371784E-007
  -68.1400000000000         1.558271281789328E-007
  -67.9500000000000         1.561898992267396E-007
  -67.7600000000000         1.575109725890448E-007
  -67.5700000000000         1.585563719879828E-007
  -67.3800000000000         1.595155297722581E-007
  -67.1900000000000         1.605426832430859E-007
  -67.0000000000000         1.617418150730346E-007
  -66.8100000000000         1.633222890349588E-007
  -66.6200000000000         1.654930690388536E-007
  -66.4300000000000         1.684495529705580E-007
  -66.2400000000000         1.721576033994440E-007
  -66.0500000000000         1.765703587262129E-007
  -65.8600000000000         1.814593395062772E-007
  -65.6700000000000         1.863716464520925E-007
  -65.4800000000000         1.907499935919738E-007
  -65.2900000000000         1.944525900381396E-007
  -65.1000000000000         1.975761863732414E-007
  -64.9100000000000         2.002825099653591E-007
  -64.7200000000000         2.027682564578191E-007
  -64.5300000000000         2.052324892461497E-007
  -64.3400000000000         2.079048963932944E-007
  -64.1500000000000         2.104607232591115E-007
  -63.9600000000000         2.131097657471623E-007
  -63.7700000000000         2.159454570801052E-007
  -63.5800000000000         2.190592391801075E-007
  -63.3900000000000         2.225538099588092E-007
  -63.2000000000000         2.264777733903751E-007
  -63.0100000000000         2.307110713640662E-007
  -62.8200000000000         2.349639528658916E-007
  -62.6300000000000         2.390017754387945E-007
  -62.4400000000000         2.423722582581175E-007
  -62.2500000000000         2.454820600249948E-007
  -62.0600000000000         2.483650954917408E-007
  -61.8700000000000         2.508298745363026E-007
  -61.6800000000000         2.531885141530125E-007
  -61.4900000000000         2.555831015928055E-007
  -61.3000000000000         2.583543975727322E-007
  -61.1100000000000         2.609599566981718E-007
  -60.9200000000000         2.636925557932824E-007
  -60.7300000000000         2.667168394531501E-007
  -60.5400000000000         2.706468034000457E-007
  -60.3500000000000         2.747486685132013E-007
  -60.1600000000000         2.789401077319523E-007
  -59.9700000000000         2.829728136305000E-007
  -59.7800000000000         2.868698211007373E-007
  -59.5900000000000         2.903068349785533E-007
  -59.4000000000000         2.935532505802020E-007
  -59.2100000000000         2.964485632825428E-007
  -59.0200000000000         2.998379537811322E-007
  -58.8300000000000         3.033848806806878E-007
  -58.6400000000000         3.067213571003705E-007
  -58.4500000000000         3.108997888344003E-007
  -58.2600000000000         3.150804311717489E-007
  -58.0700000000000         3.197611643806840E-007
  -57.8800000000000         3.246801964775288E-007
  -57.6900000000000         3.299201864488156E-007
  -57.5000000000000         3.358638238575945E-007
  -57.3100000000000         3.420128583391504E-007
  -57.1200000000000         3.476763616911739E-007
  -56.9300000000000         3.530235750637036E-007
  -56.7400000000000         3.586230410026434E-007
  -56.5500000000000         3.645312589817571E-007
  -56.3600000000000         3.697047573556802E-007
  -56.1700000000000         3.750787079050176E-007
  -55.9800000000000         3.808187539403120E-007
  -55.7900000000000         3.869872471697556E-007
  -55.6000000000000         3.930662215327853E-007
  -55.4100000000000         3.993609761162799E-007
  -55.2200000000000         4.059943811532897E-007
  -55.0300000000000         4.129596606785164E-007
  -54.8400000000000         4.191046414724730E-007
  -54.6500000000000         4.253040501876877E-007
  -54.4600000000000         4.312092020342031E-007
  -54.2700000000000         4.369890958104349E-007
  -54.0800000000000         4.426245849674697E-007
  -53.8900000000000         4.482808141861061E-007
  -53.7000000000000         4.541395091998515E-007
  -53.5100000000000         4.602452687482691E-007
  -53.3200000000000         4.665171558322539E-007
  -53.1300000000000         4.729244876183439E-007
  -52.9400000000000         4.798653261895901E-007
  -52.7500000000000         4.865400665381659E-007
  -52.5600000000000         4.937866609679643E-007
  -52.3700000000000         5.015595702396696E-007
  -52.1800000000000         5.095777488206934E-007
  -51.9900000000000         5.178918031428716E-007
  -51.8000000000000         5.263504494578370E-007
  -51.6100000000000         5.345407995737226E-007
  -51.4200000000000         5.430775901751749E-007
  -51.2300000000000         5.510144930355879E-007
  -51.0400000000000         5.588754562713794E-007
  -50.8500000000000         5.664577714157328E-007
  -50.6600000000000         5.740383223181950E-007
  -50.4700000000000         5.814498625500893E-007
  -50.2800000000000         5.888402142957563E-007
  -50.0900000000000         5.962506279751519E-007
  -49.9000000000000         6.032794165080209E-007
  -49.7100000000000         6.118287873234585E-007
  -49.5200000000000         6.192818278660319E-007
  -49.3300000000000         6.273707296838639E-007
  -49.1400000000000         6.363422401978278E-007
  -48.9500000000000         6.439441387501162E-007
  -48.7600000000000         6.519240970438616E-007
  -48.5700000000000         6.595637424901380E-007
  -48.3800000000000         6.660308881484643E-007
  -48.1900000000000         6.726952097607418E-007
  -48.0000000000000         6.783915019402296E-007
  -47.8100000000000         6.841392444555403E-007
  -47.6200000000000         6.895704858356418E-007
  -47.4300000000000         6.954869143054663E-007
  -47.2400000000000         7.016589945443993E-007
  -47.0500000000000         7.086549101281809E-007
  -46.8600000000000         7.158207522014395E-007
  -46.6700000000000         7.235845941839595E-007
  -46.4800000000000         7.310817031761925E-007
  -46.2900000000000         7.379052063904969E-007
  -46.1000000000000         7.443033844240333E-007
  -45.9100000000000         7.507748173030694E-007
  -45.7200000000000         7.571667817861278E-007
  -45.5300000000000         7.634490480674575E-007
  -45.3400000000000         7.702726361635630E-007
  -45.1500000000000         7.774264429866856E-007
  -44.9600000000000         7.854353263474842E-007
  -44.7700000000000         7.932289092824241E-007
  -44.5800000000000         8.019893339719935E-007
  -44.3900000000000         8.108611661128614E-007
  -44.2000000000000         8.200552972915782E-007
  -44.0100000000000         8.297343548716497E-007
  -43.8200000000000         8.401136579270765E-007
  -43.6300000000000         8.516358363900843E-007
  -43.4400000000000         8.626674548551108E-007
  -43.2500000000000         8.727143758656718E-007
  -43.0600000000000         8.842950947096171E-007
  -42.8700000000000         8.950343109236199E-007
  -42.6800000000000         9.055902775003836E-007
  -42.4900000000000         9.155769918929923E-007
  -42.3000000000000         9.249123586466675E-007
  -42.1100000000000         9.357791368177191E-007
  -41.9200000000000         9.453290364153971E-007
  -41.7300000000000         9.557352488870120E-007
  -41.5400000000000         9.670958165128480E-007
  -41.3500000000000         9.776047333860442E-007
  -41.1600000000000         9.901666436036089E-007
  -40.9700000000000         1.001840684296055E-006
  -40.7800000000000         1.012462942764477E-006
  -40.5900000000000         1.024765640992710E-006
  -40.4000000000000         1.035105173020771E-006
  -40.2100000000000         1.045641415151830E-006
  -40.0200000000000         1.055923907295134E-006
  -39.8300000000000         1.066720021171434E-006
  -39.6400000000000         1.076307928260854E-006
  -39.4500000000000         1.087188415654538E-006
  -39.2600000000000         1.097277280845489E-006
  -39.0700000000000         1.108816628856462E-006
  -38.8800000000000         1.119670613964463E-006
  -38.6900000000000         1.131863885515701E-006
  -38.5000000000000         1.145252069121597E-006
  -38.3100000000000         1.159037745479470E-006
  -38.1200000000000         1.172556085504686E-006
  -37.9300000000000         1.186870260814256E-006
  -37.7400000000000         1.199988666129266E-006
  -37.5500000000000         1.212756482011378E-006
  -37.3600000000000         1.225773355592752E-006
  -37.1700000000000         1.238241986054016E-006
  -36.9800000000000         1.250021556576063E-006
  -36.7900000000000         1.261863383137741E-006
  -36.6000000000000         1.273693482429124E-006
  -36.4100000000000         1.284836188998642E-006
  -36.2200000000000         1.296763688245805E-006
  -36.0300000000000         1.309918348590351E-006
  -35.8400000000000         1.322749205986952E-006
  -35.6500000000000         1.335112413871651E-006
  -35.4600000000000         1.348517991444161E-006
  -35.2700000000000         1.363075070553475E-006
  -35.0800000000000         1.376299543782361E-006
  -34.8900000000000         1.389313034611470E-006
  -34.7000000000000         1.403342828306912E-006
  -34.5100000000000         1.416587760156156E-006
  -34.3200000000000         1.429859126037095E-006
  -34.1300000000000         1.442974745646677E-006
  -33.9400000000000         1.456451795332363E-006
  -33.7500000000000         1.469923244419076E-006
  -33.5600000000000         1.483052145407722E-006
  -33.3700000000000         1.496505059648749E-006
  -33.1800000000000         1.510071569643865E-006
  -32.9900000000000         1.522826878508827E-006
  -32.8000000000000         1.537399808468770E-006
  -32.6100000000000         1.551673832416864E-006
  -32.4200000000000         1.566386243626460E-006
  -32.2300000000000         1.581402280094217E-006
  -32.0400000000000         1.596525037332435E-006
  -31.8500000000000         1.610548051335198E-006
  -31.6600000000000         1.625893318231752E-006
  -31.4700000000000         1.639337181332712E-006
  -31.2800000000000         1.653150901554569E-006
  -31.0900000000000         1.666468742240083E-006
  -30.9000000000000         1.680071284723992E-006
  -30.7100000000000         1.694225577169869E-006
  -30.5200000000000         1.707751571546680E-006
  -30.3300000000000         1.721553867711998E-006
  -30.1400000000000         1.735646574650355E-006
  -29.9500000000000         1.749987937867988E-006
  -29.7600000000000         1.765222922017462E-006
  -29.5700000000000         1.781646945114261E-006
  -29.3800000000000         1.796527156846768E-006
  -29.1900000000000         1.812210305466943E-006
  -29.0000000000000         1.827837013668239E-006
  -28.8100000000000         1.843276996427141E-006
  -28.6200000000000         1.858093199039956E-006
  -28.4300000000000         1.874726699495498E-006
  -28.2400000000000         1.888770706237047E-006
  -28.0500000000000         1.903716351183381E-006
  -27.8600000000000         1.918798418636785E-006
  -27.6700000000000         1.933977779491393E-006
  -27.4800000000000         1.948621979736007E-006
  -27.2900000000000         1.964284998749003E-006
  -27.1000000000000         1.979369766953770E-006
  -26.9100000000000         1.995654442780922E-006
  -26.7200000000000         2.011321839935187E-006
  -26.5300000000000         2.027375323960330E-006
  -26.3400000000000         2.042787062929216E-006
  -26.1500000000000         2.058866972625523E-006
  -25.9600000000000         2.073933024702384E-006
  -25.7700000000000         2.089214914101159E-006
  -25.5800000000000         2.104426179536252E-006
  -25.3900000000000         2.119746646743166E-006
  -25.2000000000000         2.135016649482788E-006
  -25.0100000000000         2.149876645434701E-006
  -24.8200000000000         2.165542102958768E-006
  -24.6300000000000         2.181060788043433E-006
  -24.4400000000000         2.196832044517317E-006
  -24.2500000000000         2.213094899507587E-006
  -24.0600000000000         2.229647798719853E-006
  -23.8700000000000         2.246179875433544E-006
  -23.6800000000000         2.263898597574101E-006
  -23.4900000000000         2.281102953493883E-006
  -23.3000000000000         2.297173689085454E-006
  -23.1100000000000         2.316610625058366E-006
  -22.9200000000000         2.334339748234906E-006
  -22.7300000000000         2.352549870652673E-006
  -22.5400000000000         2.370962744651398E-006
  -22.3500000000000         2.389584704419817E-006
  -22.1600000000000         2.408406478172249E-006
  -21.9700000000000         2.427245672035007E-006
  -21.7800000000000         2.446083143330945E-006
  -21.5900000000000         2.464325148888018E-006
  -21.4000000000000         2.481925126672176E-006
  -21.2100000000000         2.502534564793920E-006
  -21.0200000000000         2.519119775499328E-006
  -20.8300000000000         2.537443201539936E-006
  -20.6400000000000         2.556017542966127E-006
  -20.4500000000000         2.574493210586716E-006
  -20.2600000000000         2.592963656911720E-006
  -20.0700000000000         2.611078225315815E-006
  -19.8800000000000         2.629205636094013E-006
  -19.6900000000000         2.647401432742387E-006
  -19.5000000000000         2.665788099775685E-006
  -19.3100000000000         2.684512191002574E-006
  -19.1200000000000         2.703598545076760E-006
  -18.9300000000000         2.723031869017542E-006
  -18.7400000000000         2.742568753291198E-006
  -18.5500000000000         2.762342948008950E-006
  -18.3600000000000         2.782218092959628E-006
  -18.1700000000000         2.802186457616594E-006
  -17.9800000000000         2.822170565223947E-006
  -17.7900000000000         2.842279152305407E-006
  -17.6000000000000         2.861946606260134E-006
  -17.4100000000000         2.882609669949963E-006
  -17.2200000000000         2.902244044722279E-006
  -17.0300000000000         2.922937199609773E-006
  -16.8400000000000         2.942071460875625E-006
  -16.6500000000000         2.962349914976354E-006
  -16.4600000000000         2.981783300103702E-006
  -16.2700000000000         3.001971961053568E-006
  -16.0800000000000         3.021136462902861E-006
  -15.8900000000000         3.040749524185127E-006
  -15.7000000000000         3.059298480442903E-006
  -15.5100000000000         3.077971530591962E-006
  -15.3200000000000         3.096089374888060E-006
  -15.1300000000000         3.114534756892671E-006
  -14.9400000000000         3.133072335012808E-006
  -14.7500000000000         3.151718963941240E-006
  -14.5600000000000         3.169552483480019E-006
  -14.3700000000000         3.188885977766411E-006
  -14.1800000000000         3.207715743516744E-006
  -13.9900000000000         3.226829586478440E-006
  -13.8000000000000         3.247046343252587E-006
  -13.6100000000000         3.267521133657823E-006
  -13.4200000000000         3.288256138180271E-006
  -13.2300000000000         3.309204202785271E-006
  -13.0400000000000         3.330160742907097E-006
  -12.8500000000000         3.351010635647097E-006
  -12.6600000000000         3.370654275790930E-006
  -12.4700000000000         3.391687930926937E-006
  -12.2800000000000         3.411294637101109E-006
  -12.0900000000000         3.431098250381737E-006
  -11.9000000000000         3.450391587829865E-006
  -11.7100000000000         3.470084974740537E-006
  -11.5200000000000         3.489115016982145E-006
  -11.3300000000000         3.508730254741834E-006
  -11.1400000000000         3.528507690291893E-006
  -10.9500000000000         3.548639232111670E-006
  -10.7600000000000         3.568628852536772E-006
  -10.5700000000000         3.589406005567948E-006
  -10.3800000000000         3.609394842993032E-006
  -10.1900000000000         3.629040503938727E-006
  -10.0000000000000         3.648280766048373E-006
  -9.81000000000000         3.667029881252367E-006
  -9.62000000000000         3.684761921519731E-006
  -9.42999999999999         3.703188189663636E-006
  -9.23999999999999         3.720714678609973E-006
  -9.05000000000000         3.738159717218875E-006
  -8.86000000000000         3.756036340751375E-006
  -8.67000000000000         3.773550041269858E-006
  -8.48000000000000         3.791273068366260E-006
  -8.28999999999999         3.810351252469175E-006
  -8.09999999999999         3.828989872134627E-006
  -7.91000000000000         3.848571560444345E-006
  -7.72000000000000         3.868265822114339E-006
  -7.53000000000000         3.888522546560343E-006
  -7.34000000000000         3.908406522115775E-006
  -7.15000000000001         3.927882993642675E-006
  -6.95999999999999         3.948198228534507E-006
  -6.77000000000000         3.969003002289524E-006
  -6.58000000000000         3.988486123544115E-006
  -6.39000000000000         4.007986638020771E-006
  -6.20000000000000         4.027255867375378E-006
  -6.01000000000001         4.046165727833165E-006
  -5.81999999999999         4.064858143819577E-006
  -5.63000000000000         4.083335569872869E-006
  -5.44000000000000         4.101858402557012E-006
  -5.25000000000000         4.120630354934143E-006
  -5.06000000000000         4.139720817581404E-006
  -4.87000000000000         4.159034885404243E-006
  -4.67999999999999         4.178461838991745E-006
  -4.48999999999999         4.197571673305866E-006
  -4.30000000000000         4.216906278290755E-006
  -4.11000000000000         4.236113944353295E-006
  -3.92000000000000         4.255542416821943E-006
  -3.73000000000000         4.274862874001948E-006
  -3.53999999999999         4.293905867611064E-006
  -3.34999999999999         4.312871743118587E-006
  -3.16000000000000         4.331689253816092E-006
  -2.97000000000000         4.350391682424227E-006
  -2.78000000000000         4.369095023916136E-006
  -2.59000000000000         4.387686374655341E-006
  -2.40000000000001         4.406724374998267E-006
  -2.20999999999999         4.426268231163576E-006
  -2.02000000000000         4.445856980295581E-006
  -1.83000000000000         4.465226123302601E-006
  -1.64000000000000         4.484811086193099E-006
  -1.45000000000000         4.504351064957865E-006
  -1.26000000000001         4.523872301650774E-006
  -1.06999999999999         4.543062979663302E-006
 -0.879999999999995         4.562071496981299E-006
 -0.689999999999998         4.581102089712317E-006
 -0.500000000000000         4.600009478508488E-006
 -0.310000000000002         4.618929597820320E-006
 -0.120000000000005         4.637700685526834E-006
  7.000000000000739E-002    4.656905243248411E-006
  0.260000000000005         4.676800130598758E-006
  0.450000000000003         4.697021347093599E-006
  0.640000000000001         4.717218232111907E-006
  0.829999999999998         4.737573130701524E-006
   1.02000000000000         4.757882235175569E-006
   1.21000000000001         4.777804667037919E-006
   1.40000000000001         4.797704938603257E-006
   1.59000000000000         4.817751686461026E-006
   1.78000000000000         4.837576687306260E-006
   1.97000000000000         4.857479034227613E-006
   2.16000000000000         4.877298679227009E-006
   2.34999999999999         4.897254410153900E-006
   2.54000000000001         4.917113321030098E-006
   2.73000000000000         4.936930033526211E-006
   2.92000000000000         4.956898020789340E-006
   3.11000000000000         4.977045224136699E-006
   3.30000000000000         4.997276429425512E-006
   3.48999999999999         5.017767591622213E-006
   3.68000000000001         5.038566084674677E-006
   3.87000000000000         5.058951331413045E-006
   4.06000000000000         5.079582950035300E-006
   4.25000000000000         5.099130733184372E-006
   4.44000000000000         5.118690704737442E-006
   4.63000000000000         5.138108745880400E-006
   4.82000000000001         5.157389143686254E-006
   5.01000000000001         5.176300789259179E-006
   5.20000000000000         5.194697609097624E-006
   5.39000000000000         5.213873169385418E-006
   5.58000000000000         5.232250451085092E-006
   5.77000000000000         5.251946405907854E-006
   5.96000000000001         5.271352931287356E-006
   6.15000000000001         5.290675339712872E-006
   6.34000000000000         5.311036507967095E-006
   6.53000000000000         5.330565481966123E-006