  -105.000000000000         0.000000000000000E+000
  -104.810000000000         4.724448940474209E-011
  -104.620000000000         7.000673318487911E-011
  -104.430000000000         8.467073687536329E-011
  -104.240000000000         9.021197073801632E-011
  -104.050000000000         9.773410634210326E-011
  -103.860000000000         1.055368166586300E-010
  -103.670000000000         1.214203821621414E-010
  -103.480000000000         1.727748903546214E-010
  -103.290000000000         3.125191978428203E-010
  -103.100000000000         3.435155420975544E-010
  -102.910000000000         3.143735121933076E-010
  -102.720000000000         1.527092768117450E-010
  -102.530000000000         9.876843882152081E-011
  -102.340000000000         3.402820509987844E-011
  -102.150000000000        -1.038871895973970E-012
  -101.960000000000         2.839907340962920E-011
  -101.770000000000         2.180213269079195E-010
  -101.580000000000         2.668293262166770E-010
  -101.390000000000         3.057749039931105E-010
  -101.200000000000         3.456739959928292E-010
  -101.010000000000         5.857769649152842E-010
  -100.820000000000         8.807917081470538E-010
  -100.630000000000         1.324235422394591E-009
  -100.440000000000         1.974000849788288E-009
  -100.250000000000         2.780738134891938E-009
  -100.060000000000         3.630637393226890E-009
  -99.8700000000000         4.444244357467895E-009
  -99.6800000000000         5.266673178027779E-009
  -99.4900000000000         6.167581435658563E-009
  -99.3000000000000         7.130599392011440E-009
  -99.1100000000000         8.152562074973806E-009
  -98.9200000000000         9.204927158136932E-009
  -98.7300000000000         1.017537130593518E-008
  -98.5400000000000         1.092929723475316E-008
  -98.3500000000000         1.153012164508510E-008
  -98.1600000000000         1.211642731806900E-008
  -97.9700000000000         1.274495823935257E-008
  -97.7800000000000         1.341187733003460E-008
  -97.5900000000000         1.414066406054563E-008
  -97.4000000000000         1.489539392554556E-008
  -97.2100000000000         1.562191412589578E-008
  -97.0200000000000         1.621412268491770E-008
  -96.8300000000000         1.659943913565236E-008
  -96.6400000000000         1.666369426165191E-008
  -96.4500000000000         1.712002802832015E-008
  -96.2600000000000         1.724234418476899E-008
  -96.0700000000000         1.777367304161839E-008
  -95.8800000000000         1.793248578392432E-008
  -95.6900000000000         1.840745623446915E-008
  -95.5000000000000         1.840511657012500E-008
  -95.3100000000000         1.835305368570651E-008
  -95.1200000000000         1.816324398934772E-008
  -94.9300000000000         1.790661360368196E-008
  -94.7400000000000         1.785055578287609E-008
  -94.5500000000000         1.783301693990366E-008
  -94.3600000000000         1.788427919706250E-008
  -94.1700000000000         1.801603424217473E-008
  -93.9800000000000         1.816966217444189E-008
  -93.7900000000000         1.825387811430027E-008
  -93.6000000000000         1.826779949549805E-008
  -93.4100000000000         1.792405506467922E-008
  -93.2200000000000         1.795681423634159E-008
  -93.0300000000000         1.746457972111943E-008
  -92.8400000000000         1.756570404352567E-008
  -92.6500000000000         1.711193029928230E-008
  -92.4600000000000         1.702600351490674E-008
  -92.2700000000000         1.605712495745072E-008
  -92.0800000000000         1.534716253357242E-008
  -91.8900000000000         1.450937179041108E-008
  -91.7000000000000         1.348419398511665E-008
  -91.5100000000000         1.230522787856545E-008
  -91.3200000000000         1.123064131589949E-008
  -91.1300000000000         1.044327337203190E-008
  -90.9400000000000         9.887279225430703E-009
  -90.7500000000000         9.778742141801569E-009
  -90.5600000000000         9.577989963440883E-009
  -90.3700000000000         9.472911525550150E-009
  -90.1800000000000         9.327737945599524E-009
  -89.9900000000000         9.000676306113889E-009
  -89.8000000000000         8.260147988753537E-009
  -89.6100000000000         7.800645458584229E-009
  -89.4200000000000         7.027327101438742E-009
  -89.2300000000000         6.761020732983085E-009
  -89.0400000000000         6.612652604394581E-009
  -88.8500000000000         6.619376644421056E-009
  -88.6600000000000         6.678490544691213E-009
  -88.4700000000000         6.641480662576345E-009
  -88.2800000000000         6.449169373551050E-009
  -88.0900000000000         6.146596605251409E-009
  -87.9000000000000         5.823980009713066E-009
  -87.7100000000000         5.595900247918389E-009
  -87.5200000000000         5.639426094253119E-009
  -87.3300000000000         6.720491443893215E-009
  -87.1400000000000         7.989064909206579E-009
  -86.9500000000000         9.443683407660318E-009
  -86.7600000000000         1.096868144324876E-008
  -86.5700000000000         1.255815838026547E-008
  -86.3800000000000         1.433991336985597E-008
  -86.1900000000000         1.643947560954169E-008
  -86.0000000000000         1.883929764933807E-008
  -85.8100000000000         2.120079295938073E-008
  -85.6200000000000         2.348401101112420E-008
  -85.4300000000000         2.550588869996339E-008
  -85.2400000000000         2.703522027502638E-008
  -85.0500000000000         2.808218894207071E-008
  -84.8600000000000         2.818185120632175E-008
  -84.6700000000000         2.944778438421598E-008
  -84.4800000000000         2.928043582138473E-008
  -84.2900000000000         2.936318010233731E-008
  -84.1000000000000         3.044524779540041E-008
  -83.9100000000000         3.027177022874599E-008
  -83.7200000000000         3.033199780310542E-008
  -83.5300000000000         3.053370373307892E-008
  -83.3400000000000         3.177136506665483E-008
  -83.1500000000000         3.194094120481188E-008
  -82.9600000000000         3.324460534295598E-008
  -82.7700000000000         3.368621248836668E-008
  -82.5800000000000         3.504569231109950E-008
  -82.3900000000000         3.519964636650553E-008
  -82.2000000000000         3.554237419257982E-008
  -82.0100000000000         3.584700181764092E-008
  -81.8200000000000         3.610494526602075E-008
  -81.6300000000000         3.618280859595120E-008
  -81.4400000000000         3.613755055296492E-008
  -81.2500000000000         3.599998358138692E-008
  -81.0600000000000         3.588520086570330E-008
  -80.8700000000000         3.588658480741425E-008
  -80.6800000000000         3.606066825071373E-008
  -80.4900000000000         3.661667373248152E-008
  -80.3000000000000         3.858572934939208E-008
  -80.1100000000000         3.968419073362556E-008
  -79.9200000000000         4.178644019867554E-008
  -79.7300000000000         4.267967808190114E-008
  -79.5400000000000         4.355108089818641E-008
  -79.3500000000000         4.401026796015321E-008
  -79.1600000000000         4.431441940815961E-008
  -78.9700000000000         4.458068413876016E-008
  -78.7800000000000         4.469476665902651E-008
  -78.5900000000000         4.460894405397261E-008
  -78.4000000000000         4.437428338018937E-008
  -78.2100000000000         4.412143322095899E-008
  -78.0200000000000         4.393667492963352E-008
  -77.8300000000000         4.385399272009748E-008
  -77.6400000000000         4.388085803937280E-008
  -77.4500000000000         4.404887766320262E-008
  -77.2600000000000         4.448416114735939E-008
  -77.0700000000000         4.551475740439581E-008
  -76.8800000000000         4.670641964123911E-008
  -76.6900000000000         4.754425552245046E-008
  -76.5000000000000         4.851428449877808E-008
  -76.3100000000000         4.953128800250023E-008
  -76.1200000000000         4.986422873044289E-008
  -75.9300000000000         5.035256310349141E-008
  -75.7400000000000         5.063138709708425E-008
  -75.5500000000000         5.062297142350860E-008
  -75.3600000000000         5.044429466409090E-008
  -75.1700000000000         5.023173568378236E-008
  -74.9800000000000         5.014588435803882E-008
  -74.7900000000000         5.025915930428637E-008
  -74.6000000000000         5.061404609983370E-008
  -74.4100000000000         5.154032917584409E-008
  -74.2200000000000         5.416997543652752E-008
  -74.0300000000000         5.454004759166993E-008
  -73.8400000000000         5.538580222049509E-008
  -73.6500000000000         5.671251123783750E-008
  -73.4600000000000         5.786627287740398E-008
  -73.2700000000000         5.914981240997648E-008
  -73.0800000000000         6.035548545793273E-008
  -72.8900000000000         6.158141766544214E-008
  -72.7000000000000         6.298831447394955E-008
  -72.5100000000000         6.440808167372415E-008
  -72.3200000000000         6.580365944185449E-008
  -72.1300000000000         6.731353887513527E-008
  -71.9400000000000         7.097601885245870E-008
  -71.7500000000000         7.174841905366385E-008
  -71.5600000000000         7.537515390256920E-008
  -71.3700000000000         7.660865240076245E-008
  -71.1800000000000         8.051774913657146E-008
  -70.9900000000000         8.118048199712965E-008
  -70.8000000000000         8.307727574216345E-008
  -70.6100000000000         8.426567064325408E-008
  -70.4200000000000         8.540482344141222E-008
  -70.2300000000000         8.647029870811964E-008
  -70.0400000000000         8.750564081006662E-008
  -69.8500000000000         8.861642274420268E-008
  -69.6600000000000         8.994486199712143E-008
  -69.4700000000000         9.141569969701946E-008
  -69.2800000000000         9.290945295698486E-008
  -69.0900000000000         9.451996259776736E-008
  -68.9000000000000         9.620717419749112E-008
  -68.7100000000000         9.790445651864091E-008
  -68.5200000000000         9.949102549897401E-008
  -68.3300000000000         1.010243816926033E-007
  -68.1400000000000         1.024808984498026E-007
  -67.9500000000000         1.035344874169706E-007
  -67.7600000000000         1.045681517035985E-007
  -67.5700000000000         1.058789055391070E-007
  -67.3800000000000         1.070396163638070E-007
  -67.1900000000000         1.080737086969025E-007
  -67.0000000000000         1.090288654303392E-007
  -66.8100000000000         1.100086649215551E-007
  -66.6200000000000         1.111729225013788E-007
  -66.4300000000000         1.127069528221339E-007
  -66.2400000000000         1.146235658488564E-007
  -66.0500000000000         1.169742257050378E-007
  -65.8600000000000         1.196635680034624E-007
  -65.6700000000000         1.224419589226465E-007
  -65.4800000000000         1.248641997882308E-007
  -65.2900000000000         1.270117746785991E-007
  -65.1000000000000         1.289861316313700E-007
  -64.9100000000000         1.308443453096214E-007
  -64.7200000000000         1.326548817456809E-007
  -64.5300000000000         1.344470533455330E-007
  -64.3400000000000         1.363557164352766E-007
  -64.1500000000000         1.380692220893162E-007
  -63.9600000000000         1.396917516113451E-007
  -63.7700000000000         1.412511906136431E-007
  -63.5800000000000         1.428163770952911E-007
  -63.3900000000000         1.445044594470377E-007
  -63.2000000000000         1.464412894817751E-007
  -63.0100000000000         1.486700809485485E-007
  -62.8200000000000         1.509840633049871E-007
  -62.6300000000000         1.532547862934511E-007
  -62.4400000000000         1.551056079462026E-007
  -62.2500000000000         1.568443218809258E-007
  -62.0600000000000         1.584600181487510E-007
  -61.8700000000000         1.599330543783895E-007
  -61.6800000000000         1.613640155712400E-007
  -61.4900000000000         1.628547124090677E-007
  -61.3000000000000         1.645353269872857E-007
  -61.1100000000000         1.662896638919958E-007
  -60.9200000000000         1.680033162170810E-007
  -60.7300000000000         1.697022916262496E-007
  -60.5400000000000         1.716572411164799E-007
  -60.3500000000000         1.737616255168685E-007
  -60.1600000000000         1.759238934428899E-007
  -59.9700000000000         1.780881647567151E-007
  -59.7800000000000         1.803197321617283E-007
  -59.5900000000000         1.824909043249677E-007
  -59.4000000000000         1.846166762650086E-007
  -59.2100000000000         1.865955662728962E-007
  -59.0200000000000         1.886308808289284E-007
  -58.8300000000000         1.907652726357262E-007
  -58.6400000000000         1.928244889895894E-007
  -58.4500000000000         1.950776439150204E-007
  -58.2600000000000         1.974355232526269E-007
  -58.0700000000000         1.999807616339454E-007
  -57.8800000000000         2.026440869843789E-007
  -57.6900000000000         2.054332224871557E-007
  -57.5000000000000         2.086518468171878E-007
  -57.3100000000000         2.121872602551908E-007
  -57.1200000000000         2.154262067571579E-007
  -56.9300000000000         2.185945548338054E-007
  -56.7400000000000         2.220582376070599E-007
  -56.5500000000000         2.259627462408780E-007
  -56.3600000000000         2.294361895924428E-007
  -56.1700000000000         2.329859313346139E-007
  -55.9800000000000         2.367309623031471E-007
  -55.7900000000000         2.407470077807616E-007
  -55.6000000000000         2.446439291382526E-007
  -55.4100000000000         2.485339185059359E-007
  -55.2200000000000         2.525226683291885E-007
  -55.0300000000000         2.567246066171554E-007
  -54.8400000000000         2.602987412735822E-007
  -54.6500000000000         2.638848247196160E-007
  -54.4600000000000         2.673629749056525E-007
  -54.2700000000000         2.708207513685060E-007
  -54.0800000000000         2.742334902468800E-007
  -53.8900000000000         2.776298112243232E-007
  -53.7000000000000         2.811011256588567E-007
  -53.5100000000000         2.847155911551992E-007
  -53.3200000000000         2.884722081799122E-007
  -53.1300000000000         2.923726473278684E-007
  -52.9400000000000         2.966671630587765E-007
  -52.7500000000000         3.008689129086312E-007
  -52.5600000000000         3.052806915083332E-007
  -52.3700000000000         3.098905579367087E-007
  -52.1800000000000         3.144676273486545E-007
  -51.9900000000000         3.190449935098389E-007
  -51.8000000000000         3.236220940720189E-007
  -51.6100000000000         3.280365301275992E-007
  -51.4200000000000         3.327346785965011E-007
  -51.2300000000000         3.372726135020468E-007
  -51.0400000000000         3.418533830573036E-007
  -50.8500000000000         3.463432603723981E-007
  -50.6600000000000         3.508101782553185E-007
  -50.4700000000000         3.551610629456414E-007
  -50.2800000000000         3.594232779185459E-007
  -50.0900000000000         3.636246397321936E-007
  -49.9000000000000         3.676628584426103E-007
  -49.7100000000000         3.721338541879164E-007
  -49.5200000000000         3.763901429827877E-007
  -49.3300000000000         3.806981023835633E-007
  -49.1400000000000         3.853348004370062E-007
  -48.9500000000000         3.896015290971989E-007
  -48.7600000000000         3.938085778786698E-007
  -48.5700000000000         3.978859176326991E-007
  -48.3800000000000         4.015986195274356E-007
  -48.1900000000000         4.051855224597696E-007
  -48.0000000000000         4.085387169008796E-007
  -47.8100000000000         4.117290547597104E-007
  -47.6200000000000         4.148346579908825E-007
  -47.4300000000000         4.180216524906853E-007
  -47.2400000000000         4.213879380076181E-007
  -47.0500000000000         4.250184085475364E-007
  -46.8600000000000         4.288692809638815E-007
  -46.6700000000000         4.329394548511277E-007
  -46.4800000000000         4.370120716140192E-007
  -46.2900000000000         4.407906920619247E-007
  -46.1000000000000         4.442176239961209E-007
  -45.9100000000000         4.474035939018486E-007
  -45.7200000000000         4.504155057615699E-007
  -45.5300000000000         4.533050353606310E-007
  -45.3400000000000         4.562588097031970E-007
  -45.1500000000000         4.594082961970698E-007
  -44.9600000000000         4.628554159801669E-007
  -44.7700000000000         4.664980075793553E-007
  -44.5800000000000         4.704785493605049E-007
  -44.3900000000000         4.747855554828189E-007
  -44.2000000000000         4.793502502828892E-007
  -44.0100000000000         4.841921050962759E-007
  -43.8200000000000         4.893980647781036E-007
  -43.6300000000000         4.951180880794927E-007
  -43.4400000000000         5.009369030529751E-007
  -43.2500000000000         5.064514062810988E-007
  -43.0600000000000         5.122166444839570E-007
  -42.8700000000000         5.179915835079203E-007
  -42.6800000000000         5.236726386094098E-007
  -42.4900000000000         5.291577344449815E-007
  -42.3000000000000         5.343814842442165E-007
  -42.1100000000000         5.398059038504725E-007
  -41.9200000000000         5.451534357582052E-007
  -41.7300000000000         5.505678427353273E-007
  -41.5400000000000         5.563764045113296E-007
  -41.3500000000000         5.622793774183689E-007
  -41.1600000000000         5.686867746403639E-007
  -40.9700000000000         5.752707854208183E-007
  -40.7800000000000         5.815583963791506E-007
  -40.5900000000000         5.880394950205885E-007
  -40.4000000000000         5.942191826585849E-007
  -40.2100000000000         6.001183565975486E-007
  -40.0200000000000         6.058538094829826E-007
  -39.8300000000000         6.115557360187571E-007
  -39.6400000000000         6.169753160836328E-007
  -39.4500000000000         6.223519387663368E-007
  -39.2600000000000         6.276591370004490E-007
  -39.0700000000000         6.331615547339404E-007
  -38.8800000000000         6.387990040210541E-007
  -38.6900000000000         6.447642903595108E-007
  -38.5000000000000         6.513155684794613E-007
  -38.3100000000000         6.583329050071039E-007
  -38.1200000000000         6.654835041554016E-007
  -37.9300000000000         6.728059305551627E-007
  -37.7400000000000         6.798973349851307E-007
  -37.5500000000000         6.866992928970451E-007
  -37.3600000000000         6.933616867478174E-007
  -37.1700000000000         6.997973535493798E-007
  -36.9800000000000         7.059074792199683E-007
  -36.7900000000000         7.118138757033589E-007
  -36.6000000000000         7.176130966991884E-007
  -36.4100000000000         7.232144494830257E-007
  -36.2200000000000         7.287557370067607E-007
  -36.0300000000000         7.345748277927732E-007
  -35.8400000000000         7.406193232428328E-007
  -35.6500000000000         7.466472647162052E-007
  -35.4600000000000         7.528057816518313E-007
  -35.2700000000000         7.593882052103186E-007
  -35.0800000000000         7.660973274293878E-007
  -34.8900000000000         7.727300667617414E-007
  -34.7000000000000         7.794556627177911E-007
  -34.5100000000000         7.862449946290429E-007
  -34.3200000000000         7.929389172023051E-007
  -34.1300000000000         7.995448501622318E-007
  -33.9400000000000         8.061470560533881E-007
  -33.7500000000000         8.128210614504275E-007
  -33.5600000000000         8.194537759484281E-007
  -33.3700000000000         8.260134366994427E-007
  -33.1800000000000         8.325761056871932E-007
  -32.9900000000000         8.390474939972352E-007
  -32.8000000000000         8.455527015944328E-007
  -32.6100000000000         8.523256577770787E-007
  -32.4200000000000         8.592798485991008E-007
  -32.2300000000000         8.664696536902923E-007
  -32.0400000000000         8.737924312932981E-007
  -31.8500000000000         8.809845225779737E-007
  -31.6600000000000         8.880544028386051E-007
  -31.4700000000000         8.949718900820984E-007
  -31.2800000000000         9.014684641429592E-007
  -31.0900000000000         9.077071667875666E-007
  -30.9000000000000         9.137274199818399E-007
  -30.7100000000000         9.197145646454931E-007
  -30.5200000000000         9.256725545253543E-007
  -30.3300000000000         9.315063457364160E-007
  -30.1400000000000         9.373744781871756E-007
  -29.9500000000000         9.433867813106546E-007
  -29.7600000000000         9.496510425713498E-007
  -29.5700000000000         9.563218507295367E-007
  -29.3800000000000         9.631908066729756E-007
  -29.1900000000000         9.699416333130364E-007
  -29.0000000000000         9.766901379588218E-007
  -28.8100000000000         9.833416011580021E-007
  -28.6200000000000         9.898259003574106E-007
  -28.4300000000000         9.962690467592626E-007
  -28.2400000000000         1.002771586747588E-006
  -28.0500000000000         1.008951739900627E-006
  -27.8600000000000         1.015123972227485E-006
  -27.6700000000000         1.021292717603378E-006
  -27.4800000000000         1.027428982032934E-006
  -27.2900000000000         1.033537075188321E-006
  -27.1000000000000         1.039809738920081E-006
  -26.9100000000000         1.046196434512087E-006
  -26.7200000000000         1.052826992708003E-006
  -26.5300000000000         1.059449843082089E-006
  -26.3400000000000         1.066049868975159E-006
  -26.1500000000000         1.072557878791280E-006
  -25.9600000000000         1.079081653532201E-006
  -25.7700000000000         1.085413704299500E-006
  -25.5800000000000         1.091710168559090E-006
  -25.3900000000000         1.098014842608421E-006
  -25.2000000000000         1.104344948824288E-006
  -25.0100000000000         1.110595734694011E-006
  -24.8200000000000         1.116723895727021E-006
  -24.6300000000000         1.122953708714596E-006
  -24.4400000000000         1.129206945455441E-006
  -24.2500000000000         1.135551127980410E-006
  -24.0600000000000         1.142087559440348E-006
  -23.8700000000000         1.148842541893965E-006
  -23.6800000000000         1.155823241685080E-006
  -23.4900000000000         1.163111938714241E-006
  -23.3000000000000         1.170344476216753E-006
  -23.1100000000000         1.177529054407353E-006
  -22.9200000000000         1.185276494646457E-006
  -22.7300000000000         1.192871566303800E-006
  -22.5400000000000         1.200512843354595E-006
  -22.3500000000000         1.208218798088236E-006
  -22.1600000000000         1.215963526157931E-006
  -21.9700000000000         1.223687840518736E-006
  -21.7800000000000         1.231342180142726E-006
  -21.5900000000000         1.238887083197632E-006
  -21.4000000000000         1.246210927053133E-006
  -21.2100000000000         1.253456545782198E-006
  -21.0200000000000         1.261120260390794E-006
  -20.8300000000000         1.268228164816923E-006
  -20.6400000000000         1.275526008273147E-006
  -20.4500000000000         1.282898884048216E-006
  -20.2600000000000         1.290236422414272E-006
  -20.0700000000000         1.297516480023706E-006
  -19.8800000000000         1.304638892590474E-006
  -19.6900000000000         1.311670262432628E-006
  -19.5000000000000         1.318687273074034E-006
  -19.3100000000000         1.325781451313729E-006
  -19.1200000000000         1.332999541021443E-006
  -18.9300000000000         1.340317426680339E-006
  -18.7400000000000         1.347709596425448E-006
  -18.5500000000000         1.355142706516663E-006
  -18.3600000000000         1.362665434214591E-006
  -18.1700000000000         1.370263181798631E-006
  -17.9800000000000         1.377937451959478E-006
  -17.7900000000000         1.385691977637651E-006
  -17.6000000000000         1.393528543376230E-006
  -17.4100000000000         1.401289784132880E-006
  -17.2200000000000         1.409216531724541E-006
  -17.0300000000000         1.416891140600324E-006
  -16.8400000000000         1.424685085425627E-006
  -16.6500000000000         1.432036008180422E-006
  -16.4600000000000         1.439481465955659E-006
  -16.2700000000000         1.446648792494348E-006
  -16.0800000000000         1.453872172387614E-006
  -15.8900000000000         1.460738210717081E-006
  -15.7000000000000         1.467591355285891E-006
  -15.5100000000000         1.474111173477830E-006
  -15.3200000000000         1.480584384059003E-006
  -15.1300000000000         1.486832163516640E-006
  -14.9400000000000         1.493105386359494E-006
  -14.7500000000000         1.499399907074728E-006
  -14.5600000000000         1.505701897984736E-006
  -14.3700000000000         1.511678811909542E-006
  -14.1800000000000         1.518099751251636E-006
  -13.9900000000000         1.524472150509007E-006
  -13.8000000000000         1.530978328973135E-006
  -13.6100000000000         1.537850252571358E-006
  -13.4200000000000         1.544830905161301E-006
  -13.2300000000000         1.551875093451778E-006
  -13.0400000000000         1.558949874651980E-006
  -12.8500000000000         1.565982357550877E-006
  -12.6600000000000         1.572949678903582E-006
  -12.4700000000000         1.579578906829245E-006
  -12.2800000000000         1.586676618410113E-006
  -12.0900000000000         1.593448274827257E-006
  -11.9000000000000         1.600218221224372E-006
  -11.7100000000000         1.606802150187180E-006
  -11.5200000000000         1.613476840638446E-006
  -11.3300000000000         1.619899842742121E-006
  -11.1400000000000         1.626487313327913E-006
  -10.9500000000000         1.633087994156345E-006
  -10.7600000000000         1.639702642743308E-006
  -10.5700000000000         1.646096534163453E-006
  -10.3800000000000         1.652538514864155E-006
  -10.1900000000000         1.658529625038125E-006
  -10.0000000000000         1.664235035696600E-006
  -9.81000000000000         1.669683426217479E-006
  -9.62000000000000         1.674900782856923E-006
  -9.42999999999999         1.679686742940241E-006
  -9.23999999999999         1.684803821715201E-006
  -9.05000000000000         1.689469586585608E-006
  -8.86000000000000         1.694088060666951E-006
  -8.67000000000000         1.698895503820822E-006
  -8.48000000000000         1.703552734528397E-006
  -8.28999999999999         1.708323506323545E-006
  -8.09999999999999         1.713688048465329E-006
  -7.91000000000000         1.718865707469534E-006
  -7.72000000000000         1.724438526693057E-006
  -7.53000000000000         1.729977270932594E-006
  -7.34000000000000         1.735701038285894E-006
  -7.15000000000001         1.741230818703900E-006
  -6.95999999999999         1.746605100729978E-006
  -6.77000000000000         1.752305350217172E-006
  -6.58000000000000         1.758100896118329E-006
  -6.39000000000000         1.763338778381441E-006
  -6.20000000000000         1.768590705042815E-006
  -6.01000000000001         1.773675562255281E-006
  -5.81999999999999         1.778681093504947E-006
  -5.63000000000000         1.783662618010691E-006
  -5.44000000000000         1.788579204136005E-006
  -5.25000000000000         1.793501912121649E-006
  -5.06000000000000         1.798451824896672E-006
  -4.87000000000000         1.803456896459051E-006
  -4.67999999999999         1.808448430947009E-006
  -4.48999999999999         1.813357813795219E-006
  -4.30000000000000         1.818008584125940E-006
  -4.11000000000000         1.822787537804250E-006
  -3.92000000000000         1.827349470844581E-006
  -3.73000000000000         1.832058255419691E-006
  -3.53999999999999         1.836569795630453E-006
  -3.34999999999999         1.841021163529026E-006
  -3.16000000000000         1.845442001159414E-006
  -2.97000000000000         1.849779161919569E-006
  -2.78000000000000         1.854066000344824E-006
  -2.59000000000000         1.858326513842468E-006
  -2.40000000000001         1.862458389910191E-006
  -2.20999999999999         1.866902048481973E-006
  -2.02000000000000         1.871410346220275E-006
  -1.83000000000000         1.875909267112446E-006
  -1.64000000000000         1.880224200771433E-006
  -1.45000000000000         1.884725991566461E-006
  -1.26000000000001         1.888990842348153E-006
  -1.06999999999999         1.893390796687627E-006
 -0.879999999999995         1.897434416334487E-006
 -0.689999999999998         1.901690599288680E-006
 -0.500000000000000         1.905756892933360E-006
 -0.310000000000002         1.910013155822209E-006
 -0.120000000000005         1.914083915973973E-006
  7.000000000000739E-002    1.918244315097638E-006
  0.260000000000005         1.922615959351959E-006
  0.450000000000003         1.927398213251153E-006
  0.640000000000001         1.932212094143956E-006
  0.829999999999998         1.937158194749701E-006
   1.02000000000000         1.942199483760740E-006
   1.21000000000001         1.947206304586504E-006
   1.40000000000001         1.952087335589924E-006
   1.59000000000000         1.957207433332988E-006
   1.78000000000000         1.962233946274353E-006
   1.97000000000000         1.967392072958495E-006
   2.16000000000000         1.972606558163394E-006
   2.34999999999999         1.978002569705087E-006
   2.54000000000001         1.983475715528894E-006
   2.73000000000000         1.988981915740665E-006
   2.92000000000000         1.994563422827005E-006
   3.11000000000000         2.000186465065071E-006
   3.30000000000000         2.005801749174702E-006
   3.48999999999999         2.011499303592496E-006
   3.68000000000001         2.017413312553634E-006
   3.87000000000000         2.023173135789877E-006
   4.06000000000000         2.029054391439152E-006
   4.25000000000000         2.034428101993408E-006
   4.44000000000000         2.039656686468992E-006
   4.63000000000000         2.044751051933630E-006
   4.82000000000001         2.049724077176575E-006
   5.01000000000001         2.054418711143697E-006
   5.20000000000000         2.058863708812698E-006
   5.39000000000000         2.063514655706436E-006
   5.58000000000000         2.067888929934201E-006
   5.77000000000000         2.072764924079695E-006
   5.96000000000001         2.077513675666893E-006
   6.15000000000001         2.082111800277215E-006
   6.34000000000000         2.087057894504111E-006
   6.53000000000000         2.091628318940437E-006