  -1.79550000000000         0.000000000000000E+000
  -1.55610000000000         0.000000000000000E+000
  -1.31670000000000         0.000000000000000E+000
  -1.07730000000000         0.000000000000000E+000
 -0.837900000000000         0.000000000000000E+000
 -0.598500000000000         0.000000000000000E+000
 -0.359100000000000         0.000000000000000E+000
 -0.119700000000000         0.000000000000000E+000
  0.119700000000000         0.000000000000000E+000
  0.359100000000000         0.000000000000000E+000
  0.598500000000000         0.000000000000000E+000
  0.837900000000000         0.000000000000000E+000
   1.07730000000000         0.000000000000000E+000
   1.31670000000000         0.000000000000000E+000
   1.55610000000000         0.000000000000000E+000
   1.79550000000000         0.000000000000000E+000
   2.03490000000000         0.000000000000000E+000
   2.27430000000000         0.000000000000000E+000
   2.51370000000000         0.000000000000000E+000
   2.75310000000000         0.000000000000000E+000
   2.99250000000000         0.000000000000000E+000
   3.23190000000000         0.000000000000000E+000
   3.47130000000000         0.000000000000000E+000
   3.71070000000000         0.000000000000000E+000
   3.95010000000000         0.000000000000000E+000
   4.18950000000000         0.000000000000000E+000
   4.42890000000000         0.000000000000000E+000
   4.66830000000000         0.000000000000000E+000
   4.90770000000000         0.000000000000000E+000
   5.14710000000000         0.000000000000000E+000
   5.38650000000000         0.000000000000000E+000
   5.62590000000000         0.000000000000000E+000
   5.86530000000000         0.000000000000000E+000
   6.10470000000000         0.000000000000000E+000
   6.34410000000000         0.000000000000000E+000
   6.58350000000000         0.000000000000000E+000
   6.82290000000000         8.635738708375906E-158
   7.06230000000000        -4.722606275872388E-150
   7.30170000000000         6.792571791558534E-145
   7.54110000000000         2.657114593498615E-143
   7.78050000000000         1.534019213401399E-141
   8.01990000000000         7.892434534656259E-140
   8.25930000000000         2.664551442708470E-138
   8.49870000000000         6.367215367506455E-137
   8.73810000000000         1.167757528537981E-135
   8.97750000000000         1.736346619993707E-134
   9.21690000000000         2.171453760983922E-133
   9.45630000000000         2.342938815007456E-132
   9.69570000000000         2.221377627018137E-131
   9.93510000000000         1.875930207977735E-130
   10.1745000000000         1.425510990360498E-129
   10.4139000000000         9.822603554688050E-129
   10.6533000000000         6.172442675973740E-128
   10.8927000000000         3.551117233330139E-127
   11.1321000000000         1.874496518771847E-126
   11.3715000000000         9.079445519085070E-126
   11.6109000000000         4.024576424458427E-125
   11.8503000000000         1.620888327905051E-124
   12.0897000000000         5.838942150324609E-124
   12.3291000000000         1.815219331592725E-123
   12.5685000000000         4.404777186037538E-123
   12.8079000000000         4.841704405028448E-123
   13.0473000000000        -2.931989465756977E-122
   13.2867000000000        -2.750833689210786E-121
   13.5261000000000        -1.514116250534549E-120
   13.7655000000000        -6.760526595663032E-120
   14.0049000000000        -2.645441546973061E-119
   14.2443000000000        -9.344029567916369E-119
   14.4837000000000        -3.016983124964181E-118
   14.7231000000000        -8.940143988414536E-118
   14.9625000000000        -2.425231833844084E-117
   15.2019000000000        -5.962603213874123E-117
   15.4413000000000        -1.298633848337539E-116
   15.6807000000000        -2.376271643117646E-116
   15.9201000000000        -3.104811061153429E-116
   16.1595000000000        -3.824283490751754E-117
   16.3989000000000         1.389906870217445E-115
   16.6383000000000         5.185256623640698E-115
   16.8777000000000         9.997278346303707E-115
   17.1171000000000        -3.471533012388701E-115
   17.3565000000000        -1.311685132588482E-113
   17.5959000000000        -7.368582189665244E-113
   17.8353000000000        -3.011121432954042E-112
   18.0747000000000        -1.047333601286303E-111
   18.3141000000000        -3.272218802255945E-111
   18.5535000000000        -9.417704035430012E-111
   18.7929000000000        -2.530599664764566E-110
   19.0323000000000        -6.394097857019010E-110
   19.2717000000000        -1.523436280708314E-109
   19.5111000000000        -3.418106975150587E-109
   19.7505000000000        -7.173880661137668E-109
   19.9899000000000        -1.385903544412228E-108
   20.2293000000000        -2.373309121823370E-108
   20.4687000000000        -3.233660460400162E-108
   20.7081000000000        -1.859878070314572E-108
   20.9475000000000         8.718689078522051E-108
   21.1869000000000         4.824775004212959E-107
   21.4263000000000         1.674363229109026E-106
   21.6657000000000         4.870437152334272E-106
   21.9051000000000         1.276246405185829E-105
   22.1445000000000         3.097966099568946E-105
   22.3839000000000         7.053389335343200E-105
   22.6233000000000         1.513928819281440E-104
   22.8627000000000         3.064734929050470E-104
   23.1021000000000         5.830091058629127E-104
   23.3415000000000         1.033014777136530E-103
   23.5809000000000         1.674560121812682E-103
   23.8203000000000         2.389127505155515E-103
   24.0597000000000         2.698358087805481E-103
   24.2991000000000         1.344262807448437E-103
   24.5385000000000        -4.395279221115673E-103
   24.7779000000000        -1.963769475550606E-102
   25.0173000000000        -5.280363826225931E-102
   25.2567000000000        -1.157021645253983E-101
   25.4961000000000        -2.211137327237517E-101
   25.7355000000000        -3.751020939325857E-101
   25.9749000000000        -5.606965003508523E-101
   26.2143000000000        -7.113580109885451E-101
   26.4537000000000        -6.805269604942150E-101
   26.6931000000000        -2.336696847156919E-101
   26.9325000000000         8.706486718654149E-101
   27.1719000000000         2.578595046723985E-100
   27.4113000000000         3.801663362527770E-100
   27.6507000000000         9.601013840615763E-101
   27.8901000000000        -1.441298889726214E-099
   28.1295000000000        -5.884934456558216E-099
   28.3689000000000        -1.597238112732423E-098
   28.6083000000000        -3.543771812463178E-098
   28.8477000000000        -6.788851156555113E-098
   29.0871000000000        -1.135161694324424E-097
   29.3265000000000        -1.620784247738071E-097
   29.5659000000000        -1.805810356539670E-097
   29.8053000000000        -9.523407138439521E-098
   30.0447000000000         2.293075428690464E-097
   30.2841000000000         1.003400571172868E-096
   30.5235000000000         2.497249195903016E-096
   30.7629000000000         4.961607984759605E-096
   31.0023000000000         8.437729017599496E-096
   31.2417000000000         1.241545020728090E-095
   31.4811000000000         1.534352095428260E-095
   31.7205000000000         1.411108432718816E-095
   31.9599000000000         3.827564926616110E-096
   32.1993000000000        -2.148297284524322E-095
   32.4387000000000        -6.639234706469520E-095
   32.6781000000000        -1.289349736754471E-094
   32.9175000000000        -1.928226112936723E-094
   33.1569000000000        -2.194027435962911E-094
   33.3963000000000        -1.465304470057898E-094
   33.6357000000000         9.104189758216422E-095
   33.8751000000000         4.964485813504002E-094
   34.1145000000000         8.723379543574906E-094
   34.3539000000000         5.905822989957612E-094
   34.5933000000000        -1.705671601132385E-093
   34.8327000000000        -8.340619809870443E-093
   35.0721000000000        -2.246885089802026E-092
   35.3115000000000        -4.696215053784124E-092
   35.5509000000000        -8.138553123875448E-092
   35.7903000000000        -1.159022680475377E-091
   36.0297000000000        -1.211720201914146E-091
   36.2691000000000        -3.456940318547404E-092
   36.5085000000000         2.538137312484832E-091
   36.7479000000000         9.059980065773366E-091
   36.9873000000000         2.113164284703412E-090
   37.2267000000000         4.014557479842202E-090
   37.4661000000000         6.517198960816381E-090
   37.7055000000000         8.974036925743206E-090
   37.9449000000000         9.701082848999501E-090
   38.1843000000000         5.383294562956642E-090
   38.4237000000000        -9.439103155077052E-090
   38.6631000000000        -4.237598779405278E-089
   38.9025000000000        -1.019287076499787E-088
   39.1419000000000        -1.938509424919825E-088
   39.3813000000000        -3.137769086265597E-088
   39.6207000000000        -4.349584788626493E-088
   39.8601000000000        -4.910538530800299E-088
   40.0995000000000        -3.565403919438371E-088
   40.3389000000000         1.678984064810544E-088
   40.5783000000000         1.350455029575333E-087
   40.8177000000000         3.480190612052311E-087
   41.0571000000000         6.743965445108272E-087
   41.2965000000000         1.099360471393926E-086
   41.5359000000000         1.538012975449777E-086
   41.7753000000000         1.786968281424941E-086
   42.0147000000000         1.473340916590030E-086
   42.2541000000000         2.313192933389157E-088
   42.4935000000000        -3.311398799185625E-086
   42.7329000000000        -9.306186459317310E-086
   42.9723000000000        -1.842792607162850E-085
   43.2117000000000        -3.023454545214460E-085
   43.4511000000000        -4.248439729581687E-085
   43.6905000000000        -5.002766839220599E-085
   43.9299000000000        -4.374073456731260E-085
   44.1693000000000        -1.004537550988357E-085
   44.4087000000000         6.809357985840271E-085
   44.6481000000000         2.074585958221381E-084
   44.8875000000000         4.167636601372876E-084
   45.1269000000000         6.836284448905846E-084
   45.3663000000000         9.563436512722054E-084
   45.6057000000000         1.122743983664966E-083
   45.8451000000000         9.923126648518331E-084
   46.0845000000000         2.928661877996385E-084
   46.3239000000000        -1.300966574015521E-083
   46.5633000000000        -4.085626433212944E-083
   46.8027000000000        -8.170934486368471E-083
   47.0421000000000        -1.323414865952358E-082
   47.2815000000000        -1.819743639181902E-082
   47.5209000000000        -2.088516056663554E-082
   47.7603000000000        -1.778452565286724E-082
   47.9997000000000        -4.117410587103156E-083
   48.2391000000000         2.548518576188176E-082
   48.4785000000000         7.536720502894504E-082
   48.7179000000000         1.459959809994386E-081
   48.9573000000000         2.297921255670254E-081
   49.1967000000000         3.060154012820125E-081
   49.4361000000000         3.358442001031749E-081
   49.6755000000000         2.598494303410687E-081
   49.9149000000000         1.296310281243853E-083
   50.1543000000000        -5.202152752622030E-081
   50.3937000000000        -1.359918745254976E-080
   50.6331000000000        -2.500247827658928E-080
   50.8725000000000        -3.784678969055978E-080
   51.1119000000000        -4.840902970153802E-080
   51.3513000000000        -5.013090103437775E-080
   51.5907000000000        -3.338862781159564E-080
   51.8301000000000         1.375874350945635E-080
   52.0695000000000         1.031689639346056E-079
   52.3089000000000         2.418672787818460E-079
   52.5483000000000         4.244687540758633E-079
   52.7877000000000         6.228997942689539E-079
   53.0271000000000         7.746901626696619E-079
   53.2665000000000         7.728784912914329E-079
   53.5059000000000         4.629246315492081E-079
   53.7453000000000        -3.453518927572005E-079
   53.9847000000000        -1.840574048731399E-078
   54.2241000000000        -4.136504932900748E-078
   54.4635000000000        -7.154534730076211E-078
   54.7029000000000        -1.046216300827436E-077
   54.9423000000000        -1.308393602614801E-077
   55.1817000000000        -1.332732009938571E-077
   55.4211000000000        -8.701909895768981E-078
   55.6605000000000         3.947056497840430E-078
   55.8999000000000         2.792939629976981E-077
   56.1393000000000         6.564140629546905E-077
   56.3787000000000         1.167768539244520E-076
   56.6181000000000         1.757583089351902E-076
   56.8575000000000         2.285524908459828E-076
   57.0969000000000         2.494158477125488E-076
   57.3363000000000         1.986781797112393E-076
   57.5757000000000         2.338690184076621E-077
   57.8151000000000        -3.366041673404394E-076
   58.0545000000000        -9.339386445730121E-076
   58.2939000000000        -1.787283444446369E-075
   58.5333000000000        -2.841035142425570E-075
   58.7727000000000        -3.912141921577060E-075
   59.0121000000000        -4.630539285678737E-075
   59.2515000000000        -4.388371531112000E-075
   59.4909000000000        -2.324860906944440E-075
   59.7303000000000         2.612894717163014E-075
   59.9697000000000         1.148094392042915E-074
   60.2091000000000         2.496429775127709E-074
   60.4485000000000         4.277165752462668E-074
   60.6879000000000         6.279162057998952E-074
   60.9273000000000         8.008115706793881E-074
   61.1667000000000         8.588521891060159E-074
   61.4061000000000         6.706593627345357E-074
   61.6455000000000         6.535683806076252E-075
   61.8849000000000        -1.145025018139150E-073
   62.1243000000000        -3.115821232073796E-073
   62.3637000000000        -5.884350675387088E-073
   62.6031000000000        -9.245285767559058E-073
   62.8425000000000        -1.259361363905787E-072
   63.0819000000000        -1.475978267417349E-072
   63.3213000000000        -1.388722596346140E-072
   63.5607000000000        -7.434139983562657E-073
   63.8001000000000         7.586327606939754E-073
   64.0395000000000         3.399118363476833E-072
   64.2789000000000         7.330659430026679E-072
   64.5183000000000         1.240641353012515E-071
   64.7577000000000         1.795682273800157E-071
   64.9971000000000         2.254182640357652E-071
   65.2365000000000         2.374071537437913E-071
   65.4759000000000         1.808458980290629E-071
   65.7153000000000         1.281510300549753E-072
   65.9547000000000        -3.108135024810870E-071
   66.1941000000000        -8.217206979779779E-071
   66.4335000000000        -1.517569327658008E-070
   66.6729000000000        -2.332764824510554E-070
   66.9123000000000        -3.104556986454649E-070
   67.1517000000000        -3.541647038884306E-070
   67.3911000000000        -3.207818121701063E-070
   67.6305000000000        -1.538916033531243E-070
   67.8699000000000         2.083756579160377E-070
   68.1093000000000         8.179366118987421E-070
   68.3487000000000         1.691422447715227E-069
   68.5881000000000         2.774717009724479E-069
   68.8275000000000         3.900262813832301E-069
   69.0669000000000         4.744785292892708E-069
   69.3063000000000         4.801323534284547E-069
   69.5457000000000         3.386399884664548E-069
   69.7851000000000        -2.908294973628440E-070
   70.0245000000000        -6.968200949307813E-069
   70.2639000000000        -1.705460528168778E-068
   70.5033000000000        -3.023069839692018E-068
   70.7427000000000        -4.495084583022032E-068
   70.9821000000000        -5.792159561542275E-068
   71.2215000000000        -6.369980090945408E-068
   71.4609000000000        -5.463094111498699E-068
   71.7003000000000        -2.141880521786547E-068
   71.9397000000000         4.534565464115784E-068
   72.1791000000000         1.524036795908339E-067
   72.4185000000000         2.996558642273332E-067
   72.6579000000000         4.747702709066497E-067
   72.8973000000000         6.472487967006596E-067
   73.1367000000000         7.633176372316399E-067
   73.3761000000000         7.438139906654441E-067
   73.6155000000000         4.880125720918430E-067
   73.8549000000000        -1.131852870741700E-067
   74.0943000000000        -1.151453558659858E-066
   74.3337000000000        -2.660659947730042E-066
   74.5731000000000        -4.562736245503667E-066
   74.8125000000000        -6.605300037213584E-066
   75.0519000000000        -8.303048889381793E-066
   75.2913000000000        -8.902789198932188E-066
   75.5307000000000        -7.399805528208510E-066
   75.7701000000000        -2.638847541474415E-066
   76.0095000000000         6.466952166607713E-066
   76.2489000000000         2.057542999736741E-065
   76.4883000000000         3.941242453445524E-065
   76.7277000000000         6.116599158572993E-065
   76.9671000000000         8.187489165956727E-065
   77.2065000000000         9.497961658891597E-065
   77.4459000000000         9.127846464136963E-065
   77.6853000000000         5.958972824380776E-065
   77.9247000000000        -1.156349243416909E-065
   78.1641000000000        -1.309913587117949E-064
   78.4035000000000        -3.005197188784597E-064
   78.6429000000000        -5.095581182764189E-064
   78.8823000000000        -7.292685790832160E-064
   79.1217000000000        -9.076533988376241E-064
   79.3611000000000        -9.675347311291683E-064
   79.6005000000000        -8.099604741773892E-064
   79.8399000000000        -3.258242345541376E-064
   80.0793000000000         5.818442375158321E-064
   80.3187000000000         1.963679012154266E-063
   80.5581000000000         3.778993771063902E-063
   80.7975000000000         5.844775319919066E-063
   81.0369000000000         7.788189845340786E-063
   81.2763000000000         9.017518606998877E-063
   81.5157000000000         8.731395404103946E-063
   81.7551000000000         5.989155628899863E-063
   81.9945000000000        -1.360590692966975E-064
   82.2339000000000        -1.030740669069916E-062
   82.4733000000000        -2.457982430860893E-062
   82.7127000000000        -4.198908013593864E-062
   82.9521000000000        -6.013794560694098E-062
   83.1915000000000        -7.488440501983876E-062
   83.4309000000000        -8.027728569013218E-062
   83.6703000000000        -6.891321963755333E-062
   83.9097000000000        -3.289060689302722E-062
   84.1491000000000         3.450591052850839E-062
   84.3885000000000         1.363595195760738E-061
   84.6279000000000         2.690570499782412E-061
   84.8673000000000         4.189952073531275E-061
   85.1067000000000         5.597441690356653E-061
   85.3461000000000         6.506633033130867E-061
   85.5855000000000         6.382092622058984E-061
   85.8249000000000         4.612602846594125E-061
   86.0643000000000         6.158346420903268E-062
   86.3037000000000        -6.000255787208780E-061
   86.5431000000000        -1.522489587778502E-060
   86.7825000000000        -2.640244052339849E-060
   87.0219000000000        -3.800263605871724E-060
   87.2613000000000        -4.746699519355825E-060
   87.5007000000000        -5.121432523560212E-060
   87.7401000000000        -4.489869030629850E-060
   87.9795000000000        -2.400652108822157E-060
   88.2189000000000         1.515199232785166E-060
   88.4583000000000         7.406552531470027E-060
   88.6977000000000         1.503648948775335E-059
   88.9371000000000         2.361231567582140E-059
   89.1765000000000         3.164960635561455E-059
   89.4159000000000         3.692263175000642E-059
   89.6553000000000         3.656295557723944E-059
   89.8947000000000         2.736806150208902E-059
   90.1341000000000         6.367191095314570E-060
   90.3735000000000        -2.834265821807171E-059
   90.6129000000000        -7.653431041151863E-059
   90.8523000000000        -1.346835980393133E-058
   91.0917000000000        -1.949136955785993E-058
   91.3311000000000        -2.443612752471895E-058
   91.5705000000000        -2.653504866485467E-058
   91.8099000000000        -2.367876383944493E-058
   92.0493000000000        -1.371348567746469E-058
   92.2887000000000         5.084719924495771E-059
   92.5281000000000         3.337024940649005E-058
   92.7675000000000         6.997895079767346E-058
   93.0069000000000         1.111819371527072E-057
   93.2463000000000         1.501152249972424E-057
   93.4857000000000         1.766124528297192E-057
   93.7251000000000         1.776996143233513E-057
   93.9645000000000         1.390004789667944E-057
   94.2039000000000         4.722903155679451E-058
   94.4433000000000        -1.062059004216676E-057
   94.6827000000000        -3.206964122906458E-057
   94.9221000000000        -5.815609281120342E-057
   95.1615000000000        -8.556946270581847E-057
   95.4009000000000        -1.088999894520169E-056
   95.6403000000000        -1.207121167174925E-056
   95.8797000000000        -1.121080411931018E-056
   96.1191000000000        -7.391648512658522E-057
   96.3585000000000         1.425304560214100E-058
   96.5979000000000         1.173455021062865E-056
   96.8373000000000         2.701840281959259E-056
   97.0767000000000         4.462341747188530E-056
   97.3161000000000         6.194231772262319E-056
   97.5555000000000         7.504695749225882E-056
   97.7949000000000         7.884671767169863E-056
   98.0343000000000         6.758092213778096E-056
   98.2737000000000         3.571146418598750E-056
   98.5131000000000        -2.077034237141655E-056
   98.7525000000000        -1.026902670579004E-055
   98.9919000000000        -2.058669375613684E-055
   99.2313000000000        -3.194181860483183E-055
   99.4707000000000        -4.246235924484141E-055
   99.7101000000000        -4.948653033906053E-055
   99.9495000000000        -4.972036719609201E-055
   100.188900000000        -3.960789394681225E-055
   100.428300000000        -1.594296999538813E-055
   100.667700000000         2.328411186099287E-055
   100.907100000000         7.786445645176571E-055
   101.146500000000         1.442975919365325E-054
   101.385900000000         2.148642856398839E-054
   101.625300000000         2.771080470333799E-054
   101.864700000000         3.140327148340261E-054
   102.104100000000         3.053266479830565E-054
   102.343500000000         2.298653404899753E-054
   102.582900000000         6.960618855582250E-055
   102.822300000000        -1.852381293079936E-054
   103.061700000000        -5.301740252778877E-054
   103.301100000000        -9.403513426950776E-054
   103.540500000000        -1.365633018755121E-053
   103.779900000000        -1.728345337477470E-053
   104.019300000000        -1.925438028058702E-053
   104.258700000000        -1.836724854792521E-053
   104.498100000000        -1.340458218354760E-053
   104.737500000000        -3.366317303959753E-054
   104.976900000000         1.222932612470573E-053
   105.216300000000         3.300428893185302E-053
   105.455700000000         5.738621234904106E-053
   105.695100000000         8.234965559280251E-053
   105.934500000000         1.033186058176610E-052
   106.173900000000         1.143241305202389E-052
   106.413300000000         1.085048736176729E-052
   106.652700000000         7.901223204953515E-053
   106.892100000000         2.033253631446068E-053
   107.131500000000        -7.003576509469245E-053
   107.370900000000        -1.897079878444026E-052
   107.610300000000        -3.296094770628236E-052
   107.849700000000        -4.726171133393450E-052
   108.089100000000        -5.931056070090185E-052
   108.328500000000        -6.578938034499680E-052
   108.567900000000        -6.290444353311994E-052
   108.807300000000        -4.688251296409005E-052
   109.046700000000        -1.468705425093647E-052
   109.286100000000         3.508084067989059E-052
   109.525500000000         1.011823855585425E-051
   109.764900000000         1.787837646666140E-051
   110.004300000000         2.587381010431518E-051
   110.243700000000         3.273455400098245E-051
   110.483100000000         3.668468421363708E-051
   110.722500000000         3.568826334994885E-051
   110.961900000000         2.770744512427718E-051
   111.201300000000         1.107461459284544E-051
   111.440700000000        -1.503962433511012E-051
   111.680100000000        -5.010617198745989E-051
   111.919500000000        -9.173677741782390E-051
   112.158900000000        -1.353023732230087E-050
   112.398300000000        -1.737909735478356E-050
   112.637700000000        -1.980341642622416E-050
   112.877100000000        -1.974199917345984E-050
   113.116500000000        -1.611728534614101E-050
   113.355900000000        -8.021353372496260E-051
   113.595300000000         5.048582772125781E-051
   113.834700000000         2.292616678226582E-050
   114.074100000000         4.451833016661547E-050
   114.313500000000         6.760270925488930E-050
   114.552900000000         8.873927117012584E-050
   114.792300000000         1.033599972354161E-049
   115.031700000000         1.060957224625070E-049
   115.271100000000         9.138205935668103E-050
   115.510500000000         5.435464040578715E-050
   115.749900000000        -8.002708828467860E-051
   115.989300000000        -9.555274847600844E-050
   116.228700000000        -2.037056448774260E-049
   116.468100000000        -3.223552278930668E-049
   116.707500000000        -4.353335202047607E-049
   116.946900000000        -5.206923784591943E-049
   117.186300000000        -5.521039693902602E-049
   117.425700000000        -5.015970504837279E-049
   117.665100000000        -3.437032849740812E-049
   117.904500000000        -6.087437825490796E-050
   118.143900000000         3.502448862645729E-049
   118.383300000000         8.724180341819225E-049
   118.622700000000         1.462339689984133E-048
   118.862100000000         2.047390711463586E-048
   119.101500000000         2.526081554023558E-048
   119.340900000000         2.773593503973011E-048
   119.580300000000         2.653522042808045E-048
   119.819700000000         2.036311684740080E-048
   120.059100000000         8.239297682197577E-049
   120.298500000000        -1.020910644148804E-048
   120.537900000000        -3.444107364145630E-048
   120.777300000000        -6.272709082645327E-048
   121.016700000000        -9.196519300349525E-048
   121.256100000000        -1.176542974373498E-047
   121.495500000000        -1.340911906649935E-047
   121.734900000000        -1.348459741427837E-047
   121.974300000000        -1.135455579503706E-047
   122.213700000000        -6.495487076621066E-048
   122.453100000000         1.370814745361708E-048
   122.692500000000         1.213512837237249E-047
   122.931900000000         2.516748173374391E-047
   123.171300000000         3.921807136531565E-047
   123.410700000000         5.238195688533413E-047
   123.650100000000         6.215783230711237E-047
   123.889500000000         6.562724059088654E-047
   124.128900000000         5.977083450967113E-047
   124.368300000000         4.192211346825261E-047
   124.607700000000         1.033673804932903E-047
   124.847100000000        -3.517159691345960E-047
   125.086500000000        -9.260701287146818E-047
   125.325900000000        -1.572847280405772E-046
   125.565300000000        -2.215679130951484E-046
   125.804700000000        -2.749818226263017E-046
   126.044100000000        -3.048276110120435E-046
   126.283500000000        -2.973830190929453E-046
   126.522900000000        -2.397149055535099E-046
   126.762300000000        -1.220395826716340E-046
   127.001700000000         5.954432519443517E-047
   127.241100000000         3.002494540970335E-046
   127.480500000000         5.841394516400453E-046
   127.719900000000         8.825322406756531E-046
   127.959300000000         1.153834628742447E-045
   128.198700000000         1.345354636805272E-045
   128.438100000000         1.397522250123988E-045
   128.677500000000         1.250724238037466E-045
   128.916900000000         8.546210388186181E-046
   129.156300000000         1.793769030590522E-046
   129.395700000000        -7.722676965994603E-046
   129.635100000000        -1.953664120265662E-045
   129.874500000000        -3.265691355693950E-045
   130.113900000000        -4.553271336950833E-045
   130.353300000000        -5.609300095216400E-045
   130.592700000000        -6.188001702662768E-045
   130.832100000000        -6.028957602959519E-045
   131.071500000000        -4.891854911590549E-045
   131.310900000000        -2.600364184601249E-045
   131.550300000000         9.083936300141586E-046
   131.789700000000         5.534408520193888E-045
   132.029100000000         1.097291672130052E-044
   132.268500000000         1.668908981923648E-044
   132.507900000000         2.191881187115658E-044
   132.747300000000         2.570437307507439E-044
   132.986700000000         2.697162704574131E-044
   133.226100000000         2.465111993621286E-044
   133.465500000000         1.783992766269852E-044
   133.704900000000         5.993726087621184E-045
   133.944300000000        -1.086942469241045E-044
   134.183700000000        -3.198004557628974E-044
   134.423100000000        -5.567604178621925E-044
   134.662500000000        -7.934631654308792E-044
   134.901900000000        -9.949583518681544E-044
   135.141300000000        -1.119629068625881E-043
   135.380700000000        -1.123071064270300E-043
   135.620100000000        -9.636717087613883E-044
   135.859500000000        -6.096300815558357E-044
   136.098900000000        -4.686390223857594E-045
   136.338300000000         7.130609880428283E-044
   136.577700000000         1.626126476017475E-043
   136.817100000000         2.611538585677083E-043
   137.056500000000         3.551316345932268E-043
   137.295900000000         4.295118444014263E-043
   137.535300000000         4.671300713762761E-043
   137.774700000000         4.504616440066638E-043
   138.014100000000         3.640147247073599E-043
   138.253500000000         1.972027402968375E-043
   138.492900000000        -5.256168581220311E-044
   138.732300000000        -3.769221730020559E-043