  -1.79550000000000         0.000000000000000E+000
  -1.55610000000000         0.000000000000000E+000
  -1.31670000000000         0.000000000000000E+000
  -1.07730000000000         0.000000000000000E+000
 -0.837900000000000         0.000000000000000E+000
 -0.598500000000000         0.000000000000000E+000
 -0.359100000000000         0.000000000000000E+000
 -0.119700000000000         0.000000000000000E+000
  0.119700000000000         0.000000000000000E+000
  0.359100000000000         0.000000000000000E+000
  0.598500000000000         0.000000000000000E+000
  0.837900000000000         0.000000000000000E+000
   1.07730000000000         0.000000000000000E+000
   1.31670000000000         0.000000000000000E+000
   1.55610000000000         0.000000000000000E+000
   1.79550000000000         0.000000000000000E+000
   2.03490000000000         0.000000000000000E+000
   2.27430000000000         0.000000000000000E+000
   2.51370000000000         0.000000000000000E+000
   2.75310000000000         0.000000000000000E+000
   2.99250000000000         0.000000000000000E+000
   3.23190000000000         0.000000000000000E+000
   3.47130000000000         0.000000000000000E+000
   3.71070000000000         0.000000000000000E+000
   3.95010000000000         0.000000000000000E+000
   4.18950000000000         0.000000000000000E+000
   4.42890000000000         0.000000000000000E+000
   4.66830000000000         0.000000000000000E+000
   4.90770000000000         0.000000000000000E+000
   5.14710000000000         0.000000000000000E+000
   5.38650000000000         0.000000000000000E+000
   5.62590000000000         0.000000000000000E+000
   5.86530000000000         0.000000000000000E+000
   6.10470000000000         0.000000000000000E+000
   6.34410000000000         0.000000000000000E+000
   6.58350000000000         0.000000000000000E+000
   6.82290000000000         0.000000000000000E+000
   7.06230000000000         0.000000000000000E+000
   7.30170000000000         0.000000000000000E+000
   7.54110000000000         0.000000000000000E+000
   7.78050000000000         0.000000000000000E+000
   8.01990000000000         0.000000000000000E+000
   8.25930000000000         0.000000000000000E+000
   8.49870000000000         0.000000000000000E+000
   8.73810000000000         0.000000000000000E+000
   8.97750000000000         0.000000000000000E+000
   9.21690000000000        -6.085712664358709E-197
   9.45630000000000        -3.508561516754766E-190
   9.69570000000000         4.174522059036308E-186
   9.93510000000000         4.952333671139824E-184
   10.1745000000000         1.983813950168001E-181
   10.4139000000000         1.851179370966983E-179
   10.6533000000000         9.313549903398717E-178
   10.8927000000000         3.194457378282882E-176
   11.1321000000000         8.320053764404403E-175
   11.3715000000000         1.749823158146176E-173
   11.6109000000000         3.091574534752807E-172
   11.8503000000000         4.716679099041295E-171
   12.0897000000000         6.340809478002934E-170
   12.3291000000000         7.628079075053480E-169
   12.5685000000000         8.312500622473635E-168
   12.8079000000000         8.286145786984944E-167
   13.0473000000000         7.616807109499842E-166
   13.2867000000000         6.499852616934845E-165
   13.5261000000000         5.178408019479537E-164
   13.7655000000000         3.870220649152745E-163
   14.0049000000000         2.724621705123836E-162
   14.2443000000000         1.813187052199280E-161
   14.4837000000000         1.144113317897531E-160
   14.7231000000000         6.863230132122777E-160
   14.9625000000000         3.922887908295533E-159
   15.2019000000000         2.140644772823935E-158
   15.4413000000000         1.117016151872539E-157
   15.6807000000000         5.581417630600589E-157
   15.9201000000000         2.673480344619400E-156
   16.1595000000000         1.228616537248321E-155
   16.3989000000000         5.419983717501562E-155
   16.6383000000000         2.295722950518193E-154
   16.8777000000000         9.335049812790452E-154
   17.1171000000000         3.641863649213529E-153
   17.3565000000000         1.361469403383927E-152
   17.5959000000000         4.866987006361844E-152
   17.8353000000000         1.658075364751959E-151
   18.0747000000000         5.353557430617922E-151
   18.3141000000000         1.623081022386955E-150
   18.5535000000000         4.543535231558629E-150
   18.7929000000000         1.134423045146009E-149
   19.0323000000000         2.308282817170433E-149
   19.2717000000000         2.504876710510378E-149
   19.5111000000000        -8.419197035797860E-149
   19.7505000000000        -7.763823677034062E-148
   19.9899000000000        -3.906989764904793E-147
   20.2293000000000        -1.604307147022096E-146
   20.4687000000000        -5.861854473355163E-146
   20.7081000000000        -1.968046796758963E-145
   20.9475000000000        -6.155989634037488E-145
   21.1869000000000        -1.802907078658362E-144
   21.4263000000000        -4.936930893790355E-144
   21.6657000000000        -1.253249642960211E-143
   21.9051000000000        -2.888332891556613E-143
   22.1445000000000        -5.741238896293730E-143
   22.3839000000000        -8.312050005259953E-143
   22.6233000000000         5.838598970499145E-145
   22.8627000000000         6.472616085245694E-142
   23.1021000000000         3.459755280682829E-141
   23.3415000000000         1.352606012495455E-140
   23.5809000000000         4.580974114227546E-140
   23.8203000000000         1.416895392834331E-139
   24.0597000000000         4.095582683422332E-139
   24.2991000000000         1.119243675160659E-138
   24.5385000000000         2.909051092219519E-138
   24.7779000000000         7.209169036190415E-138
   25.0173000000000         1.703096232017766E-137
   25.2567000000000         3.823779740757857E-137
   25.4961000000000         8.102439233841034E-137
   25.7355000000000         1.597993826106045E-136
   25.9749000000000         2.849551358117186E-136
   26.2143000000000         4.272707069214441E-136
   26.4537000000000         4.041293015785328E-136
   26.6931000000000        -4.361966250257113E-136
   26.9325000000000        -4.014134226611811E-135
   27.1719000000000        -1.540645995834585E-134
   27.4113000000000        -4.703869793883183E-134
   27.6507000000000        -1.274674103348559E-133
   27.8901000000000        -3.186822551801216E-133
   28.1295000000000        -7.478509981395016E-133
   28.3689000000000        -1.660358061427566E-132
   28.6083000000000        -3.496206371394456E-132
   28.8477000000000        -6.968950122509530E-132
   29.0871000000000        -1.305571011027771E-131
   29.3265000000000        -2.262347795014323E-131
   29.5659000000000        -3.498731039558301E-131
   29.8053000000000        -4.376242501068185E-131
   30.0447000000000        -2.646760493971256E-131
   30.2841000000000         7.932692758483942E-131
   30.5235000000000         4.271564441323111E-130
   30.7629000000000         1.365243958278180E-129
   31.0023000000000         3.635253428151388E-129
   31.2417000000000         8.733475010086038E-129
   31.4811000000000         1.952922569332732E-128
   31.7205000000000         4.125037521965783E-128
   31.9599000000000         8.290762850015707E-128
   32.1993000000000         1.590451505105094E-127
   32.4387000000000         2.911880437272518E-127
   32.6781000000000         5.071570149384458E-127
   32.9175000000000         8.339285007708639E-127
   33.1569000000000         1.274949399479864E-126
   33.3963000000000         1.754298150373455E-126
   33.6357000000000         1.995833916350787E-126
   33.8751000000000         1.283203127348971E-126
   34.1145000000000        -1.985607373040200E-126
   34.3539000000000        -1.107740853388034E-125
   34.5933000000000        -3.221116385148387E-125
   34.8327000000000        -7.656261163904488E-125
   35.0721000000000        -1.631823887723283E-124
   35.3115000000000        -3.228958579291294E-124
   35.5509000000000        -6.028916607080779E-124
   35.7903000000000        -1.070919912032056E-123
   36.0297000000000        -1.816511921462999E-123
   36.2691000000000        -2.943948998416733E-123
   36.5085000000000        -4.547159399008172E-123
   36.7479000000000        -6.649229049641405E-123
   36.9873000000000        -9.076998782656949E-123
   37.2267000000000        -1.122125624555322E-122
   37.4661000000000        -1.160005693378225E-122
   37.7055000000000        -7.087783615850525E-123
   37.9449000000000         8.418718446067383E-123
   38.1843000000000         4.627420952412309E-122
   38.4237000000000         1.269081515106076E-121
   38.6631000000000         2.861395145754163E-121
   38.9025000000000         5.853450399368857E-121
   39.1419000000000         1.127225320634609E-120
   39.3813000000000         2.078899504531311E-120
   39.6207000000000         3.702816509359300E-120
   39.8601000000000         6.391816852994904E-120
   40.0995000000000         1.069455195837684E-119
   40.3389000000000         1.729627674116850E-119
   40.5783000000000         2.688008030587990E-119
   40.8177000000000         3.972453853464789E-119
   41.0571000000000         5.478382246734284E-119
   41.2965000000000         6.783652541556625E-119
   41.5359000000000         6.808296545286696E-119
   41.7753000000000         3.234997162955128E-119
   42.0147000000000        -8.408199228859913E-119
   42.2541000000000        -3.608895367950709E-118
   42.4935000000000        -9.304687285779441E-118
   42.7329000000000        -1.998216774339787E-117
   42.9723000000000        -3.859491991589677E-117
   43.2117000000000        -6.900180740691259E-117
   43.4511000000000        -1.155598748977571E-116
   43.6905000000000        -1.818790849662016E-116
   43.9299000000000        -2.680733106118701E-116
   44.1693000000000        -3.655519235004045E-116
   44.4087000000000        -4.481074524110304E-116
   44.6481000000000        -4.578825244024939E-116
   44.8875000000000        -2.849591949041182E-116
   45.1269000000000         2.598352840551826E-116
   45.3663000000000         1.477223070815818E-115
   45.6057000000000         3.811090074461546E-115
   45.8451000000000         7.866537784026317E-115
   46.0845000000000         1.439022924141238E-114
   46.3239000000000         2.417234505134267E-114
   46.5633000000000         3.780697602283366E-114
   46.8027000000000         5.521990040406347E-114
   47.0421000000000         7.484254857191408E-114
   47.2815000000000         9.228638611884952E-114
   47.5209000000000         9.836876427084441E-114
   47.7603000000000         7.638787635597935E-114
   47.9997000000000        -1.312395491583971E-115
   48.2391000000000        -1.771358076774216E-113
   48.4785000000000        -5.114536568194866E-113
   48.7179000000000        -1.083344269042271E-112
   48.9573000000000        -1.985437936354978E-112
   49.1967000000000        -3.307316711629876E-112
   49.4361000000000        -5.099190106023082E-112
   49.6755000000000        -7.304588409302420E-112
   49.9149000000000        -9.648491205225264E-112
   50.1543000000000        -1.146746954455529E-111
   50.3937000000000        -1.147423870686145E-111
   50.6331000000000        -7.465375328192203E-112
   50.8725000000000         3.985488317292007E-112
   51.1119000000000         2.774809702815438E-111
   51.3513000000000         7.007808083279289E-111
   51.5907000000000         1.379649947105163E-110
   51.8301000000000         2.374194210233742E-110
   52.0695000000000         3.700891134931936E-110
   52.3089000000000         5.275233437426502E-110
   52.5483000000000         6.825218087631273E-110
   52.7877000000000         7.774833198211449E-110
   53.0271000000000         7.107379267841874E-110
   53.2665000000000         3.237547915100745E-110
   53.5059000000000        -6.049363734195182E-110
   53.7453000000000        -2.349288472605094E-109
   53.9847000000000        -5.194311706084512E-109
   54.2241000000000        -9.345122452573914E-109
   54.4635000000000        -1.476641166834495E-108
   54.7029000000000        -2.093683134636967E-108
   54.9423000000000        -2.651813172979869E-108
   55.1817000000000        -2.897056184879354E-108
   55.4211000000000        -2.419917507531982E-108
   55.6605000000000        -6.392441588256949E-109
   55.8999000000000         3.168963156475490E-108
   56.1393000000000         9.762235530807314E-108
   56.3787000000000         1.969960465541369E-107
   56.6181000000000         3.294681255303381E-107
   56.8575000000000         4.829772530953814E-107
   57.0969000000000         6.263638160747723E-107
   57.3363000000000         7.014528760796819E-107
   57.5757000000000         6.168753250767101E-107
   57.8151000000000         2.474804618339155E-107
   58.0545000000000        -5.550994538731427E-107
   58.2939000000000        -1.933825180492841E-106
   58.5333000000000        -3.972492116165857E-106
   58.7727000000000        -6.611930479259144E-106
   59.0121000000000        -9.537144490857577E-106
   59.2515000000000        -1.204730304423832E-105
   59.4909000000000        -1.293720917972568E-105
   59.7303000000000        -1.044073872388788E-105
   59.9697000000000        -2.310751358191355E-106
   60.2091000000000         1.387023949770636E-105
   60.4485000000000         4.004926077210592E-105
   60.6879000000000         7.665656867736575E-105
   60.9273000000000         1.211482725654058E-104
   61.1667000000000         1.662630896575198E-104
   61.4061000000000         1.983171793793126E-104
   61.6455000000000         1.961175674952779E-104
   61.8849000000000         1.313509615837572E-104
   62.1243000000000        -2.847479711579353E-105
   62.3637000000000        -3.134121586412136E-104
   62.6031000000000        -7.399318364191890E-104
   62.8425000000000        -1.295176845250729E-103
   63.0819000000000        -1.917910015266716E-103
   63.3213000000000        -2.479456087711501E-103
   63.5607000000000        -2.770381663401276E-103
   63.8001000000000        -2.501059148839288E-103
   64.0395000000000        -1.325802374824061E-103
   64.2789000000000         1.100193893166876E-103
   64.5183000000000         5.025607371833499E-103
   64.7577000000000         1.047198698597027E-102
   64.9971000000000         1.708218745991404E-102
   65.2365000000000         2.397938113279001E-102
   65.4759000000000         2.968353180838803E-102
   65.7153000000000         3.214156412133830E-102
   65.9547000000000         2.892189354446678E-102
   66.1941000000000         1.759425624036265E-102
   66.4335000000000        -3.744676280207012E-103
   66.6729000000000        -3.592913699923799E-102
   66.9123000000000        -7.839741001115921E-102
   67.1517000000000        -1.293893909788762E-101
   67.3911000000000        -1.869653742607264E-101
   67.6305000000000        -2.509541861201342E-101
   67.8699000000000        -3.254805938088412E-101
   68.1093000000000        -4.209303500666073E-101
   68.3487000000000        -5.531099806328535E-101
   68.5881000000000        -7.361383999163042E-101
   68.8275000000000        -9.647159256070833E-101
   69.0669000000000        -1.181628824275517E-100
   69.3063000000000        -1.228777063558485E-100
   69.5457000000000        -7.859910529717758E-101
   69.7851000000000         6.873438379488167E-101
   70.0245000000000         3.976789402523926E-100
   70.2639000000000         1.005218348878177E-099
   70.5033000000000         1.984999314465183E-099
   70.7427000000000         3.381411979657225E-099
   70.9821000000000         5.111858714652174E-099
   71.2215000000000         6.854239021557396E-099
   71.4609000000000         7.907370838602759E-099
   71.7003000000000         7.050726278460084E-099
   71.9397000000000         2.457397040037076E-099
   72.1791000000000        -8.250838862395887E-099
   72.4185000000000        -2.768067034184961E-098
   72.6579000000000        -5.792386828165854E-098
   72.8973000000000        -9.924240258666689E-098
   73.1367000000000        -1.480888737570554E-097
   73.3761000000000        -1.945158349107972E-097
   73.6155000000000        -2.192963629161013E-097
   73.8549000000000        -1.914907715476456E-097
   74.0943000000000        -6.774332037747282E-098
   74.3337000000000         2.047822891239330E-097
   74.5731000000000         6.793605089102504E-097
   74.8125000000000         1.391841715171282E-096
   75.0519000000000         2.331697439281071E-096
   75.2913000000000         3.401304442882002E-096
   75.5307000000000         4.366094239058868E-096
   75.7701000000000         4.803627568816260E-096
   76.0095000000000         4.067373449269709E-096
   76.2489000000000         1.290521587253192E-096
   76.4883000000000        -4.534917812642665E-096
   76.7277000000000        -1.436102638091841E-095
   76.9671000000000        -2.872580530039492E-095
   77.2065000000000        -4.720380688804265E-095
   77.4459000000000        -6.766944319161761E-095
   77.6853000000000        -8.543944957517158E-095
   77.9247000000000        -9.245744734846890E-095
   78.1641000000000        -7.681306673756119E-095
   78.4035000000000        -2.303888685468309E-095
   78.6429000000000         8.622789183023409E-095
   78.8823000000000         2.665460013693817E-094
   79.1217000000000         5.253067120138564E-094
   79.3611000000000         8.523586893950957E-094
   79.6005000000000         1.207894051326571E-093
   79.8399000000000         1.508931560397294E-093
   80.0793000000000         1.617287624454736E-093
   80.3187000000000         1.333914779779238E-093
   80.5581000000000         4.066751171753488E-094
   80.7975000000000        -1.439486638743208E-093
   81.0369000000000        -4.440204020386376E-093
   81.2763000000000        -8.688850230236515E-093
   81.5157000000000        -1.398994105147568E-092
   81.7551000000000        -1.967571233985828E-092
   81.9945000000000        -2.440928181064450E-092
   82.2339000000000        -2.602083249855352E-092
   82.4733000000000        -2.145140136609276E-092
   82.7127000000000        -6.908051655158161E-093
   82.9521000000000         2.164316747854856E-092
   83.1915000000000         6.751578835443107E-092
   83.4309000000000         1.317721974169281E-091
   83.6703000000000         2.111052550141471E-091
   83.9097000000000         2.952668531708339E-091
   84.1491000000000         3.644131981834883E-091
   84.3885000000000         3.870515766216224E-091
   84.6279000000000         3.196410954164188E-091
   84.8673000000000         1.092575487097884E-091
   85.1067000000000        -2.990282582013902E-091
   85.3461000000000        -9.484470690788769E-091
   85.5855000000000        -1.849407445193735E-090
   85.8249000000000        -2.951074043045344E-090
   86.0643000000000        -4.107884429032407E-090
   86.3037000000000        -5.046346934709545E-090
   86.5431000000000        -5.341452042734132E-090
   86.7825000000000        -4.416471404663413E-090
   87.0219000000000        -1.583931905139338E-090
   87.2613000000000         3.852280982824048E-090
   87.5007000000000         1.241538241177867E-089
   87.7401000000000         2.418424299970118E-089
   87.9795000000000         3.843806357863269E-089
   88.2189000000000         5.325025031549165E-089
   88.4583000000000         6.510265497639770E-089
   88.6977000000000         6.863828938221721E-089
   88.9371000000000         5.672030623507079E-089
   89.1765000000000         2.100617666434145E-089
   89.4159000000000        -4.673855189226585E-089
   89.6553000000000        -1.523953858364310E-088
   89.8947000000000        -2.962325275653449E-088
   90.1341000000000        -4.687510001047702E-088
   90.3735000000000        -6.460811730935239E-088
   90.6129000000000        -7.858087845018576E-088
   90.8523000000000        -8.246242013995360E-088
   91.0917000000000        -6.797044983923215E-088
   91.3311000000000        -2.561214777717249E-088
   91.5705000000000         5.373722966742864E-088
   91.8099000000000         1.762335013640131E-087
   92.0493000000000         3.413897750132238E-087
   92.2887000000000         5.375188946366340E-087
   92.5281000000000         7.368390302459274E-087
   92.7675000000000         8.912545175594236E-087
   93.0069000000000         9.303516860488901E-087
   93.2463000000000         7.636477916383136E-087
   93.4857000000000         2.894537248319267E-087
   93.7251000000000        -5.873433648077981E-087
   93.9645000000000        -1.926944727485457E-086
   94.2039000000000        -3.715659511402840E-086
   94.4433000000000        -5.818790436143223E-086
   94.6827000000000        -7.931624849965195E-086
   94.9221000000000        -9.539441870821586E-086
   95.1615000000000        -9.902525263122862E-086
   95.4009000000000        -8.086665307129299E-086
   95.6403000000000        -3.062038393661087E-086
   95.8797000000000         6.108303680835470E-086
   96.1191000000000         1.997708641151168E-085
   96.3585000000000         3.832185473674505E-085
   96.5979000000000         5.968417560621234E-085
   96.8373000000000         8.090536302772016E-085
   97.0767000000000         9.676934775826272E-085
   97.3161000000000         9.990942263368382E-085
   97.5555000000000         8.117353382420625E-085
   97.7949000000000         3.065809326970654E-085
   98.0343000000000        -6.040527912055820E-085
   98.2737000000000        -1.968121074609616E-084
   98.5131000000000        -3.756638657129626E-084
   98.7525000000000        -5.820853346455480E-084
   98.9919000000000        -7.850424339300256E-084
   99.2313000000000        -9.343199706912662E-084
   99.4707000000000        -9.601155567068669E-084
   99.7101000000000        -7.770072172932266E-084
   99.9495000000000        -2.941265411083248E-084
   100.188900000000         5.669429031318144E-084
   100.428300000000         1.845887976528755E-083
   100.667700000000         3.509915089519188E-083
   100.907100000000         5.415749320476483E-083
   101.146500000000         7.273606859839917E-083
   101.385900000000         8.622765853727004E-083
   101.625300000000         8.831617290886068E-083
   101.864700000000         7.137341771249849E-083
   102.104100000000         2.740497150764823E-083
   102.343500000000        -5.033511806509153E-083
   102.582900000000        -1.650221115870228E-082
   102.822300000000        -3.133313398409252E-082
   103.061700000000        -4.822030627187350E-082
   103.301100000000        -6.458554977365216E-082
   103.540500000000        -7.638789710536796E-082
   103.779900000000        -7.815007682870354E-082
   104.019300000000        -6.332728048998489E-082
   104.258700000000        -2.514095677307508E-082
   104.498100000000         4.203139556866741E-082
   104.737500000000         1.406907527904327E-081
   104.976900000000         2.677738291936316E-081
   105.216300000000         4.119974537196720E-081
   105.455700000000         5.514591226996830E-081
   105.695100000000         6.521830508932764E-081
   105.934500000000         6.684966986738316E-081
   106.173900000000         5.462357154623802E-081
   106.413300000000         2.297320912744238E-081
   106.652700000000        -3.267402070233169E-081
   106.892100000000        -1.142981288201062E-080
   107.131500000000        -2.193218500613748E-080
   107.370900000000        -3.384989576630568E-080
   107.610300000000        -4.540345113316984E-080
   107.849700000000        -5.384844672914774E-080
   108.089100000000        -5.551275230757021E-080
   108.328500000000        -4.605794403615475E-080
   108.567900000000        -2.103736292007329E-080
   108.807300000000         2.319989052010546E-080
   109.046700000000         8.825665538483457E-080
   109.286100000000         1.721588908378106E-079
   109.525500000000         2.677228348270400E-079
   109.764900000000         3.611111221185254E-079
   110.004300000000         4.309962589519798E-079
   110.243700000000         4.488559927102431E-079
   110.483100000000         3.809784002060794E-079
   110.722500000000         1.927139904553667E-079
   110.961900000000        -1.446658801375460E-079
   111.201300000000        -6.444989821844756E-079
   111.440700000000        -1.293197657457106E-078
   111.680100000000        -2.037940152357139E-078
   111.919500000000        -2.775760579841037E-078
   112.158900000000        -3.347121610639293E-078
   112.398300000000        -3.537818067449218E-078
   112.637700000000        -3.093434635368154E-078
   112.877100000000        -1.750275022581417E-078
   113.116500000000         7.146148650680835E-079
   113.355900000000         4.414259099592055E-078
   113.595300000000         9.267288747189313E-078
   113.834700000000         1.490740067510737E-077
   114.074100000000         2.060221582337507E-077
   114.313500000000         2.520349098671697E-077
   114.552900000000         2.715607414816399E-077
   114.792300000000         2.459570545807121E-077
   115.031700000000         1.556373204098390E-077
   115.271100000000        -1.642098796144865E-078
   115.510500000000        -2.797921922728627E-077
   115.749900000000        -6.306000687058565E-077
   115.989300000000        -1.045022453025415E-076
   116.228700000000        -1.473362745447064E-076
   116.468100000000        -1.836198388118647E-076
   116.707500000000        -2.024498214624299E-076
   116.946900000000        -1.905800521060418E-076
   117.186300000000        -1.338425500378089E-076
   117.425700000000        -1.951161092652124E-077
   117.665100000000         1.603664270663993E-076
   117.904500000000         4.048372420879956E-076
   118.143900000000         6.995016612348741E-076
   118.383300000000         1.012275925890100E-075
   118.622700000000         1.290452778918787E-075
   118.862100000000         1.460331001391493E-075
   119.101500000000         1.430828982465625E-075
   119.340900000000         1.102440503605835E-075
   119.580300000000         3.825337969554815E-076
   119.819700000000        -7.927450089482854E-076
   120.059100000000        -2.430875312568236E-075
   120.298500000000        -4.452177582306712E-075
   120.537900000000        -6.660262169622931E-075
   120.777300000000        -8.720156382826350E-075
   121.016700000000        -1.015234285906687E-074
   121.256100000000        -1.035202330922369E-074
   121.495500000000        -8.642725578033248E-075
   121.734900000000        -4.371291859362712E-075
   121.974300000000         2.953220962002569E-075
   122.213700000000         1.348147198689308E-074
   122.453100000000         2.682135310507354E-074
   122.692500000000         4.183801903456151E-074
   122.931900000000         5.649640350142467E-074
   123.171300000000         6.779801822092988E-074
   123.410700000000         7.187153404181026E-074
   123.650100000000         6.427668866154023E-074
   123.889500000000         4.056964924684328E-074
   124.128900000000        -2.848384890089631E-075
   124.368300000000        -6.762111816833687E-074
   124.607700000000        -1.521483003085095E-073
   124.847100000000        -2.502757784888350E-073
   125.086500000000        -3.502039069206109E-073
   125.325900000000        -4.339298427574131E-073
   125.565300000000        -4.775923764872476E-073
   125.804700000000        -4.530967768653476E-073
   126.044100000000        -3.313384594445042E-073
   126.283500000000        -8.719652564414535E-074
   126.522900000000         2.937836950904633E-073
   126.762300000000         8.074585617964771E-073
   127.001700000000         1.422792730664822E-072
   127.241100000000         2.074590122729854E-072
   127.480500000000         2.659110395962958E-072
   127.719900000000         3.034785359271286E-072
   127.959300000000         3.030355874676344E-072
   128.198700000000         2.462470790550975E-072
   128.438100000000         1.163994348580774E-072
   128.677500000000        -9.771387767783213E-073
   128.916900000000        -3.970727748640260E-072
   129.156300000000        -7.673580443951030E-072
   129.395700000000        -1.174300975277308E-071
   129.635100000000        -1.560518606927813E-071
   129.874500000000        -1.845124527746197E-071
   130.113900000000        -1.927498408808705E-071
   130.353300000000        -1.696477744145572E-071
   130.592700000000        -1.045825200979111E-071
   130.832100000000         1.039349190574627E-072
   131.071500000000         1.778349549844044E-071
   131.310900000000         3.919045029104600E-071
   131.550300000000         6.355104152703866E-071
   131.789700000000         8.781703826965490E-071
   132.029100000000         1.075330540013158E-070
   132.268500000000         1.169939704683340E-070
   132.507900000000         1.097035243617949E-070
   132.747300000000         7.918947036316441E-071
   132.986700000000         2.019105423004127E-071
   133.226100000000        -6.982623716896421E-071
   133.465500000000        -1.889540502591324E-070
   133.704900000000        -3.291422815984460E-070
   133.944300000000        -4.748347165330119E-070
   134.183700000000        -6.023396844307736E-070
   134.423100000000        -6.803851326653481E-070
   134.662500000000        -6.722969460785307E-070
   134.901900000000        -5.401443021179991E-070
   135.141300000000        -2.509954888577283E-070
   135.380700000000         2.148891832587192E-070
   135.620100000000         8.545289292782289E-070
   135.859500000000         1.632472113314564E-069
   136.098900000000         2.472478490012137E-069
   136.338300000000         3.252773580093262E-069
   136.577700000000         3.807331193445016E-069
   136.817100000000         3.935655936108334E-069
   137.056500000000         3.423115969941887E-069
   137.295900000000         2.072898770544891E-069
   137.535300000000        -2.509418671638518E-070
   137.774700000000        -3.572100492098384E-069
   138.014100000000        -7.747761477844727E-069
   138.253500000000        -1.241986671528165E-068
   138.492900000000        -1.698303795356873E-068
   138.732300000000        -2.058222793773894E-068