  -1.79550000000000         0.000000000000000E+000
  -1.55610000000000         0.000000000000000E+000
  -1.31670000000000         0.000000000000000E+000
  -1.07730000000000         0.000000000000000E+000
 -0.837900000000000         0.000000000000000E+000
 -0.598500000000000         0.000000000000000E+000
 -0.359100000000000         0.000000000000000E+000
 -0.119700000000000         0.000000000000000E+000
  0.119700000000000         0.000000000000000E+000
  0.359100000000000         0.000000000000000E+000
  0.598500000000000         0.000000000000000E+000
  0.837900000000000         0.000000000000000E+000
   1.07730000000000         0.000000000000000E+000
   1.31670000000000         0.000000000000000E+000
   1.55610000000000         0.000000000000000E+000
   1.79550000000000         0.000000000000000E+000
   2.03490000000000         0.000000000000000E+000
   2.27430000000000         0.000000000000000E+000
   2.51370000000000         0.000000000000000E+000
   2.75310000000000         0.000000000000000E+000
   2.99250000000000         0.000000000000000E+000
   3.23190000000000         0.000000000000000E+000
   3.47130000000000         0.000000000000000E+000
   3.71070000000000         0.000000000000000E+000
   3.95010000000000         0.000000000000000E+000
   4.18950000000000         0.000000000000000E+000
   4.42890000000000         0.000000000000000E+000
   4.66830000000000         0.000000000000000E+000
   4.90770000000000         0.000000000000000E+000
   5.14710000000000         0.000000000000000E+000
   5.38650000000000         0.000000000000000E+000
   5.62590000000000         0.000000000000000E+000
   5.86530000000000         0.000000000000000E+000
   6.10470000000000         0.000000000000000E+000
   6.34410000000000         0.000000000000000E+000
   6.58350000000000         0.000000000000000E+000
   6.82290000000000         0.000000000000000E+000
   7.06230000000000         0.000000000000000E+000
   7.30170000000000         0.000000000000000E+000
   7.54110000000000         0.000000000000000E+000
   7.78050000000000         0.000000000000000E+000
   8.01990000000000         0.000000000000000E+000
   8.25930000000000         0.000000000000000E+000
   8.49870000000000         0.000000000000000E+000
   8.73810000000000         0.000000000000000E+000
   8.97750000000000         4.763014813149711E-196
   9.21690000000000         2.798972444486700E-189
   9.45630000000000        -3.548033291125561E-185
   9.69570000000000        -4.197525940797540E-183
   9.93510000000000        -1.683611085315387E-180
   10.1745000000000        -1.561881944636910E-178
   10.4139000000000        -7.805249680532632E-177
   10.6533000000000        -2.657575954815707E-175
   10.8927000000000        -6.866989082506215E-174
   11.1321000000000        -1.431785744266884E-172
   11.3715000000000        -2.505783541140715E-171
   11.6109000000000        -3.783155431945204E-170
   11.8503000000000        -5.027192714589760E-169
   12.0897000000000        -5.970387270653869E-168
   12.3291000000000        -6.413648770744950E-167
   12.5685000000000        -6.292614807810825E-166
   12.8079000000000        -5.683540821878328E-165
   13.0473000000000        -4.756940107175715E-164
   13.2867000000000        -3.709906868598800E-163
   13.5261000000000        -2.708748715909015E-162
   13.7655000000000        -1.859062097546519E-161
   14.0049000000000        -1.203492563601068E-160
   14.2443000000000        -7.370826461474893E-160
   14.4837000000000        -4.281878717454901E-159
   14.7231000000000        -2.364642231499045E-158
   14.9625000000000        -1.243766447517515E-157
   15.2019000000000        -6.241050775703783E-157
   15.4413000000000        -2.991621721899116E-156
   15.6807000000000        -1.371372468734214E-155
   15.9201000000000        -6.016698645713260E-155
   16.1595000000000        -2.527835258771101E-154
   16.3989000000000        -1.017251924886060E-153
   16.6383000000000        -3.920555736384056E-153
   16.8777000000000        -1.446350404504054E-152
   17.1171000000000        -5.102012227389792E-152
   17.3565000000000        -1.717812005770408E-151
   17.5959000000000        -5.505009666092149E-151
   17.8353000000000        -1.671869371477051E-150
   18.0747000000000        -4.778946319035907E-150
   18.3141000000000        -1.271225473544158E-149
   18.5535000000000        -3.083188655306677E-149
   18.7929000000000        -6.533688172481518E-149
   19.0323000000000        -1.075816738373803E-148
   19.2717000000000        -6.703951803933048E-149
   19.5111000000000         4.481292947033604E-148
   19.7505000000000         2.722102891628543E-147
   19.9899000000000         1.020171198052111E-146
   20.2293000000000         3.022614712310633E-146
   20.4687000000000         7.244978430114293E-146
   20.7081000000000         1.257965526826503E-145
   20.9475000000000         4.908222138135404E-146
   21.1869000000000        -8.171097542737475E-145
   21.4263000000000        -4.796807437816286E-144
   21.6657000000000        -1.872070007785299E-143
   21.9051000000000        -5.941575542999213E-143
   22.1445000000000        -1.588943935960004E-142
   22.3839000000000        -3.445844591816925E-142
   22.6233000000000        -4.830136672647726E-142
   22.8627000000000         4.225720377376907E-142
   23.1021000000000         6.813246584599154E-141
   23.3415000000000         3.501435709133533E-140
   23.5809000000000         1.386295406370571E-139
   23.8203000000000         4.799993237116333E-139
   24.0597000000000         1.519888318404100E-138
   24.2991000000000         4.494475682165053E-138
   24.5385000000000         1.255280331841154E-137
   24.7779000000000         3.332401993333686E-137
   25.0173000000000         8.437023574130290E-137
   25.2567000000000         2.039555507310263E-136
   25.4961000000000         4.703311753411452E-136
   25.7355000000000         1.031211881976768E-135
   25.9749000000000         2.134854855540983E-135
   26.2143000000000         4.118020445688216E-135
   26.4537000000000         7.202883171321317E-135
   26.6931000000000         1.069310934089362E-134
   26.9325000000000         1.054982033570235E-134
   27.1719000000000        -6.990383211749760E-135
   27.4113000000000        -8.075180702485562E-134
   27.6507000000000        -3.088756371137729E-133
   27.8901000000000        -9.204180339495138E-133
   28.1295000000000        -2.415259940901534E-132
   28.3689000000000        -5.817455267404469E-132
   28.6083000000000        -1.309089188959654E-131
   28.8477000000000        -2.772316981729067E-131
   29.0871000000000        -5.530257759106358E-131
   29.3265000000000        -1.033885667219673E-130
   29.5659000000000        -1.786844184277742E-130
   29.8053000000000        -2.766530991138755E-130
   30.0447000000000        -3.528496454695210E-130
   30.2841000000000        -2.540991340984116E-130
   30.5235000000000         4.319402909188542E-130
   30.7629000000000         2.681689971274118E-129
   31.0023000000000         8.612048122508324E-129
   31.2417000000000         2.249375558510852E-128
   31.4811000000000         5.238665582184817E-128
   31.7205000000000         1.124825008526853E-127
   31.9599000000000         2.258190821087082E-127
   32.1993000000000         4.258690891201079E-127
   32.4387000000000         7.528303701996060E-127
   32.6781000000000         1.234910297975135E-126
   32.9175000000000         1.834389619820323E-126
   33.1569000000000         2.319785801069850E-126
   33.3963000000000         1.995492511268133E-126
   33.6357000000000        -8.238196140731328E-127
   33.8751000000000        -9.763241748028007E-126
   34.1145000000000        -3.198636025185420E-125
   34.3539000000000        -8.068010027644351E-125
   34.5933000000000        -1.785419673797750E-124
   34.8327000000000        -3.619458798802411E-124
   35.0721000000000        -6.843680322855061E-124
   35.3115000000000        -1.215342074757878E-123
   35.5509000000000        -2.026812085983485E-123
   35.7903000000000        -3.151029778743481E-123
   36.0297000000000        -4.481555336866403E-123
   36.2691000000000        -5.569909840894509E-123
   36.5085000000000        -5.244208552880008E-123
   36.7479000000000        -9.443773910364674E-124
   36.9873000000000         1.236122444546446E-122
   37.2267000000000         4.382174048719806E-122
   37.4661000000000         1.090036493310440E-121
   37.7055000000000         2.327443938462551E-121
   37.9449000000000         4.519916095764510E-121
   38.1843000000000         8.170837241898614E-121
   38.4237000000000         1.388077486728676E-120
   38.6631000000000         2.219459994551289E-120
   38.9025000000000         3.321156451095177E-120
   39.1419000000000         4.575281164998830E-120
   39.3813000000000         5.575810953601950E-120
   39.6207000000000         5.342284518236341E-120
   39.8601000000000         1.840921647351826E-120
   40.0995000000000        -8.765726489264062E-120
   40.3389000000000        -3.320965098541128E-119
   40.5783000000000        -8.255202389010293E-119
   40.8177000000000        -1.737812231591905E-118
   41.0571000000000        -3.309894232111900E-118
   41.2965000000000        -5.847614801538577E-118
   41.5359000000000        -9.670405900168001E-118
   41.7753000000000        -1.496540657091545E-117
   42.0147000000000        -2.146581521480076E-117
   42.2541000000000        -2.783123467098378E-117
   42.4935000000000        -3.056518904916368E-117
   42.7329000000000        -2.228129428726427E-117
   42.9723000000000         1.083214895817335E-117
   43.2117000000000         9.232094606904686E-117
   43.4511000000000         2.590742644578118E-116
   43.6905000000000         5.638688587951394E-116
   43.9299000000000         1.073915654031737E-115
   44.1693000000000         1.860011117447557E-115
   44.4087000000000         2.967430582558866E-115
   44.6481000000000         4.355479413603444E-115
   44.8875000000000         5.788607139333776E-115
   45.1269000000000         6.660427500912174E-115
   45.3663000000000         5.737080055488682E-115
   45.6057000000000         8.250025359303651E-116
   45.8451000000000        -1.158966647875178E-114
   46.0845000000000        -3.660458295025726E-114
   46.3239000000000        -8.081488794299324E-114
   46.5633000000000        -1.514404793363279E-113
   46.8027000000000        -2.539973208930480E-113
   47.0421000000000        -3.876006356756558E-113
   47.2815000000000        -5.368294604233159E-113
   47.5209000000000        -6.591840117193695E-113
   47.7603000000000        -6.678140284697007E-113
   47.9997000000000        -4.107919247340966E-113
   48.2391000000000         3.487522403759963E-113
   48.4785000000000         1.942329301413936E-112
   48.7179000000000         4.779100042089470E-112
   48.9573000000000         9.276515997149928E-112
   49.1967000000000         1.570325321541611E-111
   49.4361000000000         2.389225399926972E-111
   49.6755000000000         3.278369882704911E-111
   49.9149000000000         3.977804762992613E-111
   50.1543000000000         3.993090555808416E-111
   50.3937000000000         2.511974839629569E-111
   50.6331000000000        -1.652815793993941E-111
   50.8725000000000        -1.004303865043055E-110
   51.1119000000000        -2.437680061131229E-110
   51.3513000000000        -4.610392971761719E-110
   51.5907000000000        -7.556628523506906E-110
   51.8301000000000        -1.106418464429137E-109
   52.0695000000000        -1.448124669796900E-109
   52.3089000000000        -1.647446906931994E-109
   52.5483000000000        -1.477497175497913E-109
   52.7877000000000        -5.992463940550800E-110
   53.0271000000000         1.436209842812171E-109
   53.2665000000000         5.143295827628231E-109
   53.5059000000000         1.098732785431179E-108
   53.7453000000000         1.916754979929136E-108
   53.9847000000000         2.926955234457719E-108
   54.2241000000000         3.977676347904461E-108
   54.4635000000000         4.747083818965575E-108
   54.7029000000000         4.682110134879151E-108
   54.9423000000000         2.956881291231070E-108
   55.1817000000000        -1.514970726105571E-108
   55.4211000000000        -9.964335097402767E-108
   55.6605000000000        -2.348431148758752E-107
   55.8999000000000        -4.251556817344614E-107
   56.1393000000000        -6.605035921387308E-107
   56.3787000000000        -9.055741546427723E-107
   56.6181000000000        -1.087306417403600E-106
   56.8575000000000        -1.083270269930902E-106
   57.0969000000000        -7.158526212324052E-107
   57.3363000000000         2.401312895571918E-107
   57.5757000000000         2.026179939015956E-106
   57.8151000000000         4.833503959403608E-106
   58.0545000000000         8.690643861934386E-106
   58.2939000000000         1.330101868914821E-105
   58.5333000000000         1.783958851912450E-105
   58.7727000000000         2.074069642212996E-105
   59.0121000000000         1.954210142870226E-105
   59.2515000000000         1.089084213274487E-105
   59.4909000000000        -9.142512868639869E-106
   59.7303000000000        -4.426785382933393E-105
   59.9697000000000        -9.653428528933384E-105
   60.2091000000000        -1.641569753756364E-104
   60.4485000000000        -2.387027376193606E-104
   60.6879000000000        -3.020305884603184E-104
   60.9273000000000        -3.238236781767450E-104
   61.1667000000000        -2.610862621650513E-104
   61.4061000000000        -6.150640870832486E-105
   61.6455000000000         3.270993764619571E-104
   61.8849000000000         9.392452907803614E-104
   62.1243000000000         1.765234715227713E-103
   62.3637000000000         2.717136704924191E-103
   62.6031000000000         3.592813743415022E-103
   62.8425000000000         4.049067674416992E-103
   63.0819000000000         3.601304277483112E-103
   63.3213000000000         1.672564344170593E-103
   63.5607000000000        -2.283563133523339E-103
   63.8001000000000        -8.567833258403534E-103
   64.0395000000000        -1.692860038942613E-102
   64.2789000000000        -2.619978729378504E-102
   64.5183000000000        -3.397414429217963E-102
   64.7577000000000        -3.647056045540294E-102
   64.9971000000000        -2.882196305913249E-102
   65.2365000000000        -6.049703013416400E-103
   65.4759000000000         3.504218645205197E-102
   65.7153000000000         9.298013015855553E-102
   65.9547000000000         1.580163142315635E-101
   66.1941000000000         2.086547275378989E-101
   66.4335000000000         2.099418578921161E-101
   66.6729000000000         1.160360157670092E-101
   66.9123000000000        -1.197285786727249E-101
   67.1517000000000        -5.240152109105678E-101
   67.3911000000000        -1.069907369199374E-100
   67.6305000000000        -1.632023891745938E-100
   67.8699000000000        -1.938123216923087E-100
   68.1093000000000        -1.534628641558360E-100
   68.3487000000000         2.041820652570795E-101
   68.5881000000000         3.980886811531359E-100
   68.8275000000000         1.034278303796373E-099
   69.0669000000000         1.926604864003066E-099
   69.3063000000000         2.953628040258213E-099
   69.5457000000000         3.796813684074367E-099
   69.7851000000000         3.861653161509807E-099
   70.0245000000000         2.229301284703824E-099
   70.2639000000000        -2.309750984940272E-099
   70.5033000000000        -1.106803663894291E-098
   70.7427000000000        -2.503449750723219E-098
   70.9821000000000        -4.413047154579216E-098
   71.2215000000000        -6.611312084969769E-098
   71.4609000000000        -8.519099491868517E-098
   71.7003000000000        -9.059112637137267E-098
   71.9397000000000        -6.557484238475982E-098
   72.1791000000000         1.227407932027296E-098
   72.4185000000000         1.683236911786756E-097
   72.6579000000000         4.243190949104959E-097
   72.8973000000000         7.865777169590357E-097
   73.1367000000000         1.228136030904205E-096
   73.3761000000000         1.665428857013458E-096
   73.6155000000000         1.932615564901843E-096
   73.8549000000000         1.760506399455016E-096
   74.0943000000000         7.720594348644795E-097
   74.3337000000000        -1.488045463948852E-096
   74.5731000000000        -5.467648330018901E-096
   74.8125000000000        -1.144186497099664E-095
   75.0519000000000        -1.925083648665250E-095
   75.2913000000000        -2.794014420381068E-095
   75.5307000000000        -3.533673970060306E-095
   75.7701000000000        -3.764568215136983E-095
   76.0095000000000        -2.922439173993785E-095
   76.2489000000000        -2.774562819347119E-096
   76.4883000000000         4.972988611615933E-095
   76.7277000000000         1.350182452092186E-094
   76.9671000000000         2.550812650601901E-094
   77.2065000000000         4.021736505804660E-094
   77.4459000000000         5.525116466806557E-094
   77.6853000000000         6.595681176214917E-094
   77.9247000000000         6.487978910283744E-094
   78.1641000000000         4.167758300719979E-094
   78.4035000000000        -1.610827009067271E-094
   78.6429000000000        -1.209174642388091E-093
   78.8823000000000        -2.811677850114254E-093
   79.1217000000000        -4.950367431141171E-093
   79.3611000000000        -7.420862635078736E-093
   79.6005000000000        -9.735203469841943E-093
   79.8399000000000        -1.102968726779111E-092
   80.0793000000000        -1.001130005884270E-092
   80.3187000000000        -4.992177052437910E-093
   80.5581000000000         5.924274309575897E-093
   80.7975000000000         2.443562391749920E-092
   81.0369000000000         5.135104603676311E-092
   81.2763000000000         8.559690813457171E-092
   81.5157000000000         1.229676395603078E-091
   81.7551000000000         1.547908416064424E-091
   81.9945000000000         1.668395308383779E-091
   82.2339000000000         1.390206260980462E-091
   82.4733000000000         4.656421720369961E-092
   82.7127000000000        -1.364263180604639E-091
   82.9521000000000        -4.302156133384706E-091
   83.1915000000000        -8.388947303871803E-091
   83.4309000000000        -1.336141627036330E-090
   83.6703000000000        -1.848521868267092E-090
   83.9097000000000        -2.239262283999300E-090
   84.1491000000000        -2.297591512159835E-090
   84.3885000000000        -1.741101494315514E-090
   84.6279000000000        -2.406122555462841E-091
   84.8673000000000         2.522121072470644E-090
   85.1067000000000         6.754975412209059E-090
   85.3461000000000         1.241052475245285E-089
   85.5855000000000         1.900189134495054E-089
   85.8249000000000         2.540156717988938E-089
   86.0643000000000         2.966698940339099E-089
   86.3037000000000         2.896212360759490E-089
   86.5431000000000         1.966937023127081E-089
   86.7825000000000        -2.196558750012450E-090
   87.0219000000000        -4.016207914839595E-089
   87.2613000000000        -9.597713109869011E-089
   87.5007000000000        -1.678059720537711E-088
   87.7401000000000        -2.480606793523889E-088
   87.9795000000000        -3.212079432455870E-088
   88.2189000000000        -3.621279713632052E-088
   88.4583000000000        -3.358741549993593E-088
   88.6977000000000        -1.999156177334505E-088
   88.9371000000000         8.994738962063357E-089
   89.1765000000000         5.689415442362061E-088
   89.4159000000000         1.247414824175672E-087
   89.6553000000000         2.090156630377539E-087
   89.8947000000000         2.993053475882884E-087
   90.1341000000000         3.761388009265373E-087
   90.3735000000000         4.096683413156368E-087
   90.6129000000000         3.601574071087577E-087
   90.8523000000000         1.814055332783254E-087
   91.0917000000000        -1.717349884858205E-087
   91.3311000000000        -7.308679687703024E-087
   91.5705000000000        -1.496392651459986E-086
   91.8099000000000        -2.415688004291924E-086
   92.0493000000000        -3.359928110637557E-086
   92.2887000000000        -4.104570332557089E-086
   92.5281000000000        -4.321041393764039E-086
   92.7675000000000        -3.589371917460476E-086
   93.0069000000000        -1.442753209207974E-086
   93.2463000000000         2.545770859083148E-086
   93.4857000000000         8.628135181150098E-086
   93.7251000000000         1.669932538299306E-085
   93.9645000000000         2.608337860316153E-085
   94.2039000000000         3.531983884493221E-085
   94.4433000000000         4.200459459122779E-085
   94.6827000000000         4.276094459839647E-085
   94.9221000000000         3.343401524883694E-085
   95.1615000000000         9.606955491207374E-086
   95.4009000000000        -3.247841518527231E-085
   95.6403000000000        -9.456031350813665E-085
   95.8797000000000        -1.746043381281237E-084
   96.1191000000000        -2.648371015884397E-084
   96.3585000000000        -3.499108395935443E-084
   96.5979000000000        -4.057330202482848E-084
   96.8373000000000        -3.996743568406908E-084
   97.0767000000000        -2.929879063985697E-084
   97.3161000000000        -4.626406881577386E-085
   97.5555000000000         3.714668758782828E-084
   97.7949000000000         9.698687685268109E-084
   98.0343000000000         1.721389439935709E-083
   98.2737000000000         2.544211053925875E-083
   98.5131000000000         3.287433542319637E-083
   98.7525000000000         3.723437726918949E-083
   98.9919000000000         3.553743559443800E-083
   99.2313000000000         2.435389291109855E-083
   99.4707000000000         3.433505178553299E-085
   99.7101000000000        -3.889992992632356E-083
   99.9495000000000        -9.369729553563802E-083
   100.188900000000        -1.609149645487581E-082
   100.428300000000        -2.325586347560313E-082
   100.667700000000        -2.946418581308778E-082
   100.907100000000        -3.267605337795120E-082
   101.146500000000        -3.029037991756426E-082
   101.385900000000        -1.940650161412600E-082
   101.625300000000         2.686105549311073E-083
   101.864700000000         3.776458788328640E-082
   102.104100000000         8.569473939622815E-082
   102.343500000000         1.433025408950137E-081
   102.582900000000         2.032645555598388E-081
   102.822300000000         2.532832976572206E-081
   103.061700000000         2.759068414903627E-081
   103.301100000000         2.494179993335722E-081
   103.540500000000         1.502263456850366E-081
   103.779900000000        -4.288970743315582E-082
   104.019300000000        -3.425591304185039E-081
   104.258700000000        -7.448528614162188E-081
   104.498100000000        -1.220351542593629E-080
   104.737500000000        -1.705692839259759E-080
   104.976900000000        -2.097781370947475E-080
   105.216300000000        -2.253517771222057E-080
   105.455700000000        -1.998326267114134E-080
   105.695100000000        -1.146693526118792E-080
   105.934500000000         4.628908387656325E-081
   106.173900000000         2.918029423468732E-080
   106.413300000000         6.169986335257278E-080
   106.652700000000         9.965346860528501E-080
   106.892100000000         1.378348217832829E-079
   107.131500000000         1.679694890589813E-079
   107.370900000000         1.787667013564768E-079
   107.610300000000         1.566633064683603E-079
   107.849700000000         8.749104823593061E-080
   108.089100000000        -4.077284509308185E-080
   108.328500000000        -2.341580615616732E-079
   108.567900000000        -4.879743667376903E-079
   108.807300000000        -7.817371434936644E-079
   109.046700000000        -1.074650842501842E-078
   109.286100000000        -1.302942141939637E-078
   109.525500000000        -1.380656440348874E-078
   109.764900000000        -1.205683437097209E-078
   110.004300000000        -6.726333806859880E-079
   110.243700000000         3.063872854632490E-079
   110.483100000000         1.773166475755228E-078
   110.722500000000         3.688722926216455E-078
   110.961900000000         5.896643851547502E-078
   111.201300000000         8.091136794902579E-078
   111.440700000000         9.799190129647665E-078
   111.680100000000         1.038838389287755E-077
   111.919500000000         9.112759074472215E-078
   112.158900000000         5.207861109038996E-078
   112.398300000000        -1.958271868012955E-078
   112.637700000000        -1.267953259439554E-077
   112.877100000000        -2.666516771293443E-077
   113.116500000000        -4.278175190443650E-077
   113.355900000000        -5.883160678000449E-077
   113.595300000000        -7.143370053082387E-077
   113.834700000000        -7.608709870203956E-077
   114.074100000000        -6.750183829039168E-077
   114.313500000000        -4.027175537209801E-077
   114.552900000000         1.006756714146597E-077
   114.792300000000         8.560955050655466E-077
   115.031700000000         1.843741892764433E-076
   115.271100000000         2.985390828370402E-076
   115.510500000000         4.129335873210612E-076
   115.749900000000         5.042454162366326E-076
   115.989300000000         5.414788891114263E-076
   116.228700000000         4.882300028135674E-076
   116.468100000000         3.072669156378123E-076
   116.707500000000        -3.231234113903841E-077
   116.946900000000        -5.454583969145784E-076
   117.186300000000        -1.219760985750539E-075
   117.425700000000        -2.003642552550744E-075
   117.665100000000        -2.796348273334828E-075
   117.904500000000        -3.442695128083196E-075
   118.143900000000        -3.736106059273314E-075
   118.383300000000        -3.433592542452320E-075
   118.622700000000        -2.285814268863097E-075
   118.862100000000        -8.390348379716175E-077
   119.101500000000         3.277776249427735E-075
   119.340900000000         7.727399912548617E-075
   119.580300000000         1.293902295854655E-074
   119.819700000000         1.826762336385670E-074
   120.059100000000         2.271479237554602E-074
   120.298500000000         2.494747726484558E-074
   120.537900000000         2.339288831346063E-074
   120.777300000000         1.642912514314042E-074
   121.016700000000         2.681829299194450E-075
   121.256100000000        -1.857876612424046E-074
   121.495500000000        -4.696879939369963E-074
   121.734900000000        -8.050665758432556E-074
   121.974300000000        -1.152020428956746E-073
   122.213700000000        -1.448359474926142E-073
   122.453100000000        -1.610699772213663E-073
   122.692500000000        -1.540270448964689E-073
   122.931900000000        -1.134627371782747E-073
   123.171300000000        -3.058920091998369E-074
   123.410700000000         9.948451585610296E-074
   123.650100000000         2.748706102749444E-073
   123.889500000000         4.839266265232446E-073
   124.128900000000         7.027216455185487E-073
   124.368300000000         8.936562923545109E-073
   124.607700000000         1.006070012364385E-072
   124.847100000000         9.796869013315168E-073
   125.086500000000         7.516114954285275E-073
   125.325900000000         2.672393987244304E-073
   125.565300000000        -5.051376497163989E-073
   125.804700000000        -1.557077598174632E-072
   126.044100000000        -2.822149296635464E-072
   126.283500000000        -4.160681989132585E-072
   126.522900000000        -5.351300904205890E-072
   126.762300000000        -6.094149325062514E-072
   127.001700000000        -6.030787427032089E-072
   127.241100000000        -4.784925734197202E-072
   127.480500000000        -2.026118030035971E-072
   127.719900000000         2.444873049255308E-072
   127.959300000000         8.595110650280009E-072
   128.198700000000         1.605488086674741E-071
   128.438100000000         2.402779524783786E-071
   128.677500000000         3.123981773756498E-071
   128.916900000000         3.595544008516567E-071
   129.156300000000         3.608971309883623E-071
   129.395700000000         2.944005355791854E-071
   129.635100000000         1.405012915559261E-071
   129.874500000000        -1.130130468623817E-071
   130.113900000000        -4.652092814039857E-071
   130.353300000000        -8.959843526849757E-071
   130.592700000000        -1.360849723382718E-070
   130.832100000000        -1.787894751093129E-070
   131.071500000000        -2.078526413012418E-070
   131.310900000000        -2.113612229122092E-070
   131.550300000000        -1.766387908332007E-070
   131.789700000000        -9.228446584725174E-071
   132.029100000000         4.907709490016174E-071
   132.268500000000         2.475226041891130E-070
   132.507900000000         4.924081359878456E-070
   132.747300000000         7.593739206938648E-070
   132.986700000000         1.008537843406891E-069
   133.226100000000         1.184768287596177E-069
   133.465500000000         1.220947687835390E-069
   133.704900000000         1.044997392816953E-069
   133.944300000000         5.910845669346754E-070
   134.183700000000        -1.851573438600577E-070
   134.423100000000        -1.288390838652270E-069
   134.662500000000        -2.664336265454270E-069
   134.901900000000        -4.182661709182494E-069
   135.141300000000        -5.626165405439324E-069
   135.380700000000        -6.691149545852807E-069
   135.620100000000        -7.004043309390541E-069
   135.859500000000        -6.158626192779432E-069
   136.098900000000        -3.776369060290980E-069
   136.338300000000         4.107207507062161E-070
   136.577700000000         6.459800220845053E-069
   136.817100000000         1.410999943659660E-068
   137.056500000000         2.268495815385912E-068
   137.295900000000         3.102744484402041E-068
   137.535300000000         3.749262748144808E-068
   137.774700000000         4.002780532834856E-068
   138.014100000000         3.636311766169555E-068
   138.253500000000         2.432849377196594E-068
   138.492900000000         2.295926620186193E-069
   138.732300000000        -3.027710128548666E-068