  -1.79550000000000         0.000000000000000E+000
  -1.55610000000000         0.000000000000000E+000
  -1.31670000000000         0.000000000000000E+000
  -1.07730000000000         0.000000000000000E+000
 -0.837900000000000         0.000000000000000E+000
 -0.598500000000000         0.000000000000000E+000
 -0.359100000000000         0.000000000000000E+000
 -0.119700000000000         0.000000000000000E+000
  0.119700000000000         0.000000000000000E+000
  0.359100000000000         0.000000000000000E+000
  0.598500000000000         0.000000000000000E+000
  0.837900000000000         0.000000000000000E+000
   1.07730000000000         0.000000000000000E+000
   1.31670000000000         0.000000000000000E+000
   1.55610000000000         0.000000000000000E+000
   1.79550000000000         0.000000000000000E+000
   2.03490000000000         0.000000000000000E+000
   2.27430000000000         0.000000000000000E+000
   2.51370000000000         0.000000000000000E+000
   2.75310000000000         0.000000000000000E+000
   2.99250000000000         0.000000000000000E+000
   3.23190000000000         0.000000000000000E+000
   3.47130000000000         0.000000000000000E+000
   3.71070000000000         0.000000000000000E+000
   3.95010000000000         0.000000000000000E+000
   4.18950000000000         0.000000000000000E+000
   4.42890000000000         0.000000000000000E+000
   4.66830000000000         0.000000000000000E+000
   4.90770000000000         0.000000000000000E+000
   5.14710000000000         0.000000000000000E+000
   5.38650000000000         0.000000000000000E+000
   5.62590000000000         0.000000000000000E+000
   5.86530000000000         0.000000000000000E+000
   6.10470000000000         0.000000000000000E+000
   6.34410000000000         0.000000000000000E+000
   6.58350000000000         0.000000000000000E+000
   6.82290000000000         1.792437724263997E-157
   7.06230000000000        -2.978488079059660E-149
   7.30170000000000         4.133964689222229E-145
   7.54110000000000         1.589518955601246E-143
   7.78050000000000         1.258413782336385E-141
   8.01990000000000         7.263358274864831E-140
   8.25930000000000         2.527637759502345E-138
   8.49870000000000         6.083291151624746E-137
   8.73810000000000         1.113991003852927E-135
   8.97750000000000         1.647498625126736E-134
   9.21690000000000         2.046183675442634E-133
   9.45630000000000         2.192697186113022E-132
   9.69570000000000         2.067237049850509E-131
   9.93510000000000         1.739705578656184E-130
   10.1745000000000         1.321375193390207E-129
   10.4139000000000         9.135641043703855E-129
   10.6533000000000         5.787358463122633E-128
   10.8927000000000         3.376367386137805E-127
   11.1321000000000         1.820857528640741E-126
   11.3715000000000         9.100325203926489E-126
   11.6109000000000         4.220272569173961E-125
   11.8503000000000         1.815647396724729E-124
   12.0897000000000         7.230628871779778E-124
   12.3291000000000         2.651603311171305E-123
   12.5685000000000         8.860481089672104E-123
   12.8079000000000         2.640484014840092E-122
   13.0473000000000         6.676458486287462E-122
   13.2867000000000         1.223377901767800E-121
   13.5261000000000         1.923385658667086E-122
   13.7655000000000        -1.226833455679754E-120
   14.0049000000000        -7.756573186208497E-120
   14.2443000000000        -3.433373274973845E-119
   14.4837000000000        -1.273829818782277E-118
   14.7231000000000        -4.170447419797929E-118
   14.9625000000000        -1.226098924642461E-117
   15.2019000000000        -3.239689161790575E-117
   15.4413000000000        -7.576777958140785E-117
   15.6807000000000        -1.497339207674648E-116
   15.9201000000000        -2.136680158850274E-116
   16.1595000000000        -2.148503588845299E-117
   16.3989000000000         1.343225344506159E-115
   16.6383000000000         6.682390755201192E-115
   16.8777000000000         2.360531955468582E-114
   17.1171000000000         7.125750003810982E-114
   17.3565000000000         1.960594220361790E-113
   17.5959000000000         5.118147511953040E-113
   17.8353000000000         1.315193742646190E-112
   18.0747000000000         3.450260266565027E-112
   18.3141000000000         9.495707325243249E-112
   18.5535000000000         2.757748600582705E-111
   18.7929000000000         8.318233038547235E-111
   19.0323000000000         2.542402965165795E-110
   19.2717000000000         7.710087812276511E-110
   19.5111000000000         2.289542603765541E-109
   19.7505000000000         6.614382711018820E-109
   19.9899000000000         1.854842806243462E-108
   20.2293000000000         5.049248293885989E-108
   20.4687000000000         1.335761272747147E-107
   20.7081000000000         3.439018987374842E-107
   20.9475000000000         8.628396044591547E-107
   21.1869000000000         2.111905504412799E-106
   21.4263000000000         5.046129236554282E-106
   21.6657000000000         1.177318457656577E-105
   21.9051000000000         2.681793359644609E-105
   22.1445000000000         5.961423943305677E-105
   22.3839000000000         1.292247296343221E-104
   22.6233000000000         2.728956364745312E-104
   22.8627000000000         5.608136259254822E-104
   23.1021000000000         1.120160570808114E-103
   23.3415000000000         2.171826136977195E-103
   23.5809000000000         4.082227793248469E-103
   23.8203000000000         7.429914624022927E-103
   24.0597000000000         1.308242815392300E-102
   24.2991000000000         2.227748854101779E-102
   24.5385000000000         3.671705585563257E-102
   24.7779000000000         5.874259425220411E-102
   25.0173000000000         9.181762919673676E-102
   25.2567000000000         1.418720467437630E-101
   25.4961000000000         2.206177926922864E-101
   25.7355000000000         3.526568304222147E-101
   25.9749000000000         5.886255450872922E-101
   26.2143000000000         1.025496440516330E-100
   26.4537000000000         1.829775926815551E-100
   26.6931000000000         3.244888625173791E-100
   26.9325000000000         5.533584547710714E-100
   27.1719000000000         8.752567587810844E-100
   27.4113000000000         1.217839108092560E-099
   27.6507000000000         1.311881363758830E-099
   27.8901000000000         4.812257134552619E-100
   28.1295000000000        -2.672646827627673E-099
   28.3689000000000        -1.064767939372655E-098
   28.6083000000000        -2.730230586024339E-098
   28.8477000000000        -5.757889899069479E-098
   29.0871000000000        -1.059066213928889E-097
   29.3265000000000        -1.720967197309809E-097
   29.5659000000000        -2.433404546323235E-097
   29.8053000000000        -2.814339432338985E-097
   30.0447000000000        -2.064338544831117E-097
   30.2841000000000         1.173343127483598E-097
   30.5235000000000         8.788323694671894E-097
   30.7629000000000         2.276345243133812E-096
   31.0023000000000         4.397065222246935E-096
   31.2417000000000         6.986636064636446E-096
   31.4811000000000         9.105899109957942E-096
   31.7205000000000         8.758102645838442E-096
   31.9599000000000         2.735326327952475E-096
   32.1993000000000        -1.282296702609374E-095
   32.4387000000000        -4.041470853041021E-095
   32.6781000000000        -7.690916047761124E-095
   32.9175000000000        -1.068103576234737E-094
   33.1569000000000        -9.469481300772072E-095
   33.3963000000000         1.758324972318272E-095
   33.6357000000000         2.967983808365773E-094
   33.8751000000000         7.668988280112328E-094
   34.1145000000000         1.293179335552216E-093
   34.3539000000000         1.379125602204301E-093
   34.5933000000000        -1.162661813375936E-094
   34.8327000000000        -5.251548525191456E-093
   35.0721000000000        -1.701817041663022E-092
   35.3115000000000        -3.859799035234003E-092
   35.5509000000000        -7.104441932297894E-092
   35.7903000000000        -1.083037500957572E-091
   36.0297000000000        -1.285633294780150E-091
   36.2691000000000        -8.182834901837025E-092
   36.5085000000000         1.238543463346815E-091
   36.7479000000000         6.301041799860755E-091
   36.9873000000000         1.614308113314795E-090
   37.2267000000000         3.227779671660084E-090
   37.4661000000000         5.449000311402779E-090
   37.7055000000000         7.811549457860343E-090
   37.9449000000000         8.983300977476840E-090
   38.1843000000000         6.230951506003575E-090
   38.4237000000000        -5.073119040403678E-090
   38.6631000000000        -3.153467400434845E-089
   38.9025000000000        -8.074755007942782E-089
   39.1419000000000        -1.582304457515970E-088
   39.3813000000000        -2.610634245817580E-088
   39.6207000000000        -3.671590985851242E-088
   39.8601000000000        -4.201074259679348E-088
   40.0995000000000        -3.119720577631320E-088
   40.3389000000000         1.291192124344078E-088
   40.5783000000000         1.133003740992931E-087
   40.8177000000000         2.941198759959401E-087
   41.0571000000000         5.690871878270418E-087
   41.2965000000000         9.198229992378096E-087
   41.5359000000000         1.262395368936451E-086
   41.7753000000000         1.404382226562521E-086
   42.0147000000000         1.002865105900607E-086
   42.2541000000000        -4.531863653326580E-087
   42.4935000000000        -3.595249048910726E-086
   42.7329000000000        -9.003188652872588E-086
   42.9723000000000        -1.683921805923863E-085
   43.2117000000000        -2.623071983903169E-085
   43.4511000000000        -3.440234567560208E-085
   43.6905000000000        -3.568693908625987E-085
   43.9299000000000        -2.076786559048423E-085
   44.1693000000000         2.317588227360535E-085
   44.4087000000000         1.103803212353376E-084
   44.6481000000000         2.511239386987423E-084
   44.8875000000000         4.417451792823677E-084
   45.1269000000000         6.494109650756487E-084
   45.3663000000000         7.928279048801781E-084
   45.6057000000000         7.235181792953369E-084
   45.8451000000000         2.175223959778456E-084
   46.0845000000000        -1.005984731111331E-083
   46.3239000000000        -3.216269522821981E-083
   46.5633000000000        -6.527057615992946E-083
   46.8027000000000        -1.065745498005579E-082
   47.0421000000000        -1.460098369767626E-082
   47.2815000000000        -1.625341703440262E-082
   47.5209000000000        -1.212806700360826E-082
   47.7603000000000         2.606398354585855E-083
   47.9997000000000         3.341331015103968E-082
   48.2391000000000         8.456267106638062E-082
   48.4785000000000         1.557764882133867E-081
   48.7179000000000         2.371651849663236E-081
   48.9573000000000         3.028589357879624E-081
   49.1967000000000         3.047831803590873E-081
   49.4361000000000         1.695671855395023E-081
   49.6755000000000        -1.965475885145276E-081
   49.9149000000000        -8.881927579393304E-081
   50.1543000000000        -1.959470424755802E-080
   50.3937000000000        -3.355215796968777E-080
   50.6331000000000        -4.815693967067764E-080
   50.8725000000000        -5.768021964504794E-080
   51.1119000000000        -5.237625849207322E-080
   51.3513000000000        -1.839726754004326E-080
   51.5907000000000         6.060392204254510E-080
   51.8301000000000         1.990901137371885E-079
   52.0695000000000         4.014311539677747E-079
   52.3089000000000         6.493740474967857E-079
   52.5483000000000         8.860193441436003E-079
   52.7877000000000         9.994656895808592E-079
   53.0271000000000         8.126730582289353E-079
   53.2665000000000         9.018317066623284E-080
   53.5059000000000        -1.423881710621468E-078
   53.7453000000000        -3.920526098152771E-078
   53.9847000000000        -7.380724610296076E-078
   54.2241000000000        -1.136991359016605E-077
   54.4635000000000        -1.479595804043535E-077
   54.7029000000000        -1.569308486291443E-077
   54.9423000000000        -1.114561692317353E-077
   55.1817000000000         2.479091021389370E-078
   55.4211000000000         2.877770874513927E-077
   55.6605000000000         6.983039112433169E-077
   55.8999000000000         1.238747743492659E-076
   56.1393000000000         1.822403021121096E-076
   56.3787000000000         2.260456481773045E-076
   56.6181000000000         2.237402612965729E-076
   56.8575000000000         1.312743682189081E-076
   57.0969000000000        -1.026485966649862E-076
   57.3363000000000        -5.234421705264459E-076
   57.5757000000000        -1.147265314101635E-075
   57.8151000000000        -1.926803048174040E-075
   58.0545000000000        -2.709236761863162E-075
   58.2939000000000        -3.195315628029022E-075
   58.5333000000000        -2.916348364895544E-075
   58.7727000000000        -1.254716955018766E-075
   59.0121000000000         2.459387138863927E-075
   59.2515000000000         8.741142748613753E-075
   59.4909000000000         1.761098345594891E-074
   59.7303000000000         2.812716826480862E-074
   59.9697000000000         3.785057932867412E-074
   60.2091000000000         4.238112696901736E-074
   60.4485000000000         3.520505344167569E-074
   60.6879000000000         8.193160562297562E-075
   60.9273000000000        -4.684517125845404E-074
   61.1667000000000        -1.351743892069437E-073
   61.4061000000000        -2.545245531050429E-073
   61.6455000000000        -3.891047004776133E-073
   61.8849000000000        -5.032011092829642E-073
   62.1243000000000        -5.363304649559748E-073
   62.3637000000000        -4.030947752588924E-073
   62.6031000000000        -1.954683397473346E-075
   62.8425000000000         7.623778692467895E-073
   63.0819000000000         1.939008861848931E-072
   63.3213000000000         3.472336668774713E-072
   63.5607000000000         5.129586912603733E-072
   63.8001000000000         6.428040445946426E-072
   64.0395000000000         6.587448582445417E-072
   64.2789000000000         4.546156997721038E-072
   64.5183000000000        -9.099188142182555E-073
   64.7577000000000        -1.085383711440660E-071
   64.9971000000000        -2.572140468957350E-071
   65.2365000000000        -4.461169210639153E-071
   65.4759000000000        -6.445341834483839E-071
   65.7153000000000        -7.921032755464434E-071
   65.9547000000000        -7.942998171555742E-071
   66.1941000000000        -5.257688658293190E-071
   66.4335000000000         1.530932954675335E-071
   66.6729000000000         1.360903702171211E-070
   66.9123000000000         3.137819137910216E-070
   67.1517000000000         5.366734273354319E-070
   67.3911000000000         7.681893188526410E-070
   67.6305000000000         9.384911896982692E-070
   67.8699000000000         9.401917688305734E-070
   68.1093000000000         6.329127896430603E-070
   68.3487000000000        -1.376799580868071E-070
   68.5881000000000        -1.500946618244787E-069
   68.8275000000000        -3.499168495777156E-069
   69.0669000000000        -6.003862215222087E-069
   69.3063000000000        -8.620279925848254E-069
   69.5457000000000        -1.060128126084890E-068
   69.7851000000000        -1.080529813202395E-068
   70.0245000000000        -7.746106268361821E-069
   70.2639000000000         2.099404571972751E-070
   70.5033000000000         1.444699715160826E-068
   70.7427000000000         3.547328415200971E-068
   70.9821000000000         6.208384953091674E-068
   71.2215000000000         9.041071453890237E-068
   71.4609000000000         1.130674070974239E-067
   71.7003000000000         1.187215336828394E-067
   71.9397000000000         9.254796097380914E-068
   72.1791000000000         1.808447446531379E-068
   72.4185000000000        -1.190259524189587E-067
   72.6579000000000        -3.251336496801922E-067
   72.8973000000000        -5.906968344740337E-067
   73.1367000000000        -8.813089545903483E-067
   73.3761000000000        -1.129511923376902E-066
   73.6155000000000        -1.230392854361464E-066
   73.8549000000000        -1.045007388797479E-066
   74.0943000000000        -4.162750396326635E-067
   74.3337000000000         7.983390828265220E-067
   74.5731000000000         2.674866790997631E-066
   74.8125000000000         5.152949201008430E-066
   75.0519000000000         7.955500394100545E-066
   75.2913000000000         1.051366684614807E-065
   75.5307000000000         1.192231159198195E-065
   75.7701000000000         1.096008088593019E-065
   76.0095000000000         6.213314010068265E-066
   76.2489000000000        -3.659321115350396E-066
   76.4883000000000        -1.949902136392877E-065
   76.7277000000000        -4.106400797875522E-065
   76.9671000000000        -6.634879372807042E-065
   77.2065000000000        -9.092875414611522E-065
   77.4459000000000        -1.075292560821750E-064
   77.6853000000000        -1.060901558362805E-064
   77.9247000000000        -7.464073587889252E-065
   78.1641000000000        -1.286886410649475E-066
   78.4035000000000         1.224925544942290E-064
   78.6429000000000         2.972710554868766E-064
   78.8823000000000         5.102201705132774E-064
   79.1217000000000         7.296743287076546E-064
   79.3611000000000         9.011933885902645E-064
   79.6005000000000         9.471577510050561E-064
   79.8399000000000         7.722974106620535E-064
   80.0793000000000         2.775143464717870E-064
   80.3187000000000        -6.163409572375447E-064
   80.5581000000000        -1.934662111252377E-063
   80.7975000000000        -3.607777843705163E-063
   81.0369000000000        -5.428249562298297E-063
   81.2763000000000        -7.017098260114349E-063
   81.5157000000000        -7.813421242392264E-063
   81.7551000000000        -7.104787779316965E-063
   81.9945000000000        -4.116011785518869E-063
   82.2339000000000         1.830335886088274E-063
   82.4733000000000         1.107861288416022E-062
   82.7127000000000         2.334432137796575E-062
   82.9521000000000         3.739650009980336E-062
   83.1915000000000         5.078610097219774E-062
   83.4309000000000         5.971762246963982E-062
   83.6703000000000         5.918369225623784E-062
   83.9097000000000         4.348775330207462E-062
   84.1491000000000         7.257030979475203E-063
   84.3885000000000        -5.301450554262363E-062
   84.6279000000000        -1.369629972272166E-061
   84.8673000000000        -2.381179121267866E-061
   85.1067000000000        -3.418505220874817E-061
   85.3461000000000        -4.241272348759261E-061
   85.5855000000000        -4.518512950280658E-061
   85.8249000000000        -3.856414804594805E-061
   86.0643000000000        -1.857895547143125E-061
   86.3037000000000         1.782131886589195E-061
   86.5431000000000         7.148396548867001E-061
   86.7825000000000         1.395599280806848E-060
   87.0219000000000         2.140446995004251E-060
   87.2613000000000         2.807264452102443E-060
   87.5007000000000         3.190292184845308E-060
   87.7401000000000         3.032999967392528E-060
   87.9795000000000         2.060510136222562E-060
   88.2189000000000         3.487611797932410E-062
   88.4583000000000        -3.167100795524330E-060
   88.6977000000000        -7.459395473884659E-060
   88.9371000000000        -1.244875448452194E-059
   89.1765000000000        -1.735444016343095E-059
   89.4159000000000        -2.097459922133793E-059
   89.6553000000000        -2.173308569208152E-059
   89.8947000000000        -1.784026472670574E-059
   90.1341000000000        -7.592976138487859E-060
   90.3735000000000         1.017995690824858E-059
   90.6129000000000         3.555077563235540E-059
   90.8523000000000         6.686985932203493E-059
   91.0917000000000         1.002007668673913E-058
   91.3311000000000         1.289753326048007E-058
   91.5705000000000         1.440674242372208E-058
   91.8099000000000         1.344942851195673E-058
   92.0493000000000         8.892225036602500E-059
   92.2887000000000        -1.935994797876119E-060
   92.5281000000000        -1.421023370445596E-058
   92.7675000000000        -3.265857914380476E-058
   93.0069000000000        -5.376749020770012E-058
   93.2463000000000        -7.421284321255606E-058
   93.4857000000000        -8.903711299417324E-058
   93.7251000000000        -9.189303395388531E-058
   93.9645000000000        -7.572684100011548E-058
   94.2039000000000        -3.397854592681736E-058
   94.4433000000000         3.769817658146681E-058
   94.6827000000000         1.393078439278884E-057
   94.9221000000000         2.642357614590042E-057
   95.1615000000000         3.972462974102491E-057
   95.4009000000000         5.133387907657775E-057
   95.6403000000000         5.781522498350802E-057
   95.8797000000000         5.506235228872442E-057
   96.1191000000000         3.884705926087255E-057
   96.3585000000000         5.674873954112493E-058
   96.5979000000000        -4.608124417085020E-057
   96.8373000000000        -1.148729584868668E-056
   97.0767000000000        -1.946876965773205E-056
   97.3161000000000        -2.740647125931949E-056
   97.5555000000000        -3.357791596742051E-056
   97.7949000000000        -3.575953666640395E-056
   98.0343000000000        -3.144622688079584E-056
   98.2737000000000        -1.824030120805191E-056
   98.5131000000000         5.588238088307677E-057
   98.7525000000000         4.040330780988743E-056
   98.9919000000000         8.444455952084425E-056
   99.2313000000000         1.331384178694810E-055
   99.4707000000000         1.786556685564691E-055
   99.7101000000000         2.099277326067393E-055
   99.9495000000000         2.133414479847000E-055
   100.188900000000         1.742982728192644E-055
   100.428300000000         7.973558613848287E-056
   100.667700000000        -7.844241830847690E-056
   100.907100000000        -2.992874233353985E-055
   101.146500000000        -5.686032068651213E-055
   101.385900000000        -8.554077645972606E-055
   101.625300000000        -1.110094150385659E-054
   101.864700000000        -1.265468036834716E-054
   102.104100000000        -1.241816650855748E-054
   102.343500000000        -9.568985773859178E-055
   102.582900000000        -3.411782658547395E-055
   102.822300000000         6.422629218953525E-055
   103.061700000000         1.974898665070030E-054
   103.301100000000         3.560164726326769E-054
   103.540500000000         5.205664648881598E-054
   103.779900000000         6.615899879773913E-054
   104.019300000000         7.401822765165673E-054
   104.258700000000         7.113115787640962E-054
   104.498100000000         5.297377907078756E-054
   104.737500000000         1.587085568386681E-054
   104.976900000000        -4.189781791404605E-054
   105.216300000000        -1.188599013696860E-053
   105.455700000000        -2.091600321708287E-053
   105.695100000000        -3.016661241959953E-053
   105.934500000000        -3.796778310238227E-053
   106.173900000000        -4.215648579314671E-053
   106.413300000000        -4.026327699655784E-053
   106.652700000000        -2.984142031693369E-053
   106.892100000000        -8.940213150440954E-054
   107.131500000000         2.330225467637648E-053
   107.370900000000         6.600510879946031E-053
   107.610300000000         1.159248637085582E-052
   107.849700000000         1.670008328808641E-052
   108.089100000000         2.102236824150331E-052
   108.328500000000         2.339942187412025E-052
   108.567900000000         2.251217002783403E-052
   108.807300000000         1.705578297418901E-052
   109.046700000000         5.986871181337366E-053
   109.286100000000        -1.116877728619274E-052
   109.525500000000        -3.397803256262177E-052
   109.764900000000        -6.078053987391080E-052
   110.004300000000        -8.845349491666556E-052
   110.243700000000        -1.123405883535233E-051
   110.483100000000        -1.264289135723104E-051
   110.722500000000        -1.238485398024899E-051
   110.961900000000        -9.774297697228708E-052
   111.201300000000        -4.251234881368424E-052
   111.440700000000         4.463527958198727E-052
   111.680100000000         1.619717523707871E-051
   111.919500000000         3.016143947736461E-051
   112.158900000000         4.482946863259752E-051
   112.398300000000         5.789205412763617E-051
   112.637700000000         6.633454680029379E-051
   112.877100000000         6.667166442477037E-051
   113.116500000000         5.536495104543884E-051
   113.355900000000         2.942565011922161E-051
   113.595300000000        -1.282585078107487E-051
   113.834700000000        -7.091243202485699E-051
   114.074100000000        -1.413768119247500E-050
   114.313500000000        -2.171367791062231E-050
   114.552900000000        -2.872060378848871E-050
   114.792300000000        -3.369806449751485E-050
   115.031700000000        -3.492744459717417E-050
   115.271100000000        -3.062316266218147E-050
   115.510500000000        -1.921444189042971E-050
   115.749900000000         2.941560656399136E-052
   115.989300000000         2.791360050886710E-050
   116.228700000000         6.226346695180727E-050
   116.468100000000         1.002382049399185E-049
   116.707500000000         1.368336556628792E-049
   116.946900000000         1.652284249247245E-049
   117.186300000000         1.772090520910620E-049
   117.425700000000         1.640047586796878E-049
   117.665100000000         1.175539413729703E-049
   117.904500000000         3.215985395524964E-050
   118.143900000000        -9.359018737387304E-050
   118.383300000000        -2.548623337566442E-049
   118.622700000000        -4.388852447874345E-049
   118.862100000000        -6.239238113742902E-049
   119.101500000000        -7.793534468815559E-049
   119.340900000000        -8.672567697558372E-049
   119.580300000000        -8.458739802616900E-049
   119.819700000000        -6.750568678520017E-049
   120.059100000000        -3.235995225270328E-049
   120.298500000000         2.220439528184206E-049
   120.537900000000         9.485654898170932E-049
   120.777300000000         1.807475054406235E-048
   121.016700000000         2.709354739724308E-048
   121.256100000000         3.522643527840524E-048
   121.495500000000         4.078899905384302E-048
   121.734900000000         4.186165920582730E-048
   121.974300000000         3.651342125775308E-048
   122.213700000000         2.311348639926003E-048
   122.453100000000         7.132190347368265E-050
   122.692500000000        -3.053716809276569E-048
   122.931900000000        -6.899197077719518E-048
   123.171300000000        -1.112055007651201E-047
   123.410700000000        -1.518039437474228E-047
   123.650100000000        -1.836206872531716E-047
   123.889500000000        -1.981721223076826E-047
   124.128900000000        -1.865246086480335E-047
   124.368300000000        -1.405590822054183E-047
   124.607700000000        -5.457824811978564E-048
   124.847100000000         7.287398557635628E-048
   125.086500000000         2.371931435508220E-047
   125.325900000000         4.261851386426805E-047
   125.565300000000         6.191778040702857E-047
   125.804700000000         7.871492913417234E-047
   126.044100000000         8.942253118274291E-047
   126.283500000000         9.008083355389080E-047
   126.522900000000         7.684394102808338E-047
   126.762300000000         4.662566289086467E-047
   127.001700000000        -2.138565514253250E-048
   127.241100000000        -6.869112888336535E-047
   127.480500000000        -1.492242568866977E-046
   127.719900000000        -2.363642116266003E-046
   127.959300000000        -3.190238721267246E-046
   128.198700000000        -3.827781774974675E-046
   128.438100000000        -4.108905287189838E-046
   128.677500000000        -3.860628121642466E-046
   128.916900000000        -2.928956593871313E-046
   129.156300000000        -1.209315563068204E-046
   129.395700000000         1.319806640491192E-046
   129.635100000000         4.564019137791624E-046
   129.874500000000         8.286291251021383E-046
   130.113900000000         1.209252165736376E-045
   130.353300000000         1.543589544081596E-045
   130.592700000000         1.764589852145446E-045
   130.832100000000         1.798614877361678E-045
   131.071500000000         1.574228134463929E-045
   131.310900000000         1.033702353002615E-045
   131.550300000000         1.464531431396205E-046
   131.789700000000        -1.076952666521687E-045
   132.029100000000        -2.572110611040351E-045
   132.268500000000        -4.211756192612633E-045
   132.507900000000        -5.802995015260278E-045
   132.747300000000        -7.093318495872691E-045
   132.986700000000        -7.787489017257688E-045
   133.226100000000        -7.576471725237573E-045
   133.465500000000        -6.178208851870323E-045
   133.704900000000        -3.388223518370116E-045
   133.944300000000         8.640714498298082E-046
   134.183700000000         6.459688043529269E-045
   134.423100000000         1.304333402381753E-044
   134.662500000000         1.999542219350786E-044
   134.901900000000         2.643310157148342E-044
   135.141300000000         3.124976900544588E-044
   135.380700000000         3.320005827261491E-044
   135.620100000000         3.103303299449784E-044
   135.859500000000         2.367026207407427E-044
   136.098900000000         1.041792960477770E-044
   136.338300000000        -8.806270370332778E-045
   136.577700000000        -3.325905907812692E-044
   136.817100000000        -6.120502551514713E-044
   137.056500000000        -8.983675373500707E-044
   137.295900000000        -1.153210740195877E-043
   137.535300000000        -1.330056949380580E-043
   137.774700000000        -1.378087830116692E-043
   138.014100000000        -1.247954650558267E-043
   138.253500000000        -8.992017716093074E-044
   138.492900000000        -3.088376097735094E-044
   138.732300000000         5.197813921827871E-044