  -1.79550000000000         0.000000000000000E+000
  -1.55610000000000         0.000000000000000E+000
  -1.31670000000000         0.000000000000000E+000
  -1.07730000000000         0.000000000000000E+000
 -0.837900000000000         0.000000000000000E+000
 -0.598500000000000         0.000000000000000E+000
 -0.359100000000000         0.000000000000000E+000
 -0.119700000000000         0.000000000000000E+000
  0.119700000000000         0.000000000000000E+000
  0.359100000000000         0.000000000000000E+000
  0.598500000000000         0.000000000000000E+000
  0.837900000000000         0.000000000000000E+000
   1.07730000000000         0.000000000000000E+000
   1.31670000000000         0.000000000000000E+000
   1.55610000000000         0.000000000000000E+000
   1.79550000000000         0.000000000000000E+000
   2.03490000000000         0.000000000000000E+000
   2.27430000000000         0.000000000000000E+000
   2.51370000000000         0.000000000000000E+000
   2.75310000000000         0.000000000000000E+000
   2.99250000000000         0.000000000000000E+000
   3.23190000000000         0.000000000000000E+000
   3.47130000000000         0.000000000000000E+000
   3.71070000000000         0.000000000000000E+000
   3.95010000000000         0.000000000000000E+000
   4.18950000000000         0.000000000000000E+000
   4.42890000000000         0.000000000000000E+000
   4.66830000000000         0.000000000000000E+000
   4.90770000000000         0.000000000000000E+000
   5.14710000000000         0.000000000000000E+000
   5.38650000000000         0.000000000000000E+000
   5.62590000000000         0.000000000000000E+000
   5.86530000000000         0.000000000000000E+000
   6.10470000000000         0.000000000000000E+000
   6.34410000000000         0.000000000000000E+000
   6.58350000000000         0.000000000000000E+000
   6.82290000000000         0.000000000000000E+000
   7.06230000000000         0.000000000000000E+000
   7.30170000000000         0.000000000000000E+000
   7.54110000000000         0.000000000000000E+000
   7.78050000000000         0.000000000000000E+000
   8.01990000000000         0.000000000000000E+000
   8.25930000000000         0.000000000000000E+000
   8.49870000000000         0.000000000000000E+000
   8.73810000000000         0.000000000000000E+000
   8.97750000000000         1.354791750595290E-196
   9.21690000000000         5.912751622640771E-190
   9.45630000000000        -1.309074437957743E-185
   9.69570000000000        -1.448209663894295E-183
   9.93510000000000        -6.145548238868056E-181
   10.1745000000000        -5.850692411889006E-179
   10.4139000000000        -2.988162651235005E-177
   10.6533000000000        -1.038355991489563E-175
   10.8927000000000        -2.736209016122237E-174
   11.1321000000000        -5.815350915757399E-173
   11.3715000000000        -1.037080757937159E-171
   11.6109000000000        -1.595143799540797E-170
   11.8503000000000        -2.159236472504081E-169
   12.0897000000000        -2.612203544077348E-168
   12.3291000000000        -2.858851195380062E-167
   12.5685000000000        -2.858285321092882E-166
   12.8079000000000        -2.631749663005774E-165
   13.0473000000000        -2.246606229119472E-164
   13.2867000000000        -1.788216850657762E-163
   13.5261000000000        -1.333619374739845E-162
   13.7655000000000        -9.357876512009826E-162
   14.0049000000000        -6.200545469781105E-161
   14.2443000000000        -3.891885622604124E-160
   14.4837000000000        -2.320411207089144E-159
   14.7231000000000        -1.317320352481915E-158
   14.9625000000000        -7.135980460858062E-158
   15.2019000000000        -3.695274193710781E-157
   15.4413000000000        -1.832127665662946E-156
   15.6807000000000        -8.708886431163217E-156
   15.9201000000000        -3.973273466123857E-155
   16.1595000000000        -1.741377090396345E-154
   16.3989000000000        -7.336158598405740E-154
   16.6383000000000        -2.971883477605999E-153
   16.8777000000000        -1.157715833444401E-152
   17.1171000000000        -4.335444813252010E-152
   17.3565000000000        -1.559436583498531E-151
   17.5959000000000        -5.379644226876813E-151
   17.8353000000000        -1.775488823017870E-150
   18.0747000000000        -5.583837770816318E-150
   18.3141000000000        -1.662547959254570E-149
   18.5535000000000        -4.634469492464638E-149
   18.7929000000000        -1.184507374916504E-148
   19.0323000000000        -2.651810137154233E-148
   19.2717000000000        -4.542391663915386E-148
   19.5111000000000        -1.964298850825715E-148
   19.7505000000000         3.068410337891148E-147
   19.9899000000000         1.976818874610967E-146
   20.2293000000000         8.718055371454488E-146
   20.4687000000000         3.271599313859488E-145
   20.7081000000000         1.110429524620935E-144
   20.9475000000000         3.494618645475060E-144
   21.1869000000000         1.031280911342953E-143
   21.4263000000000         2.865964935341957E-143
   21.6657000000000         7.494106258711129E-143
   21.9051000000000         1.832124704390074E-142
   22.1445000000000         4.124375781499919E-142
   22.3839000000000         8.257345435638658E-142
   22.6233000000000         1.336082098269610E-141
   22.8627000000000         1.071547889752430E-141
   23.1021000000000        -3.767898129866143E-141
   23.3415000000000        -2.638697893154712E-140
   23.5809000000000        -1.075067758265555E-139
   23.8203000000000        -3.629836192895140E-139
   24.0597000000000        -1.102478308618045E-138
   24.2991000000000        -3.110845718809233E-138
   24.5385000000000        -8.283560387717070E-138
   24.7779000000000        -2.099061917245597E-137
   25.0173000000000        -5.084443362478606E-137
   25.2567000000000        -1.179533617460241E-136
   25.4961000000000        -2.620452679040405E-136
   25.7355000000000        -5.562520216763733E-136
   25.9749000000000        -1.122559829572265E-135
   26.2143000000000        -2.133143329965182E-135
   26.4537000000000        -3.746591164341112E-135
   26.6931000000000        -5.841503620715172E-135
   26.9325000000000        -7.213632987425125E-135
   27.1719000000000        -3.485049091250933E-135
   27.4113000000000         1.786612694965924E-134
   27.6507000000000         8.854885062922381E-134
   27.8901000000000         2.826688938396711E-133
   28.1295000000000         7.631786080339354E-133
   28.3689000000000         1.870731618975050E-132
   28.6083000000000         4.286530161699853E-132
   28.8477000000000         9.318823476072779E-132
   29.0871000000000         1.938807294069616E-131
   29.3265000000000         3.882210212797616E-131
   29.5659000000000         7.513172231579717E-131
   29.8053000000000         1.410573621056036E-130
   30.0447000000000         2.579657080984857E-130
   30.2841000000000         4.619038333627479E-130
   30.5235000000000         8.154057994775230E-130
   30.7629000000000         1.432275696761268E-129
   31.0023000000000         2.531445990332148E-129
   31.2417000000000         4.553626122642715E-129
   31.4811000000000         8.406338941717765E-129
   31.7205000000000         1.595405122670263E-128
   31.9599000000000         3.093715914349799E-128
   32.1993000000000         6.055437706402708E-128
   32.4387000000000         1.178685143177922E-127
   32.6781000000000         2.247097359621749E-127
   32.9175000000000         4.131991683406625E-127
   33.1569000000000         7.200414903124558E-127
   33.3963000000000         1.158741164917399E-126
   33.6357000000000         1.636294304892946E-126
   33.8751000000000         1.745264591572674E-126
   34.1145000000000         2.987032410706635E-127
   34.3539000000000        -5.628919105384640E-126
   34.5933000000000        -2.254691186097622E-125
   34.8327000000000        -6.387142839186391E-125
   35.0721000000000        -1.555070416179519E-124
   35.3115000000000        -3.444810244537427E-124
   35.5509000000000        -7.108786461840670E-124
   35.7903000000000        -1.381441051523414E-123
   36.0297000000000        -2.538520395716435E-123
   36.2691000000000        -4.408212077456817E-123
   36.5085000000000        -7.192662519622033E-123
   36.7479000000000        -1.087863366497729E-122
   36.9873000000000        -1.480141326160859E-122
   37.2267000000000        -1.676540127042993E-122
   37.4661000000000        -1.142185568154426E-122
   37.7055000000000         1.250139098983076E-122
   37.9449000000000         7.658081772166797E-122
   38.1843000000000         2.190427732013092E-121
   38.4237000000000         5.029276331652126E-121
   38.6631000000000         1.024643523612105E-120
   38.9025000000000         1.918795230510985E-120
   39.1419000000000         3.350192441282165E-120
   39.3813000000000         5.475516387253567E-120
   39.6207000000000         8.344031410709445E-120
   39.8601000000000         1.168815281928023E-119
   40.0995000000000         1.453124054281987E-119
   40.3389000000000         1.451560365162540E-119
   40.5783000000000         6.838727587663095E-120
   40.8177000000000        -1.729828398642722E-119
   41.0571000000000        -7.273977938767140E-119
   41.2965000000000        -1.827099454648286E-118
   41.5359000000000        -3.807630958153788E-118
   41.7753000000000        -7.108490809124926E-118
   42.0147000000000        -1.222615351252366E-117
   42.2541000000000        -1.956967439090056E-117
   42.4935000000000        -2.913983676292957E-117
   42.7329000000000        -3.991648465602996E-117
   42.9723000000000        -4.880151585099846E-117
   43.2117000000000        -4.894266426417399E-117
   43.4511000000000        -2.728747465130773E-117
   43.6905000000000         3.865546342848387E-117
   43.9299000000000         1.845481103651008E-116
   44.1693000000000         4.624945311992295E-116
   44.4087000000000         9.417390648143184E-116
   44.6481000000000         1.702811991178865E-115
   44.8875000000000         2.818418629504015E-115
   45.1269000000000         4.310810097374557E-115
   45.3663000000000         6.071436609043452E-115
   45.6057000000000         7.725640898588643E-115
   45.8451000000000         8.425654264644392E-115
   46.0845000000000         6.563933567118903E-115
   46.3239000000000        -5.766215095437695E-116
   46.5633000000000        -1.716833697430415E-114
   46.8027000000000        -4.902347084100482E-114
   47.0421000000000        -1.033204476028400E-113
   47.2815000000000        -1.873773049976616E-113
   47.5209000000000        -3.057387901870001E-113
   47.7603000000000        -4.546130229181440E-113
   47.9997000000000        -6.125864002709687E-113
   48.2391000000000        -7.267699867971935E-113
   48.4785000000000        -6.944167902463870E-113
   48.7179000000000        -3.420552299878216E-113
   48.9573000000000         5.921453513472528E-113
   49.1967000000000         2.461227425743656E-112
   49.4361000000000         5.677795006212469E-112
   49.6755000000000         1.061825800399122E-111
   49.9149000000000         1.742392015092420E-111
   50.1543000000000         2.565541240514019E-111
   50.3937000000000         3.376548473945274E-111
   50.6331000000000         3.838862517897186E-111
   50.8725000000000         3.352007029928689E-111
   51.1119000000000         9.788623633486692E-112
   51.3513000000000        -4.576970189785587E-111
   51.5907000000000        -1.487582196330205E-110
   51.8301000000000        -3.142975929986328E-110
   52.0695000000000        -5.504827226155063E-110
   52.3089000000000        -8.471072774350364E-110
   52.5483000000000        -1.158747357134150E-109
   52.7877000000000        -1.382515482895754E-109
   53.0271000000000        -1.333254778097470E-109
   53.2665000000000        -7.230320177634544E-110
   53.5059000000000         8.423225184274238E-110
   53.7453000000000         3.829548544605203E-109
   53.9847000000000         8.679620443618744E-109
   54.2241000000000         1.561237739580709E-108
   54.4635000000000         2.430425462927264E-108
   54.7029000000000         3.342587256453555E-108
   54.9423000000000         4.006545382515721E-108
   55.1817000000000         3.913446405312779E-108
   55.4211000000000         2.295911840738815E-108
   55.6605000000000        -1.859718262353226E-108
   55.8999000000000        -9.697812555210575E-108
   56.1393000000000        -2.221127910943413E-107
   56.3787000000000        -3.972679607707205E-107
   56.6181000000000        -6.111035424884568E-107
   56.8575000000000        -8.270118862689860E-107
   57.0969000000000        -9.708917723619591E-107
   57.3363000000000        -9.202135959693510E-107
   57.5757000000000        -4.995713374079779E-107
   57.8151000000000         5.093486153393177E-107
   58.0545000000000         2.332935436989082E-106
   58.2939000000000         5.134339397834964E-106
   58.5333000000000         8.895940016576923E-106
   58.7727000000000         1.325303848264939E-105
   59.0121000000000         1.729111788164692E-105
   59.2515000000000         1.934356927237744E-105
   59.4909000000000         1.686122787176003E-105
   59.7303000000000         6.466275814721490E-106
   59.9697000000000        -1.565745964234906E-105
   60.2091000000000        -5.286386459580920E-105
   60.4485000000000        -1.064794066659076E-104
   60.6879000000000        -1.735123563561348E-104
   60.9273000000000        -2.437754427784480E-104
   61.1667000000000        -2.968950957718608E-104
   61.4061000000000        -3.001507760441765E-104
   61.6455000000000        -2.086495594774583E-104
   61.8849000000000         3.012565251266444E-105
   62.1243000000000         4.650709818656079E-104
   62.3637000000000         1.121490967525255E-103
   62.6031000000000         1.971672767068091E-103
   62.8425000000000         2.898024191416388E-103
   63.0819000000000         3.655315877756412E-103
   63.3213000000000         3.844825957276206E-103
   63.5607000000000         2.920465773059960E-103
   63.8001000000000         2.535069940726772E-104
   64.0395000000000        -4.714792528976812E-103
   64.2789000000000        -1.220915555273613E-102
   64.5183000000000        -2.174132431195944E-102
   64.7577000000000        -3.165261515162525E-102
   64.9971000000000        -3.867805885358720E-102
   65.2365000000000        -3.771771191971574E-102
   65.4759000000000        -2.209638965739527E-102
   65.7153000000000         1.532785593514677E-102
   65.9547000000000         7.982965047392553E-102
   66.1941000000000         1.709918359350846E-101
   66.4335000000000         2.774471917444679E-101
   66.6729000000000         3.708520286801388E-101
   66.9123000000000         4.006993403137201E-101
   67.1517000000000         2.928165482138731E-101
   67.3911000000000        -4.425952149857585E-102
   67.6305000000000        -6.997848255140833E-101
   67.8699000000000        -1.722867583749326E-100
   68.1093000000000        -3.062645480258278E-100
   68.3487000000000        -4.488160330120320E-100
   68.5881000000000        -5.498822037201506E-100
   68.8275000000000        -5.250625921406797E-100
   69.0669000000000        -2.541990822197958E-100
   69.3063000000000         4.076452530550805E-100
   69.5457000000000         1.598745087667386E-099
   69.7851000000000         3.390518882367258E-099
   70.0245000000000         5.692915515596484E-099
   70.2639000000000         8.126956275405682E-099
   70.5033000000000         9.879643840721283E-099
   70.7427000000000         9.577639683077024E-099
   70.9821000000000         5.244393258874926E-099
   71.2215000000000        -5.562649730365458E-099
   71.4609000000000        -2.531048201150121E-098
   71.7003000000000        -5.561085835316805E-098
   71.9397000000000        -9.579787524555539E-098
   72.1791000000000        -1.409517477188125E-097
   72.4185000000000        -1.795430242111594E-097
   72.6579000000000        -1.911690181914210E-097
   72.8973000000000        -1.452644714210596E-097
   73.1367000000000        -2.153357268361122E-099
   73.3761000000000         2.817301902873079E-097
   73.6155000000000         7.423665297817612E-097
   73.8549000000000         1.388555572397959E-096
   74.0943000000000         2.173393352494331E-096
   74.3337000000000         2.958302460791409E-096
   74.5731000000000         3.474965350994374E-096
   74.8125000000000         3.296067751335839E-096
   75.0519000000000         1.832663873528279E-096
   75.2913000000000        -1.616872836507453E-096
   75.5307000000000        -7.736099418589586E-096
   75.7701000000000        -1.694780102227829E-095
   76.0095000000000        -2.903920465730642E-095
   76.2489000000000        -4.266039584864718E-095
   76.4883000000000        -5.474718116874071E-095
   76.7277000000000        -5.998905009669187E-095
   76.9671000000000        -5.055360135250384E-095
   77.2065000000000        -1.637995922551709E-095
   77.4459000000000         5.355814426907229E-095
   77.6853000000000         1.685830359526739E-094
   77.9247000000000         3.318730618392499E-094
   78.1641000000000         5.341361304602409E-094
   78.4035000000000         7.457768448644648E-094
   78.6429000000000         9.087314107171786E-094
   78.8823000000000         9.302380155399962E-094
   79.1217000000000         6.821114030540270E-094
   79.3611000000000         1.036688436451600E-095
   79.6005000000000        -1.239124032804175E-093
   79.8399000000000        -3.173485919994460E-093
   80.0793000000000        -5.780817625259853E-093
   80.3187000000000        -8.834726994890539E-093
   80.5581000000000        -1.178515166657051E-092
   80.7975000000000        -1.365727888570392E-092
   81.0369000000000        -1.299563617238631E-092
   81.2763000000000        -7.906805663265784E-093
   81.5157000000000         3.732305391918545E-093
   81.7551000000000         2.382946794215735E-092
   81.9945000000000         5.333782626938902E-092
   82.2339000000000         9.120614151720943E-092
   82.4733000000000         1.330813437683666E-091
   82.7127000000000         1.699485633203706E-091
   82.9521000000000         1.870576545310512E-091
   83.1915000000000         1.636746654392072E-091
   83.4309000000000         7.437622251735843E-092
   83.6703000000000        -1.072855015178420E-091
   83.9097000000000        -4.019651032214301E-091
   84.1491000000000        -8.140777289940166E-091
   84.3885000000000        -1.317926012141781E-090
   84.6279000000000        -1.841737717243598E-090
   84.8673000000000        -2.252567288678521E-090
   85.1067000000000        -2.347010391035191E-090
   85.3461000000000        -1.854774414250923E-090
   85.5855000000000        -4.638194541506388E-091
   85.8249000000000         2.123753616662249E-090
   86.0643000000000         6.097666807568245E-090
   86.3037000000000         1.140504885499486E-089
   86.5431000000000         1.758302622771961E-089
   86.7825000000000         2.358035895500427E-089
   87.0219000000000         2.760944856842823E-089
   87.2613000000000         2.709200663304952E-089
   87.5007000000000         1.878217321540078E-089
   87.7401000000000        -8.367955043652883E-091
   87.9795000000000        -3.479128073793106E-089
   88.2189000000000        -8.443424973515716E-089
   88.4583000000000        -1.478568062860319E-088
   88.6977000000000        -2.180327600128471E-088
   88.9371000000000        -2.810062885903647E-088
   89.1765000000000        -3.146428060171962E-088
   89.4159000000000        -2.886819821123964E-088
   89.6553000000000        -1.670067301548319E-088
   89.8947000000000         8.690499187364289E-089
   90.1341000000000         5.005471218402442E-088
   90.3735000000000         1.078672241425140E-087
   90.6129000000000         1.785927286811230E-087
   90.8523000000000         2.527874942144270E-087
   91.0917000000000         3.134283285314102E-087
   91.3311000000000         3.350664949306189E-087
   91.5705000000000         2.846019380467567E-087
   91.8099000000000         1.245972672293884E-087
   92.0493000000000        -1.799806294436762E-087
   92.2887000000000        -6.509885293101520E-087
   92.5281000000000        -1.282338004017104E-086
   92.7675000000000        -2.022323667281850E-086
   93.0069000000000        -2.755637880728848E-086
   93.2463000000000        -3.289497842254986E-086
   93.4857000000000        -3.350243856048811E-086
   93.7251000000000        -2.598363654550151E-086
   93.9645000000000        -6.705222331578215E-087
   94.2039000000000         2.743976940496859E-086
   94.4433000000000         7.788690998405114E-086
   94.6827000000000         1.429116075335606E-085
   94.9221000000000         2.159448007964712E-085
   95.1615000000000         2.839890800396879E-085
   95.4009000000000         3.266014622647551E-085
   95.6403000000000         3.160736173379278E-085
   95.8797000000000         2.195540768034131E-085
   96.1191000000000         3.858196834635261E-087
   96.3585000000000        -3.564729814522956E-085
   96.5979000000000        -8.677485888977212E-085
   96.8373000000000        -1.502984194727457E-084
   97.0767000000000        -2.186778534160855E-084
   97.3161000000000        -2.782319461520870E-084
   97.5555000000000        -3.085108099576307E-084
   97.7949000000000        -2.829287695885543E-084
   98.0343000000000        -1.713142481310053E-084
   98.2737000000000         5.501685709746083E-085
   98.5131000000000         4.152883386398163E-084
   98.7525000000000         9.084842824079160E-084
   98.9919000000000         1.500599337275446E-083
   99.2313000000000         2.111764609759936E-083
   99.4707000000000         2.606293476768548E-083
   99.7101000000000         2.789906445190556E-083
   99.9495000000000         2.419342204660531E-083
   100.188900000000         1.229848141290908E-083
   100.428300000000        -1.014813007349165E-083
   100.667700000000        -4.447706942666727E-083
   100.907100000000        -9.001859252104173E-083
   101.146500000000        -1.430043549475829E-082
   101.385900000000        -1.955207068492841E-082
   101.625300000000        -2.347944278841096E-082
   101.864700000000        -2.431866988459079E-082
   102.104100000000        -1.993352967041895E-082
   102.343500000000        -8.088462855744961E-083
   102.582900000000         1.308609986055693E-082
   102.822300000000         4.442722308849743E-082
   103.061700000000         8.490469571147988E-082
   103.301100000000         1.307104408616096E-081
   103.540500000000         1.744385719960370E-081
   103.779900000000         2.046026220813909E-081
   104.019300000000         2.058075882805064E-081
   104.258700000000         1.599347305104967E-081
   104.498100000000         4.867873080620645E-082
   104.737500000000        -1.423309902731057E-081
   104.976900000000        -4.178188921654290E-081
   105.216300000000        -7.659183701630541E-081
   105.455700000000        -1.150846756604856E-080
   105.695100000000        -1.506651518877656E-080
   105.934500000000        -1.734100551714964E-080
   106.173900000000        -1.703307466167594E-080
   106.413300000000        -1.264918155511281E-080
   106.652700000000        -2.724177249149843E-081
   106.892100000000         1.382887970326212E-080
   107.131500000000         3.724610421290438E-080
   107.370900000000         6.635136224916209E-080
   107.610300000000         9.798009815655800E-080
   107.849700000000         1.265093565344185E-079
   108.089100000000         1.436621553839590E-079
   108.328500000000         1.387915312348857E-079
   108.567900000000         9.986256670718320E-080
   108.807300000000         1.532261833637205E-080
   109.046700000000        -1.230367510664024E-079
   109.286100000000        -3.162826161880159E-079
   109.525500000000        -5.539049216117872E-079
   109.764900000000        -8.093521382695339E-079
   110.004300000000        -1.036508182034900E-078
   110.243700000000        -1.168434131818717E-078
   110.483100000000        -1.119964778272581E-078
   110.722500000000        -7.958210766110891E-079
   110.961900000000        -1.056479977306706E-079
   111.201300000000         1.013316061192425E-078
   111.440700000000         2.566491394033053E-078
   111.680100000000         4.467541420245430E-078
   111.919500000000         6.504093395050985E-078
   112.158900000000         8.311113748381078E-078
   112.398300000000         9.362087769742907E-078
   112.637700000000         8.990087826073746E-078
   112.877100000000         6.451242808824414E-078
   113.116500000000         1.041103956747616E-078
   113.355900000000        -7.731004738281483E-078
   113.595300000000        -1.991410683292227E-077
   113.834700000000        -3.485258265641669E-077
   114.074100000000        -5.092436867105909E-077
   114.313500000000        -6.533684187550693E-077
   114.552900000000        -7.405639522913638E-077
   114.792300000000        -7.196202858708349E-077
   115.031700000000        -5.331649278133131E-077
   115.271100000000        -1.263378766477491E-077
   115.510500000000         5.401772353832364E-077
   115.749900000000         1.473070880301292E-076
   115.989300000000         2.626600100170782E-076
   116.228700000000         3.882690268800384E-076
   116.468100000000         5.035062773820420E-076
   116.707500000000         5.782947193390913E-076
   116.946900000000         5.741016534210220E-076
   117.186300000000         4.472479583820305E-076
   117.425700000000         1.551284854601364E-076
   117.665100000000        -3.343358233395015E-076
   117.904500000000        -1.030185137592677E-075
   118.143900000000        -1.903743445113843E-075
   118.383300000000        -2.873609571823764E-075
   118.622700000000        -3.793220142583405E-075
   118.862100000000        -4.444946686312543E-075
   119.101500000000        -4.545512614420124E-075
   119.340900000000        -3.767809562036662E-075
   119.580300000000        -1.783611393030205E-075
   119.819700000000         1.670124553191942E-075
   120.059100000000         6.702008227570618E-075
   120.298500000000         1.315964941831236E-074
   120.537900000000         2.051793595571913E-074
   120.777300000000         2.778190765944673E-074
   121.016700000000         3.343165082834866E-074
   121.256100000000         3.544290964155381E-074
   121.495500000000         3.141997979879446E-074
   121.734900000000         1.887454099485856E-074
   121.974300000000        -4.327076276114839E-075
   122.213700000000        -3.934724210671264E-074
   122.453100000000        -8.562317763722494E-074
   122.692500000000        -1.400523197905380E-073
   122.931900000000        -1.962457397918630E-073
   123.171300000000        -2.440330193951891E-073
   123.410700000000        -2.694490763896476E-073
   123.650100000000        -2.554599024289879E-073
   123.889500000000        -1.836741269122315E-073
   124.128900000000        -3.722376699638244E-074
   124.368300000000         1.951348375022914E-073
   124.607700000000         5.138598577548556E-073
   124.847100000000         9.028516151938330E-073
   125.086500000000         1.323869441140154E-072
   125.325900000000         1.712315864967411E-072
   125.565300000000         1.975910847186288E-072
   125.804700000000         1.998007048121658E-072
   126.044100000000         1.647305914321691E-072
   126.283500000000         7.954103729879399E-073
   126.522900000000        -6.571137246362692E-073
   126.762300000000        -2.746775386495606E-072
   127.001700000000        -5.407717097890423E-072
   127.241100000000        -8.431487217916026E-072
   127.480500000000        -1.143324755400683E-071
   127.719900000000        -1.383407367977870E-071
   127.959300000000        -1.487084337560155E-071
   128.198700000000        -1.364580321431685E-071
   128.438100000000        -9.226524014285182E-072
   128.677500000000        -8.028807779778558E-073
   128.916900000000         1.209965150379307E-071
   129.156300000000         2.936195297806330E-071
   129.395700000000         4.999411384270089E-071
   129.635100000000         7.188111199442430E-071
   129.874500000000         9.160975948814317E-071
   130.113900000000         1.044491997082560E-070
   130.353300000000         1.045645180190883E-070
   130.592700000000         8.553921951155509E-071
   130.832100000000         4.126273943234292E-071
   131.071500000000        -3.280026990641531E-071
   131.310900000000        -1.380037607064055E-070
   131.550300000000        -2.707053932692894E-070
   131.789700000000        -4.204712821676687E-070
   132.029100000000        -5.686357175664779E-070
   132.268500000000        -6.876487830530955E-070
   132.507900000000        -7.417108406136948E-070
   132.747300000000        -6.892004017224203E-070
   132.986700000000        -4.873217919704336E-070
   133.226100000000        -9.920411410623125E-071
   133.465500000000         4.966459493066169E-070
   133.704900000000         1.295102248711756E-069
   133.944300000000         2.252540089563471E-069
   134.183700000000         3.276130299603002E-069
   134.423100000000         4.216762650935360E-069
   134.662500000000         4.868567520886269E-069
   134.901900000000         4.978231227497137E-069
   135.141300000000         4.267067935208781E-069
   135.380700000000         2.467947784797497E-069
   135.620100000000        -6.224523498952688E-070
   135.859500000000        -5.078080018668045E-069
   136.098900000000        -1.076988492045706E-068
   136.338300000000        -1.729324808528522E-068
   136.577700000000        -2.390958195639743E-068
   136.817100000000        -2.951878909954492E-068
   137.056500000000        -3.268156523517439E-068
   137.295900000000        -3.171058440005320E-068
   137.535300000000        -2.484638480828151E-068
   137.774700000000        -1.052636351033471E-068
   138.014100000000         1.225692158540737E-068
   138.253500000000         4.352900404429025E-068
   138.492900000000         8.188032779491858E-068
   138.732300000000         1.240520836112464E-067