  -1.79550000000000         0.000000000000000E+000
  -1.55610000000000         0.000000000000000E+000
  -1.31670000000000         0.000000000000000E+000
  -1.07730000000000         0.000000000000000E+000
 -0.837900000000000         0.000000000000000E+000
 -0.598500000000000         0.000000000000000E+000
 -0.359100000000000         0.000000000000000E+000
 -0.119700000000000         0.000000000000000E+000
  0.119700000000000         0.000000000000000E+000
  0.359100000000000         0.000000000000000E+000
  0.598500000000000         0.000000000000000E+000
  0.837900000000000         0.000000000000000E+000
   1.07730000000000         0.000000000000000E+000
   1.31670000000000         0.000000000000000E+000
   1.55610000000000         0.000000000000000E+000
   1.79550000000000         0.000000000000000E+000
   2.03490000000000         0.000000000000000E+000
   2.27430000000000         0.000000000000000E+000
   2.51370000000000         0.000000000000000E+000
   2.75310000000000         0.000000000000000E+000
   2.99250000000000         0.000000000000000E+000
   3.23190000000000         0.000000000000000E+000
   3.47130000000000         0.000000000000000E+000
   3.71070000000000         0.000000000000000E+000
   3.95010000000000         0.000000000000000E+000
   4.18950000000000         0.000000000000000E+000
   4.42890000000000         0.000000000000000E+000
   4.66830000000000         0.000000000000000E+000
   4.90770000000000         0.000000000000000E+000
   5.14710000000000         0.000000000000000E+000
   5.38650000000000         0.000000000000000E+000
   5.62590000000000         0.000000000000000E+000
   5.86530000000000         0.000000000000000E+000
   6.10470000000000         0.000000000000000E+000
   6.34410000000000         0.000000000000000E+000
   6.58350000000000         0.000000000000000E+000
   6.82290000000000         0.000000000000000E+000
   7.06230000000000         0.000000000000000E+000
   7.30170000000000         0.000000000000000E+000
   7.54110000000000         0.000000000000000E+000
   7.78050000000000         0.000000000000000E+000
   8.01990000000000         0.000000000000000E+000
   8.25930000000000         0.000000000000000E+000
   8.49870000000000         0.000000000000000E+000
   8.73810000000000         0.000000000000000E+000
   8.97750000000000         0.000000000000000E+000
   9.21690000000000         2.729796196565691E-197
   9.45630000000000         1.604157709644255E-190
   9.69570000000000        -2.033140781215097E-186
   9.93510000000000        -2.446365598065283E-184
   10.1745000000000        -9.697896460041797E-182
   10.4139000000000        -9.145227321494098E-180
   10.6533000000000        -4.655307552589589E-178
   10.8927000000000        -1.615311126817057E-176
   11.1321000000000        -4.254040421937479E-175
   11.3715000000000        -9.040556974948486E-174
   11.6109000000000        -1.612680782996346E-172
   11.8503000000000        -2.481711260140316E-171
   12.0897000000000        -3.361418230677553E-170
   12.3291000000000        -4.069236379485426E-169
   12.5685000000000        -4.456046566215234E-168
   12.8079000000000        -4.456963001514042E-167
   13.0473000000000        -4.104203511222523E-166
   13.2867000000000        -3.502585711438297E-165
   13.5261000000000        -2.785710287371504E-164
   13.7655000000000        -2.074564015917071E-163
   14.0049000000000        -1.452528062279112E-162
   14.2443000000000        -9.595099629209244E-162
   14.4837000000000        -5.998161716189686E-161
   14.7231000000000        -3.557727092256979E-160
   14.9625000000000        -2.006796069718264E-159
   15.2019000000000        -1.078613846981532E-158
   15.4413000000000        -5.533441575345382E-158
   15.6807000000000        -2.713395941463945E-157
   15.9201000000000        -1.273310698761175E-156
   16.1595000000000        -5.723593791322263E-156
   16.3989000000000        -2.466149732102159E-155
   16.6383000000000        -1.019005093804839E-154
   16.8777000000000        -4.038358232036542E-154
   17.1171000000000        -1.534708687717645E-153
   17.3565000000000        -5.589665167237290E-153
   17.5959000000000        -1.948980765546052E-152
   17.8353000000000        -6.494045972233902E-152
   18.0747000000000        -2.062098910802843E-151
   18.3141000000000        -6.213720142954904E-151
   18.5535000000000        -1.765103457320028E-150
   18.7929000000000        -4.675883081953090E-150
   19.0323000000000        -1.133127359327617E-149
   19.2717000000000        -2.415242372496978E-149
   19.5111000000000        -4.081576684876008E-149
   19.7505000000000        -3.179576250796522E-149
   19.9899000000000         1.332343827148862E-148
   20.2293000000000         8.829487175816704E-148
   20.4687000000000         3.364994877780877E-147
   20.7081000000000         9.999309157769518E-147
   20.9475000000000         2.384332075186542E-146
   21.1869000000000         4.050035028736880E-146
   21.4263000000000         1.032689142642443E-146
   21.6657000000000        -2.947629221613163E-145
   21.9051000000000        -1.672780238063011E-144
   22.1445000000000        -6.456054718840350E-144
   22.3839000000000        -2.034594188737341E-143
   22.6233000000000        -5.398477763093280E-143
   22.8627000000000        -1.153062665576913E-142
   23.1021000000000        -1.524091547316933E-142
   23.3415000000000         2.009711981196213E-142
   23.5809000000000         2.561106989758088E-141
   23.8203000000000         1.286642892102219E-140
   24.0597000000000         5.068164489260394E-140
   24.2991000000000         1.756052473283563E-139
   24.5385000000000         5.581178580715965E-139
   24.7779000000000         1.660061251608835E-138
   25.0173000000000         4.671882872212653E-138
   25.2567000000000         1.251916181690690E-137
   25.4961000000000         3.205561470909598E-137
   25.7355000000000         7.854785724165988E-137
   25.9749000000000         1.841412863903539E-136
   26.2143000000000         4.120882855675608E-136
   26.4537000000000         8.760487550154107E-136
   26.6931000000000         1.752823457815971E-135
   26.9325000000000         3.242445492681188E-135
   27.1719000000000         5.336702628561500E-135
   27.4113000000000         7.030324405272052E-135
   27.6507000000000         4.095869547123540E-135
   27.8901000000000        -1.654097702051888E-134
   28.1295000000000        -8.992915330036798E-134
   28.3689000000000        -3.017415768067442E-133
   28.6083000000000        -8.469660908825021E-133
   28.8477000000000        -2.142460513655897E-132
   29.0871000000000        -5.026835225338990E-132
   29.3265000000000        -1.108073117284906E-131
   29.5659000000000        -2.306006987621253E-131
   29.8053000000000        -4.528023429489920E-131
   30.0447000000000        -8.335604072511607E-131
   30.2841000000000        -1.416544930623543E-130
   30.5235000000000        -2.145159664487292E-130
   30.7629000000000        -2.626219223834581E-130
   31.0023000000000        -1.570338972761350E-130
   31.2417000000000         4.421309301657096E-130
   31.4811000000000         2.330465975453305E-129
   31.7205000000000         7.221203898398760E-129
   31.9599000000000         1.855857940391361E-128
   32.1993000000000         4.283817943811232E-128
   32.4387000000000         9.152534202083474E-128
   32.6781000000000         1.833589897993702E-127
   32.9175000000000         3.459682611431638E-127
   33.1569000000000         6.137107307583636E-127
   33.3963000000000         1.014405599327365E-126
   33.6357000000000         1.529466853079472E-126
   33.8751000000000         1.997313060534757E-126
   34.1145000000000         1.905604842160032E-126
   34.3539000000000        -1.931717005865456E-128
   34.5933000000000        -6.568206134156968E-126
   34.8327000000000        -2.334975660783319E-125
   35.0721000000000        -6.087527964972254E-125
   35.3115000000000        -1.376235497304504E-124
   35.5509000000000        -2.840259423228488E-124
   35.7903000000000        -5.465897188394836E-124
   36.0297000000000        -9.897464484061850E-124
   36.2691000000000        -1.689751690799296E-123
   36.5085000000000        -2.708981611161295E-123
   36.7479000000000        -4.028769500021031E-123
   36.9873000000000        -5.402681885891711E-123
   37.2267000000000        -6.068143326303131E-123
   37.4661000000000        -4.222077400085686E-123
   37.7055000000000         3.871244917906325E-123
   37.9449000000000         2.530369772399669E-122
   38.1843000000000         7.264085637511205E-122
   38.4237000000000         1.668070115771374E-121
   38.6631000000000         3.405271634064520E-121
   38.9025000000000         6.414498054490882E-121
   39.1419000000000         1.132715761633213E-120
   39.3813000000000         1.886201879046971E-120
   39.6207000000000         2.959250881125507E-120
   39.8601000000000         4.338478816735629E-120
   40.0995000000000         5.823214316530576E-120
   40.3389000000000         6.805565344111282E-120
   40.5783000000000         5.884592898941746E-120
   40.8177000000000         2.323691418540293E-121
   41.0571000000000        -1.537966663817355E-119
   41.2965000000000        -4.996148739747324E-119
   41.5359000000000        -1.180573686214836E-118
   41.7753000000000        -2.415766282751493E-118
   42.0147000000000        -4.508661648226821E-118
   42.2541000000000        -7.831813542986289E-118
   42.4935000000000        -1.275003917845366E-117
   42.7329000000000        -1.942002793217476E-117
   42.9723000000000        -2.736701024535348E-117
   43.2117000000000        -3.469317653786775E-117
   43.4511000000000        -3.672821153373225E-117
   43.6905000000000        -2.391508901825539E-117
   43.9299000000000         2.121468852527762E-117
   44.1693000000000         1.278931066423129E-116
   44.4087000000000         3.411731515265051E-116
   44.6481000000000         7.245236462333206E-116
   44.8875000000000         1.357496945065166E-115
   45.1269000000000         2.322228980165078E-115
   45.3663000000000         3.668685833951170E-115
   45.6057000000000         5.343948285226248E-115
   45.8451000000000         7.066493578841480E-115
   46.0845000000000         8.124807734946555E-115
   46.3239000000000         7.085226855356629E-115
   46.5633000000000         1.413954024618209E-115
   46.8027000000000        -1.293673007641639E-114
   47.0421000000000        -4.184460007150887E-114
   47.2815000000000        -9.296677723467342E-114
   47.5209000000000        -1.748559176922248E-113
   47.7603000000000        -2.945244495356809E-113
   47.9997000000000        -4.524669793918427E-113
   48.2391000000000        -6.339529639234576E-113
   48.4785000000000        -7.954511345038374E-113
   48.7179000000000        -8.456298289230329E-113
   48.9573000000000        -6.219070212539815E-113
   49.1967000000000         1.334748107894849E-113
   49.4361000000000         1.788847144286037E-112
   49.6755000000000         4.813540940200177E-112
   49.9149000000000         9.717145885421734E-112
   50.1543000000000         1.690052461650677E-111
   50.3937000000000         2.637243778206270E-111
   50.6331000000000         3.728402301081657E-111
   50.8725000000000         4.724834050157976E-111
   51.1119000000000         5.145675552606908E-111
   51.3513000000000         4.169425082772089E-111
   51.5907000000000         5.508495955464933E-112
   51.8301000000000        -7.398608034934064E-111
   52.0695000000000        -2.168921099981561E-110
   52.3089000000000        -4.427935820472526E-110
   52.5483000000000        -7.631141243073222E-110
   52.7877000000000        -1.168113516588511E-109
   53.0271000000000        -1.607457133934487E-109
   53.2665000000000        -1.964488175733668E-109
   53.5059000000000        -2.026744795473321E-109
   53.7453000000000        -1.459291725788632E-109
   53.9847000000000         2.066988583109745E-110
   54.2241000000000         3.550196563421830E-109
   54.4635000000000         9.173394456678544E-109
   54.7029000000000         1.751725811776256E-108
   54.9423000000000         2.854454959494500E-108
   55.1817000000000         4.126649952253043E-108
   55.4211000000000         5.312018397367562E-108
   55.6605000000000         5.926307282219099E-108
   55.8999000000000         5.194654852741887E-108
   56.1393000000000         2.026334874503585E-108
   56.3787000000000        -4.927487069129528E-108
   56.6181000000000        -1.707136820852087E-107
   56.8575000000000        -3.544685903036673E-107
   57.0969000000000        -6.003082742097031E-107
   57.3363000000000        -8.871751612507544E-107
   57.5757000000000        -1.160279557377439E-106
   57.8151000000000        -1.317258799414464E-106
   58.0545000000000        -1.197218522468723E-106
   58.2939000000000        -5.790969358760095E-107
   58.5333000000000         8.013374221958961E-107
   58.7727000000000         3.204200699727731E-106
   59.0121000000000         6.795762237255391E-106
   59.2515000000000         1.150732772702134E-105
   59.4909000000000         1.684307308180235E-105
   59.7303000000000         2.165483944775123E-105
   59.9697000000000         2.392951063860594E-105
   60.2091000000000         2.067157411861564E-105
   60.4485000000000         8.005413929385742E-106
   60.6879000000000        -1.834136349127049E-105
   60.9273000000000        -6.199822672877639E-105
   61.1667000000000        -1.242141891864720E-104
   61.4061000000000        -2.013936214924254E-104
   61.6455000000000        -2.820981312365774E-104
   61.8849000000000        -3.440558037611663E-104
   62.1243000000000        -3.521831120522463E-104
   62.3637000000000        -2.591406528596982E-104
   62.6031000000000        -1.037267666532113E-105
   62.8425000000000         4.443079342046053E-104
   63.0819000000000         1.131050169295081E-103
   63.3213000000000         2.024191651606209E-103
   63.5607000000000         3.013191743733607E-103
   63.8001000000000         3.871315443469784E-103
   64.0395000000000         4.238396399080366E-103
   64.2789000000000         3.635259314876017E-103
   64.5183000000000         1.530550589366834E-103
   64.7577000000000        -2.521296524507697E-103
   64.9971000000000        -8.663357528604038E-103
   65.2365000000000        -1.645727325545208E-102
   65.4759000000000        -2.459791173929815E-102
   65.7153000000000        -3.073019981801707E-102
   65.9547000000000        -3.153357720424200E-102
   66.1941000000000        -2.328066670335443E-102
   66.4335000000000        -3.069261342112878E-103
   66.6729000000000         2.917440735771046E-102
   66.9123000000000         6.806837396613830E-102
   67.1517000000000         1.001004131713866E-101
   67.3911000000000         1.020999039634526E-101
   67.6305000000000         4.278047844531118E-102
   67.8699000000000        -1.100740878851747E-101
   68.1093000000000        -3.740070697483144E-101
   68.3487000000000        -7.258932407827581E-101
   68.5881000000000        -1.066077255787644E-100
   68.8275000000000        -1.178107252730793E-100
   69.0669000000000        -6.973679448002705E-101
   69.3063000000000         8.875540785652007E-101
   69.5457000000000         4.165270037424403E-100
   69.7851000000000         9.619029523429570E-100
   70.0245000000000         1.728599357131062E-099
   70.2639000000000         2.623062279696575E-099
   70.5033000000000         3.385147922302836E-099
   70.7427000000000         3.512898264564811E-099
   70.9821000000000         2.205862473273193E-099
   71.2215000000000        -1.630394790220622E-099
   71.4609000000000        -9.255751036575819E-099
   71.7003000000000        -2.176360425246886E-098
   71.9397000000000        -3.946344871576353E-098
   72.1791000000000        -6.092154215275678E-098
   72.4185000000000        -8.167617913707802E-098
   72.6579000000000        -9.278378813603820E-098
   72.8973000000000        -7.957266841261381E-098
   73.1367000000000        -2.128092340685510E-098
   73.3761000000000         1.073981959310566E-097
   73.6155000000000         3.315269734765122E-097
   73.8549000000000         6.664185100192256E-097
   74.0943000000000         1.102208823109808E-096
   74.3337000000000         1.582247684472741E-096
   74.5731000000000         1.977003148509470E-096
   74.8125000000000         2.058394783102757E-096
   75.0519000000000         1.484026133406895E-096
   75.2913000000000        -1.936533873131309E-097
   75.5307000000000        -3.472648511093868E-096
   75.7701000000000        -8.776875581821863E-096
   76.0095000000000        -1.623866554045473E-095
   76.2489000000000        -2.537537435926794E-095
   76.4883000000000        -3.467109992122620E-095
   76.7277000000000        -4.111668834733613E-095
   76.9671000000000        -3.982406249744705E-095
   77.2065000000000        -2.391212735517293E-095
   77.4459000000000         1.504932883168307E-095
   77.6853000000000         8.567653141729362E-095
   77.9247000000000         1.941051394045494E-094
   78.1641000000000         3.397178856896641E-094
   78.4035000000000         5.092170383871641E-094
   78.6429000000000         6.694841613405252E-094
   78.8823000000000         7.604506318864690E-094
   79.1217000000000         6.902732092826386E-094
   79.3611000000000         3.363785463329703E-094
   79.6005000000000        -4.428232674688795E-094
   79.8399000000000        -1.779972567207560E-093
   80.0793000000000        -3.749259274325301E-093
   80.3187000000000        -6.292317214483455E-093
   80.5581000000000        -9.121488603054671E-093
   80.7975000000000        -1.161112584965672E-092
   81.0369000000000        -1.270029982147444E-092
   81.2763000000000        -1.084642415645663E-092
   81.5157000000000        -4.086787677543314E-093
   81.7551000000000         9.720414428200609E-093
   81.9945000000000         3.239904497279594E-092
   82.2339000000000         6.463964277103150E-092
   82.4733000000000         1.048478407396236E-091
   82.7127000000000         1.477247438877124E-091
   82.9521000000000         1.827827327816454E-091
   83.1915000000000         1.931840495663032E-091
   83.4309000000000         1.555063295609079E-091
   83.6703000000000         4.125117961582074E-092
   83.9097000000000        -1.789471211112626E-091
   84.1491000000000        -5.274828279933361E-091
   84.3885000000000        -1.007698926753258E-090
   84.6279000000000        -1.587701661151929E-090
   84.8673000000000        -2.181494451760880E-090
   85.1067000000000        -2.630738531500809E-090
   85.3461000000000        -2.692839028625063E-090
   85.5855000000000        -2.043663063347828E-090
   85.8249000000000        -3.054438606279042E-091
   86.0643000000000         2.888599104870025E-090
   86.3037000000000         7.782927247171287E-090
   86.5431000000000         1.433714304403552E-089
   86.7825000000000         2.201865686856763E-089
   87.0219000000000         2.957428072725789E-089
   87.2613000000000         3.482812104744676E-089
   87.5007000000000         3.458128547834033E-089
   87.7401000000000         2.471709362873823E-089
   87.9795000000000         6.359588222474382E-091
   88.2189000000000        -4.185436126239399E-089
   88.4583000000000        -1.050990900078731E-088
   88.6977000000000        -1.875935592393713E-088
   88.9371000000000        -2.815456643240315E-088
   89.1765000000000        -3.703426722336935E-088
   89.4159000000000        -4.265322975411343E-088
   89.6553000000000        -4.112296353760823E-088
   89.8947000000000        -2.761351639544457E-088
   90.1341000000000         3.049826577624201E-089
   90.3735000000000         5.527057191936300E-088
   90.6129000000000         1.309703767191865E-087
   90.8523000000000         2.273116524918937E-087
   91.0917000000000         3.340497074938401E-087
   91.3311000000000         4.309452250110915E-087
   91.5705000000000         4.859529743897107E-087
   91.8099000000000         4.551989294265003E-087
   92.0493000000000         2.859961039136297E-087
   92.2887000000000        -7.577213105022041E-088
   92.5281000000000        -6.727829785589024E-087
   92.7675000000000        -1.517442906001890E-086
   93.0069000000000        -2.567818208952264E-086
   93.2463000000000        -3.700881103219920E-086
   93.4857000000000        -4.688039861534294E-086
   93.7251000000000        -5.180699830217926E-086
   93.9645000000000        -4.716282050794323E-086
   94.2039000000000        -2.756964286850031E-086
   94.4433000000000         1.226616796117003E-086
   94.6827000000000         7.617580325950536E-086
   94.9221000000000         1.645927450654742E-085
   95.1615000000000         2.721715100533114E-085
   95.4009000000000         3.852562479573092E-085
   95.6403000000000         4.797268396280289E-085
   95.8797000000000         5.200026840038367E-085
   96.1191000000000         4.602086615360371E-085
   96.3585000000000         2.486302459923050E-085
   96.5979000000000        -1.634903296183016E-085
   96.8373000000000        -8.081460744324784E-085
   97.0767000000000        -1.681864625466876E-084
   97.3161000000000        -2.723501460172885E-084
   97.5555000000000        -3.791653324549239E-084
   97.7949000000000        -4.646908755741477E-084
   98.0343000000000        -4.946309506788064E-084
   98.2737000000000        -4.259141345016713E-084
   98.5131000000000        -2.113825784859571E-084
   98.7525000000000         1.915595521832556E-084
   98.9919000000000         8.079006862952291E-084
   99.2313000000000         1.627915250633726E-083
   99.4707000000000         2.587507722764456E-083
   99.7101000000000         3.549068017743738E-083
   99.9495000000000         4.287683633931797E-083
   100.188900000000         4.489297936843367E-083
   100.428300000000         3.768670601994373E-083
   100.667700000000         1.715194847520759E-083
   100.907100000000        -2.026942931379435E-083
   101.146500000000        -7.641822444855983E-083
   101.385900000000        -1.499271511670474E-082
   101.625300000000        -2.345584019540287E-082
   101.864700000000        -3.176501822586089E-082
   102.104100000000        -3.790981860030035E-082
   102.343500000000        -3.914325122035701E-082
   102.582900000000        -3.216367702772392E-082
   102.822300000000        -1.353453145160534E-082
   103.061700000000         1.961087766183102E-082
   103.301100000000         6.856915900122598E-082
   103.540500000000         1.318221745089064E-081
   103.779900000000         2.036850164219721E-081
   104.019300000000         2.730897479823340E-081
   104.258700000000         3.228616073388638E-081
   104.498100000000         3.299441913548771E-081
   104.737500000000         2.670855484352090E-081
   104.976900000000         1.064696234624635E-081
   105.216300000000        -1.743751026433173E-081
   105.455700000000        -5.843742505197742E-081
   105.695100000000        -1.108902192814533E-080
   105.934500000000        -1.699149847287881E-080
   106.173900000000        -2.262868135369190E-080
   106.413300000000        -2.659347270642068E-080
   106.652700000000        -2.702209927873599E-080
   106.892100000000        -2.173935038309652E-080
   107.131500000000        -8.556962560877684E-081
   107.370900000000         1.425215308730554E-080
   107.610300000000         4.730681027964367E-080
   107.849700000000         8.934021129108679E-080
   108.089100000000         1.363879307558049E-079
   108.328500000000         1.810988622443241E-079
   108.567900000000         2.123896426117185E-079
   108.807300000000         2.157134604018704E-079
   109.046700000000         1.742340775987417E-079
   109.286100000000         7.116391883584414E-080
   109.525500000000        -1.065809290250689E-079
   109.764900000000        -3.634544558315752E-079
   110.004300000000        -6.894285458310342E-079
   110.243700000000        -1.053952842292385E-078
   110.483100000000        -1.400917360349844E-078
   110.722500000000        -1.646257523008888E-078
   110.961900000000        -1.680188269380361E-078
   111.201300000000        -1.376168440540157E-078
   111.440700000000        -6.084264669012501E-079
   111.680100000000         7.209302191564709E-079
   111.919500000000         2.645669702700991E-078
   112.158900000000         5.092682914914929E-078
   112.398300000000         7.838170937840108E-078
   112.637700000000         1.047142577848786E-077
   112.877100000000         1.237798668245388E-077
   113.116500000000         1.275630389499583E-077
   113.355900000000         1.068269794096002E-077
   113.595300000000         5.237313759770156E-078
   113.834700000000        -4.302104382374480E-078
   114.074100000000        -1.820225371668593E-077
   114.313500000000        -3.597109270775810E-077
   114.552900000000        -5.604800104054788E-077
   114.792300000000        -7.554791334100180E-077
   115.031700000000        -9.014134026338585E-077
   115.271100000000        -9.416784727525027E-077
   115.510500000000        -8.108437489748842E-077
   115.749900000000        -4.433470410709045E-077
   115.989300000000         2.131446150701124E-077
   116.228700000000         1.179970601462671E-076
   116.468100000000         2.426612724695751E-076
   116.707500000000         3.849356768780069E-076
   116.946900000000         5.253581847586358E-076
   117.186300000000         6.345191846302730E-076
   117.425700000000         6.737728037726207E-076
   117.665100000000         5.981929396318610E-076
   117.904500000000         3.623477565643574E-076
   118.143900000000        -7.080640905409657E-077
   118.383300000000        -7.180856301398040E-076
   118.622700000000        -1.562152143111854E-075
   118.862100000000        -2.537224066354122E-075
   119.101500000000        -3.517104696265028E-075
   119.340900000000        -4.309128233769280E-075
   119.580300000000        -4.658276245621579E-075
   119.819700000000        -4.265858315625394E-075
   120.059100000000        -2.826479779055440E-075
   120.298500000000        -8.526288453293783E-077
   120.537900000000         4.085752808084212E-075
   120.777300000000         9.597470137162212E-075
   121.016700000000         1.605077940092892E-074
   121.256100000000         2.265779063094961E-074
   121.495500000000         2.820000892850203E-074
   121.734900000000         3.105033448643496E-074
   121.974300000000         2.928663350249829E-074
   122.213700000000         2.092043156338926E-074
   122.453100000000         4.253339660642451E-075
   122.692500000000        -2.164505276180712E-074
   122.931900000000        -5.637109863109928E-074
   123.171300000000        -9.759996174013809E-074
   123.410700000000        -1.405819641444153E-073
   123.650100000000        -1.778622741615219E-073
   123.889500000000        -1.993891008091312E-073
   124.128900000000        -1.931809504238546E-073
   124.368300000000        -1.466981641108268E-073
   124.607700000000        -4.899782665411179E-074
   124.847100000000         1.063627575364351E-073
   125.086500000000         3.178715101033785E-073
   125.325900000000         5.724568912764600E-073
   125.565300000000         8.423583930754195E-073
   125.804700000000         1.083309264044279E-072
   126.044100000000         1.235020343158618E-072
   126.283500000000         1.224987385810440E-072
   126.522900000000         9.764959244555777E-073
   126.762300000000         4.213087792105422E-073
   127.001700000000        -4.831484460462329E-073
   127.241100000000        -1.733244331404545E-072
   127.480500000000        -3.257575603014430E-072
   127.719900000000        -4.898028480564229E-072
   127.959300000000        -6.398359913760810E-072
   128.198700000000        -7.406085271128705E-072
   128.438100000000        -7.493667516504463E-072
   128.677500000000        -6.204160110629849E-072
   128.916900000000        -3.124225024245527E-072
   129.156300000000         2.016401188258243E-072
   129.395700000000         9.225414030179226E-072
   129.635100000000         1.812170582003092E-071
   129.874500000000         2.782324367009444E-071
   130.113900000000         3.687707707751057E-071
   130.353300000000         4.326468630381007E-071
   130.592700000000         4.451719775256474E-071
   130.832100000000         3.797035827607833E-071
   131.071500000000         2.117667203791594E-071
   131.310900000000        -7.529539605454094E-072
   131.550300000000        -4.834936174640889E-071
   131.789700000000        -9.929276985756080E-071
   132.029100000000        -1.555252184977581E-070
   132.268500000000        -2.089449430072832E-070
   132.507900000000        -2.481785629173842E-070
   132.747300000000        -2.591911104708211E-070
   132.986700000000        -2.266821465068396E-070
   133.226100000000        -1.363714985878987E-070
   133.465500000000         2.184101594633783E-071
   133.704900000000         2.500289239069637E-070
   133.944300000000         5.381080986437764E-070
   134.183700000000         8.600637248711933E-070
   134.423100000000         1.171407546750659E-069
   134.662500000000         1.408910649064584E-069
   134.901900000000         1.493714352171737E-069
   135.141300000000         1.338799841644009E-069
   135.380700000000         8.614365139801946E-070
   135.620100000000         5.876147306291114E-073
   135.859500000000        -1.261679536122318E-069
   136.098900000000        -2.876912088441272E-069
   136.338300000000        -4.708577263836480E-069
   136.577700000000        -6.516703063707745E-069
   136.817100000000        -7.954602467793859E-069
   137.056500000000        -8.583824504569956E-069
   137.295900000000        -7.912918053047135E-069
   137.535300000000        -5.463755512743680E-069
   137.774700000000        -8.658020088775723E-070
   138.014100000000         6.026239483976757E-069
   138.253500000000         1.500233706698055E-068
   138.492900000000         2.537275804330101E-068
   138.732300000000         3.587476399261115E-068