  -1.79550000000000         0.000000000000000E+000
  -1.55610000000000         0.000000000000000E+000
  -1.31670000000000         0.000000000000000E+000
  -1.07730000000000         0.000000000000000E+000
 -0.837900000000000         0.000000000000000E+000
 -0.598500000000000         0.000000000000000E+000
 -0.359100000000000         0.000000000000000E+000
 -0.119700000000000         0.000000000000000E+000
  0.119700000000000         0.000000000000000E+000
  0.359100000000000         0.000000000000000E+000
  0.598500000000000         0.000000000000000E+000
  0.837900000000000         0.000000000000000E+000
   1.07730000000000         0.000000000000000E+000
   1.31670000000000         0.000000000000000E+000
   1.55610000000000         0.000000000000000E+000
   1.79550000000000         0.000000000000000E+000
   2.03490000000000         0.000000000000000E+000
   2.27430000000000         0.000000000000000E+000
   2.51370000000000         0.000000000000000E+000
   2.75310000000000         0.000000000000000E+000
   2.99250000000000         0.000000000000000E+000
   3.23190000000000         0.000000000000000E+000
   3.47130000000000         0.000000000000000E+000
   3.71070000000000         0.000000000000000E+000
   3.95010000000000         0.000000000000000E+000
   4.18950000000000         0.000000000000000E+000
   4.42890000000000         0.000000000000000E+000
   4.66830000000000         0.000000000000000E+000
   4.90770000000000         0.000000000000000E+000
   5.14710000000000         0.000000000000000E+000
   5.38650000000000         0.000000000000000E+000
   5.62590000000000         0.000000000000000E+000
   5.86530000000000         0.000000000000000E+000
   6.10470000000000         0.000000000000000E+000
   6.34410000000000         0.000000000000000E+000
   6.58350000000000         0.000000000000000E+000
   6.82290000000000         0.000000000000000E+000
   7.06230000000000         4.949345657203747E-159
   7.30170000000000        -2.706637011223663E-151
   7.54110000000000         3.892929065695756E-146
   7.78050000000000         1.600713933416079E-144
   8.01990000000000         9.108075998155301E-143
   8.25930000000000         4.703901299296209E-141
   8.49870000000000         1.620284533616381E-139
   8.73810000000000         3.968554398824601E-138
   8.97750000000000         7.470202021256662E-137
   9.21690000000000         1.140576711724934E-135
   9.45630000000000         1.465156537052375E-134
   9.69570000000000         1.624419068530033E-133
   9.93510000000000         1.583356190891574E-132
   10.1745000000000         1.375566921637962E-131
   10.4139000000000         1.076273813053651E-130
   10.6533000000000         7.644556844579120E-130
   10.8927000000000         4.958856554858162E-129
   11.1321000000000         2.950554835314050E-128
   11.3715000000000         1.614840594540217E-127
   11.6109000000000         8.138270207450931E-127
   11.8503000000000         3.772749710896907E-126
   12.0897000000000         1.602136593791795E-125
   12.3291000000000         6.173433761879681E-125
   12.5685000000000         2.114818131108773E-124
   12.8079000000000         6.136774644089283E-124
   13.0473000000000         1.293362621581557E-123
   13.2867000000000         2.926554209774662E-124
   13.5261000000000        -1.647372884924428E-122
   13.7655000000000        -1.200176887519523E-121
   14.0049000000000        -6.110233826948743E-121
   14.2443000000000        -2.618194059628565E-120
   14.4837000000000        -9.980648601032934E-120
   14.7231000000000        -3.463414543962451E-119
   14.9625000000000        -1.105257173498011E-118
   15.2019000000000        -3.254130492047098E-118
   15.4413000000000        -8.820312429903299E-118
   15.6807000000000        -2.182927143017014E-117
   15.9201000000000        -4.845720401725199E-117
   16.1595000000000        -9.287954153121457E-117
   16.3989000000000        -1.394936661668173E-116
   16.6383000000000        -1.064489478900449E-116
   16.8777000000000         2.237750646932083E-116
   17.1171000000000         1.126966692880020E-115
   17.3565000000000         1.831196571308941E-115
   17.5959000000000        -4.982150602818091E-115
   17.8353000000000        -5.402658129131331E-114
   18.0747000000000        -2.756454875489861E-113
   18.3141000000000        -1.097515997776829E-112
   18.5535000000000        -3.794772327941295E-112
   18.7929000000000        -1.188953709862593E-111
   19.0323000000000        -3.448776576959720E-111
   19.2717000000000        -9.373207826623874E-111
   19.5111000000000        -2.402881193198961E-110
   19.7505000000000        -5.827439378518948E-110
   19.9899000000000        -1.336351787432053E-109
   20.2293000000000        -2.884253665638509E-109
   20.4687000000000        -5.792355011657216E-109
   20.7081000000000        -1.055374348191812E-108
   20.9475000000000        -1.638107196739880E-108
   21.1869000000000        -1.721151398091613E-108
   21.4263000000000         9.609968201612027E-109
   21.6657000000000         1.323931585415991E-107
   21.9051000000000         5.343125963135423E-107
   22.1445000000000         1.667678968312648E-106
   22.3839000000000         4.576562823974668E-106
   22.6233000000000         1.152791056771019E-105
   22.8627000000000         2.715594166194899E-105
   23.1021000000000         6.034869191201932E-105
   23.3415000000000         1.269550699205830E-104
   23.5809000000000         2.527659627217152E-104
   23.8203000000000         4.745498480658200E-104
   24.0597000000000         8.332602690712992E-104
   24.2991000000000         1.346619960213998E-103
   24.5385000000000         1.937022525311793E-103
   24.7779000000000         2.275521265388484E-103
   25.0173000000000         1.488537374067500E-103
   25.2567000000000        -2.324747642649857E-103
   25.4961000000000        -1.276919676542609E-102
   25.7355000000000        -3.588619573900973E-102
   25.9749000000000        -8.050118095681160E-102
   26.2143000000000        -1.572510058534615E-101
   26.4537000000000        -2.747704371647711E-101
   26.6931000000000        -4.312924746256310E-101
   26.9325000000000        -6.012066731780028E-101
   27.1719000000000        -7.212219416149024E-101
   27.4113000000000        -6.934518424397394E-101
   27.6507000000000        -4.477994440325747E-101
   27.8901000000000        -1.471213694655769E-101
   28.1295000000000        -6.724857032544649E-101
   28.3689000000000        -4.570644858550044E-100
   28.6083000000000        -1.762295258610975E-099
   28.8477000000000        -5.098545290104368E-099
   29.0871000000000        -1.232564613630679E-098
   29.3265000000000        -2.605862655084234E-098
   29.5659000000000        -4.908070399424724E-098
   29.8053000000000        -8.245230676222516E-098
   30.0447000000000        -1.212819989136512E-097
   30.2841000000000        -1.469695346174510E-097
   30.5235000000000        -1.151498155619859E-097
   30.7629000000000         5.979314841878354E-098
   31.0023000000000         5.190975754009697E-097
   31.2417000000000         1.461988165422265E-096
   31.4811000000000         3.116437507285318E-096
   31.7205000000000         5.650260245747758E-096
   31.9599000000000         8.992822529160362E-096
   32.1993000000000         1.255475159157056E-095
   32.4387000000000         1.488544078040396E-095
   32.6781000000000         1.341102787302061E-095
   32.9175000000000         4.547047337759504E-096
   33.1569000000000        -1.536805211210462E-095
   33.3963000000000        -4.785764058794704E-095
   33.6357000000000        -8.874523479354623E-095
   33.8751000000000        -1.244150029898333E-094
   34.1145000000000        -1.316321313702770E-094
   34.3539000000000        -8.885351286892037E-095
   34.5933000000000        -1.222722903789129E-095
   34.8327000000000        -3.335701005273749E-095
   35.0721000000000        -5.325073962340112E-094
   35.3115000000000        -2.319400653868940E-093
   35.5509000000000        -6.797805589502824E-093
   35.7903000000000        -1.594060739028346E-092
   36.0297000000000        -3.172604170222108E-092
   36.2691000000000        -5.445613045729630E-092
   36.5085000000000        -7.916747329272251E-092
   36.7479000000000        -8.933215218989248E-092
   36.9873000000000        -4.757194717481981E-092
   37.2267000000000         1.152986900643172E-091
   37.4661000000000         5.082530908288633E-091
   37.7055000000000         1.274723544627344E-090
   37.9449000000000         2.555517233367311E-090
   38.1843000000000         4.392302874738964E-090
   38.4237000000000         6.537617832088836E-090
   38.6631000000000         8.141955511337788E-090
   38.9025000000000         7.317625322778381E-090
   39.1419000000000         6.515203470486435E-091
   39.3813000000000        -1.712463963112089E-089
   39.6207000000000        -5.288409475618294E-089
   39.8601000000000        -1.135720468068735E-088
   40.0995000000000        -2.024034540646738E-088
   40.3389000000000        -3.116690326201007E-088
   40.5783000000000        -4.113119572598585E-088
   40.8177000000000        -4.335571170807846E-088
   41.0571000000000        -2.563443396751484E-088
   41.2965000000000         3.073810131480939E-088
   41.5359000000000         1.501175797034319E-087
   41.7753000000000         3.576442114257034E-087
   42.0147000000000         6.675862126015821E-087
   42.2541000000000         1.061968858791798E-086
   42.4935000000000         1.457677250443494E-086
   42.7329000000000         1.663601562012694E-086
   42.9723000000000         1.336166364998377E-086
   43.2117000000000        -4.741676508650091E-088
   43.4511000000000        -3.163813048561052E-086
   43.6905000000000        -8.715090404236483E-086
   43.9299000000000        -1.713357150076665E-085
   44.1693000000000        -2.805893732348308E-085
   44.4087000000000        -3.956002732375712E-085
   44.6481000000000        -4.715851356149765E-085
   44.8875000000000        -4.286705807038532E-085
   45.1269000000000        -1.468989365456712E-085
   45.3663000000000         5.266763030106041E-085
   45.6057000000000         1.748354658821151E-084
   45.8451000000000         3.613504088428106E-084
   46.0845000000000         6.047371324840532E-084
   46.3239000000000         8.649087085122963E-084
   46.5633000000000         1.050518819902596E-083
   46.8027000000000         1.001972038327078E-083
   47.0421000000000         4.851297179323969E-084
   47.2815000000000        -7.901928947304184E-084
   47.5209000000000        -3.108453532958265E-083
   47.7603000000000        -6.623692012238934E-083
   47.9997000000000        -1.115820362816596E-082
   48.2391000000000        -1.592869376192887E-082
   48.4785000000000        -1.923856775463992E-082
   48.7179000000000        -1.822896936053826E-082
   48.9573000000000        -8.851996744843619E-083
   49.1967000000000         1.369490489651359E-082
   49.4361000000000         5.378027138168998E-082
   49.6755000000000         1.131136615670916E-081
   49.9149000000000         1.873396358499953E-081
   50.1543000000000         2.616399047344095E-081
   50.3937000000000         3.061254084854972E-081
   50.6331000000000         2.726707595377834E-081
   50.8725000000000         9.592100700206331E-082
   51.1119000000000        -2.977376290926221E-081
   51.3513000000000        -9.688398389378314E-081
   51.5907000000000        -1.927254073503703E-080
   51.8301000000000        -3.077026413773995E-080
   52.0695000000000        -4.147944147928122E-080
   52.3089000000000        -4.627576201897534E-080
   52.5483000000000        -3.721009800490397E-080
   52.7877000000000        -3.817127948485268E-081
   53.0271000000000         6.527569936100168E-080
   53.2665000000000         1.787678481618708E-079
   53.5059000000000         3.365554872918914E-079
   53.7453000000000         5.208744295581277E-079
   53.9847000000000         6.854004398199819E-079
   54.2241000000000         7.444388075942846E-079
   54.4635000000000         5.664043155124039E-079
   54.7029000000000        -2.167344665210752E-080
   54.9423000000000        -1.209362461525523E-078
   55.1817000000000        -3.146922728146502E-078
   55.4211000000000        -5.848303162138712E-078
   55.6605000000000        -9.048410588764790E-078
   55.8999000000000        -1.202230289244630E-077
   56.1393000000000        -1.339549558081274E-077
   56.3787000000000        -1.100662436066698E-077
   56.6181000000000        -1.924996048735625E-078
   56.8575000000000         1.722975573788058E-077
   57.0969000000000         4.948339015875847E-077
   57.3363000000000         9.603163543344311E-077
   57.5757000000000         1.539665960678830E-076
   57.8151000000000         2.132419152399056E-076
   58.0545000000000         2.532256551958125E-076
   58.2939000000000         2.396831673360391E-076
   58.5333000000000         1.237072472861153E-076
   58.7727000000000        -1.550951016191541E-076
   59.0121000000000        -6.581115367049398E-076
   59.2515000000000        -1.426515106325689E-075
   59.4909000000000        -2.446426604951278E-075
   59.7303000000000        -3.599581368825597E-075
   59.9697000000000        -4.602984970027767E-075
   60.2091000000000        -4.948388580122493E-075
   60.4485000000000        -3.863029370348833E-075
   60.6879000000000        -3.263255267270639E-076
   60.9273000000000         6.809114280558474E-075
   61.1667000000000         1.853419419093827E-074
   61.4061000000000         3.518155868620127E-074
   61.6455000000000         5.567263026490550E-074
   61.8849000000000         7.653827730674971E-074
   62.1243000000000         9.084151574373421E-074
   62.3637000000000         8.728724736589302E-074
   62.6031000000000         5.000837656064899E-074
   62.8425000000000        -4.025740886591708E-074
   63.0819000000000        -2.027001661507427E-073
   63.3213000000000        -4.497347212499676E-073
   63.5607000000000        -7.763602457311169E-073
   63.8001000000000        -1.145592580915100E-072
   64.0395000000000        -1.471345882210397E-072
   64.2789000000000        -1.602287688175497E-072
   64.5183000000000        -1.313092101849516E-072
   64.7577000000000        -3.128556769761285E-073
   64.9971000000000         1.716528637113789E-072
   65.2365000000000         5.037838221102990E-072
   65.4759000000000         9.719784231286143E-072
   65.7153000000000         1.543820076270579E-071
   65.9547000000000         2.123006367381425E-071
   66.1941000000000         2.524058105021701E-071
   66.4335000000000         2.454162318042327E-071
   66.6729000000000         1.514511734746015E-071
   66.9123000000000        -7.621014227271534E-072
   67.1517000000000        -4.818009456682363E-071
   67.3911000000000        -1.090371899149229E-070
   67.6305000000000        -1.882790479635676E-070
   67.8699000000000        -2.763407969845638E-070
   68.1093000000000        -3.524600452838393E-070
   68.3487000000000        -3.817014160247936E-070
   68.5881000000000        -3.140033745302119E-070
   68.8275000000000        -8.727975287617711E-071
   69.0669000000000         3.629771352588274E-070
   69.3063000000000         1.085168866222804E-069
   69.5457000000000         2.082535780060168E-069
   69.7851000000000         3.273985263191387E-069
   70.0245000000000         4.448766621471127E-069
   70.2639000000000         5.224183938391797E-069
   70.5033000000000         5.022161577750473E-069
   70.7427000000000         3.087546547533439E-069
   70.9821000000000        -1.423307541209683E-069
   71.2215000000000        -9.253784969638333E-069
   71.4609000000000        -2.073504831971795E-068
   71.7003000000000        -3.534733983411849E-068
   71.9397000000000        -5.118719362393524E-068
   72.1791000000000        -6.442818093052223E-068
   72.4185000000000        -6.893455368707471E-068
   72.6579000000000        -5.626694167691917E-068
   72.8973000000000        -1.638912498326415E-068
   73.1367000000000         6.058404775646586E-068
   73.3761000000000         1.813047557155650E-067
   73.6155000000000         3.446551988807187E-067
   73.8549000000000         5.359747942621261E-067
   74.0943000000000         7.208074737240353E-067
   74.3337000000000         8.396476323087498E-067
   74.5731000000000         8.059990901315789E-067
   74.8125000000000         5.108493656670534E-067
   75.0519000000000        -1.628656924382700E-067
   75.2913000000000        -1.312448077589443E-066
   75.5307000000000        -2.972270322313929E-066
   75.7701000000000        -5.056192885401092E-066
   76.0095000000000        -7.291354028770351E-066
   76.2489000000000        -9.155878881464210E-066
   76.4883000000000        -9.841177282994150E-066
   76.7277000000000        -8.267656621132552E-066
   76.9671000000000        -3.188568629752639E-066
   77.2065000000000         6.582962627381392E-066
   77.4459000000000         2.179799986312135E-065
   77.6853000000000         4.224442132463475E-065
   77.9247000000000         6.610607074355945E-065
   78.1641000000000         8.930498912123978E-065
   78.4035000000000         1.049964835915405E-064
   78.6429000000000         1.034644837463802E-064
   78.8823000000000         7.272850558563921E-065
   79.1217000000000         1.964240837924461E-067
   79.3611000000000        -1.243554157674598E-064
   79.6005000000000        -3.043589544416901E-064
   79.8399000000000        -5.307832393977459E-064
   80.0793000000000        -7.758812801812926E-064
   80.3187000000000        -9.876324545604062E-064
   80.5581000000000        -1.086840550470490E-063
   80.7975000000000        -9.694655949356027E-064
   81.0369000000000        -5.171127721463986E-064
   81.2763000000000         3.815995908073215E-064
   81.5157000000000         1.797127226472059E-063
   81.7551000000000         3.713071738839147E-063
   81.9945000000000         5.972268894705772E-063
   82.2339000000000         8.223668184211598E-063
   82.4733000000000         9.884325670793667E-063
   82.7127000000000         1.013625541786399E-062
   82.9521000000000         7.981691888114546E-063
   83.1915000000000         2.380480770079679E-063
   83.4309000000000        -7.512532326837986E-063
   83.6703000000000        -2.200642612105136E-062
   83.9097000000000        -4.044989916789126E-062
   84.1491000000000        -6.077841051760282E-062
   84.3885000000000        -7.912930670097671E-062
   84.6279000000000        -8.966511700897962E-062
   84.8673000000000        -8.478063280809160E-062
   85.1067000000000        -5.588254444510646E-062
   85.3461000000000         5.095803241551610E-063
   85.5855000000000         1.033652004064784E-061
   85.8249000000000         2.382118765622842E-061
   86.0643000000000         3.994944682061925E-061
   86.3037000000000         5.643065535208961E-061
   86.5431000000000         6.947297568587407E-061
   86.7825000000000         7.378954888455716E-061
   87.0219000000000         6.297426032168431E-061
   87.2613000000000         3.037876417134952E-061
   87.5007000000000        -2.942118714550002E-061
   87.7401000000000        -1.185732769129487E-060
   87.9795000000000        -2.334578657040283E-060
   88.2189000000000        -3.621011582846654E-060
   88.4583000000000        -4.820604864751917E-060
   88.6977000000000        -5.595711141614660E-060
   88.9371000000000        -5.509040719819065E-060
   89.1765000000000        -4.069092761577152E-060
   89.4159000000000        -8.152311700239717E-061
   89.6553000000000         4.554753584533009E-060
   89.8947000000000         1.202024761179675E-059
   90.1341000000000         2.105426983237035E-059
   90.3735000000000         3.045321080118742E-059
   90.6129000000000         3.822776713885338E-059
   90.8523000000000         4.161596152586266E-059
   91.0917000000000         3.728512105594752E-059
   91.3311000000000         2.178331669610127E-059
   91.5705000000000        -7.723409040770968E-060
   91.8099000000000        -5.243799739461992E-059
   92.0493000000000        -1.107234441236814E-058
   92.2887000000000        -1.768684131327597E-058
   92.5281000000000        -2.400992091537195E-058
   92.7675000000000        -2.842047277019337E-058
   93.0069000000000        -2.882036580447624E-058
   93.2463000000000        -2.284815963116579E-058
   93.4857000000000        -8.272495641332389E-059
   93.7251000000000         1.642524482556091E-058
   93.9645000000000         5.130736956041527E-058
   94.2039000000000         9.415593978598697E-058
   94.4433000000000         1.397113172705930E-057
   94.6827000000000         1.791797839561084E-057
   94.9221000000000         2.002683824097137E-057
   95.1615000000000         1.880263515894281E-057
   95.4009000000000         1.267424422531181E-057
   95.6403000000000         3.045378922106015E-059
   95.8797000000000        -1.898346473056555E-057
   96.1191000000000        -4.469664376909559E-057
   96.3585000000000        -7.464615101313512E-057
   96.5979000000000        -1.045139706891100E-056
   96.8373000000000        -1.276564427039887E-056
   97.0767000000000        -1.353140304286522E-056
   97.3161000000000        -1.173968844875261E-056
   97.5555000000000        -6.397913442086626E-057
   97.7949000000000         3.244979809280389E-057
   98.0343000000000         1.740676452866616E-056
   98.2737000000000         3.544177138674440E-056
   98.5131000000000         5.552348653637707E-056
   98.7525000000000         7.441480434669585E-056
   98.9919000000000         8.742070060289609E-056
   99.2313000000000         8.862787682148168E-056
   99.4707000000000         7.152844297071908E-056
   99.7101000000000         3.009282892505969E-056
   99.9495000000000        -3.970468354003129E-056
   100.188900000000        -1.379981118458684E-055
   100.428300000000        -2.589917589189208E-055
   100.667700000000        -3.891226983504219E-055
   100.907100000000        -5.059089637693483E-055
   101.146500000000        -5.780692715945955E-055
   101.385900000000        -5.675292240578459E-055
   101.625300000000        -4.338453836237379E-055
   101.864700000000        -1.413443816848902E-055
   102.104100000000         3.311361802974086E-055
   102.343500000000         9.786066499476889E-055
   102.582900000000         1.757818371054810E-054
   102.822300000000         2.576923041529323E-054
   103.061700000000         3.289863368477572E-054
   103.301100000000         3.698948449432069E-054
   103.540500000000         3.569095983596327E-054
   103.779900000000         2.656567005772785E-054
   104.019300000000         7.534825260909390E-055
   104.258700000000        -2.253115927808812E-054
   104.498100000000        -6.312384742696730E-054
   104.737500000000        -1.113990179733771E-053
   104.976900000000        -1.616035044117746E-053
   105.216300000000        -2.047990754360068E-053
   105.455700000000        -2.290791095721752E-053
   105.695100000000        -2.204697510964968E-053
   105.934500000000        -1.646638615487112E-053
   106.173900000000        -4.964364068772664E-054
   106.413300000000         1.308984374238869E-053
   106.652700000000         3.736272193208062E-053
   106.892100000000         6.616397760939906E-053
   107.131500000000         9.613053892768492E-053
   107.370900000000         1.220831852639884E-052
   107.610300000000         1.371632191060778E-052
   107.849700000000         1.333525559393309E-052
   108.089100000000         1.024550906307186E-052
   108.328500000000         3.756534325518698E-053
   108.567900000000        -6.502985062543850E-053
   108.807300000000        -2.036770656397624E-052
   109.046700000000        -3.691937552611122E-052
   109.286100000000        -5.431279422881541E-052
   109.525500000000        -6.969564716137104E-052
   109.764900000000        -7.927949878713671E-052
   110.004300000000        -7.861683093017409E-052
   110.243700000000        -6.312527188051003E-052
   110.483100000000        -2.887276739740847E-052
   110.722500000000         2.640459536707595E-052
   110.961900000000         1.021357441004311E-051
   111.201300000000         1.937466835302144E-051
   111.440700000000         2.917047459440619E-051
   111.680100000000         3.810432447163235E-051
   111.919500000000         4.416647138169129E-051
   112.158900000000         4.497096707914002E-051
   112.398300000000         3.802096445357733E-051
   112.637700000000         2.111059098729060E-051
   112.877100000000        -7.149587793492845E-052
   113.116500000000        -4.672437221176661E-051
   113.355900000000        -9.553635322984800E-051
   113.595300000000        -1.489455611696466E-050
   113.834700000000        -1.994613071761864E-050
   114.074100000000        -2.368375259422738E-050
   114.313500000000        -2.486992390572816E-050
   114.552900000000        -2.218162440743741E-050
   114.792300000000        -1.440746785370679E-050
   115.031700000000        -7.095059288210030E-052
   115.271100000000         1.906905223629607E-050
   115.510500000000         4.408493188480461E-050
   115.749900000000         7.221600425192018E-050
   115.989300000000         9.988842248968339E-050
   116.228700000000         1.220844872078002E-049
   116.468100000000         1.326057006726698E-049
   116.707500000000         1.246519752686499E-049
   116.946900000000         9.174825843458749E-050
   117.186300000000         2.900243255701552E-050
   117.425700000000        -6.538577477168003E-050
   117.665100000000        -1.885216928326372E-049
   117.904500000000        -3.313560572952116E-049
   118.143900000000        -4.776792760391072E-049
   118.383300000000        -6.039291337732486E-049
   118.622700000000        -6.801786550618638E-049
   118.862100000000        -6.726180375958190E-049
   119.101500000000        -5.477166266137178E-049
   119.340900000000        -2.780395202180588E-049
   119.580300000000         1.505987755709628E-049
   119.819700000000         7.313166819453346E-049
   120.059100000000         1.428740416667736E-048
   120.298500000000         2.173385510881066E-048
   120.537900000000         2.859519806729107E-048
   120.777300000000         3.348264181444581E-048
   121.016700000000         3.477504795040218E-048
   121.256100000000         3.079671183747274E-048
   121.495500000000         2.007533027426684E-048
   121.734900000000         1.668866118840189E-049
   121.974300000000        -2.446593905120837E-048
   122.213700000000        -5.710830811490942E-048
   122.453100000000        -9.347339411571701E-048
   122.692500000000        -1.290528338347298E-047
   122.931900000000        -1.576773450945064E-047
   123.171300000000        -1.718777786201054E-047
   123.410700000000        -1.636014098997577E-047
   123.650100000000        -1.253037054742427E-047
   123.889500000000        -5.138188042867894E-048
   124.128900000000         6.015246500239973E-048
   124.368300000000         2.059428862826653E-047
   124.607700000000         3.757598601534644E-047
   124.847100000000         5.515010625473519E-047
   125.086500000000         7.070845927004485E-047
   125.325900000000         8.095928582514031E-047
   125.565300000000         8.219575342427210E-047
   125.804700000000         7.073364102364604E-047
   126.044100000000         4.351167141120522E-047
   126.283500000000        -1.180687981497791E-048
   126.522900000000        -6.291677002234259E-047
   126.762300000000        -1.383914790276361E-046
   127.001700000000        -2.208605645292561E-046
   127.241100000000        -2.999170242293756E-046
   127.480500000000        -3.617654791264824E-046
   127.719900000000        -3.901355234809922E-046
   127.959300000000        -3.679255623462926E-046
   128.198700000000        -2.795866155886392E-046
   128.438100000000        -1.141422195587331E-046
   128.677500000000         1.313974747782891E-046
   128.916900000000         4.486191269064403E-046
   129.156300000000         8.148211276749381E-046
   129.395700000000         1.191303642087242E-045
   129.635100000000         1.523525672255665E-045
   129.874500000000         1.743778601044341E-045
   130.113900000000         1.776867051206596E-045
   130.353300000000         1.548996775327844E-045
   130.592700000000         9.996442730440161E-046
   130.832100000000         9.564278949656549E-047
   131.071500000000        -1.153892482616438E-045
   131.310900000000        -2.683791504490287E-045
   131.550300000000        -4.362723534643108E-045
   131.789700000000        -5.989593382050855E-045
   132.029100000000        -7.299273215962179E-045
   132.268500000000        -7.980069296492306E-045
   132.507900000000        -7.704374253230023E-045
   132.747300000000        -6.172460373235737E-045
   132.986700000000        -3.167368209988479E-045
   133.226100000000         1.383531552290039E-045
   133.465500000000         7.347245174755966E-045
   133.704900000000         1.433340715380043E-044
   133.944300000000         2.166308372012003E-044
   134.183700000000         2.836980790547532E-044
   134.423100000000         3.324368020594588E-044
   134.662500000000         3.492662715618960E-044
   134.901900000000         3.206204944804190E-044
   135.141300000000         2.349513061516677E-044
   135.380700000000         8.511353357536529E-045
   135.620100000000        -1.290900921419798E-044
   135.859500000000        -3.985240177536726E-044
   136.098900000000        -7.028972820663229E-044
   136.338300000000        -1.009956427215076E-043
   136.577700000000        -1.276148364315161E-043
   136.817100000000        -1.449143155416203E-043
   137.056500000000        -1.472464506941028E-043
   137.295900000000        -1.292251537573899E-043
   137.535300000000        -8.658751937007841E-044
   137.774700000000        -1.717755816522412E-044
   138.014100000000         7.804942294713194E-044
   138.253500000000         1.941389470072171E-043
   138.492900000000         3.215306255121811E-043
   138.732300000000         4.459098697576692E-043