  -1.42500000000000         0.000000000000000E+000
  -1.23500000000000         2.759670134022706E-015
  -1.04500000000000         5.826325479242320E-013
 -0.855000000000000         5.108336369815406E-012
 -0.665000000000000         2.790742517220715E-011
 -0.475000000000000         1.196076756863060E-010
 -0.285000000000000         4.273401824005483E-010
 -9.499999999999975E-002    1.313350339652252E-009
  9.500000000000020E-002    3.528486761097141E-009
  0.285000000000000         8.390913099267969E-009
  0.475000000000000         1.789220147814787E-008
  0.665000000000000         3.459707994710025E-008
  0.855000000000000         6.135740153591424E-008
   1.04500000000000         1.007285435524740E-007
   1.23500000000000         1.544769882326426E-007
   1.42500000000000         2.228055072943550E-007
   1.61500000000000         3.039978510041325E-007
   1.80500000000000         3.941504584835018E-007
   1.99500000000000         4.871855367343621E-007
   2.18500000000000         5.752244230109495E-007
   2.37500000000000         6.491711560330260E-007
   2.56500000000000         6.995966292143432E-007
   2.75500000000000         7.173613811058627E-007
   2.94500000000000         6.961986634258006E-007
   3.13500000000000         6.291291197838726E-007
   3.32500000000000         5.144939496168729E-007
   3.51500000000000         3.536714239939785E-007
   3.70500000000000         1.522015023097637E-007
   3.89500000000000        -8.027360305488789E-008
   4.08500000000000        -3.302557354709119E-007
   4.27500000000000        -5.811703082785455E-007
   4.46500000000000        -8.145309612917881E-007
   4.65500000000000        -1.011364510897705E-006
   4.84500000000000        -1.153851196319873E-006
   5.03500000000000        -1.227292163268991E-006
   5.22500000000000        -1.221771352295298E-006
   5.41500000000000        -1.132814533496252E-006
   5.60500000000000        -9.623538303043655E-007
   5.79500000000000        -7.190160146395693E-007
   5.98500000000000        -4.184241419289942E-007
   6.17500000000000        -8.111973917698721E-008
   6.36500000000000         2.700638469479363E-007
   6.55500000000000         6.106556299672684E-007
   6.74500000000000         9.157855821071542E-007
   6.93500000000000         1.164840757342642E-006
   7.12500000000000         1.339192115667413E-006
   7.31500000000000         1.426513209061689E-006
   7.50500000000000         1.420465146136001E-006
   7.69500000000000         1.320656484945882E-006
   7.88500000000000         1.133999856786959E-006
   8.07500000000000         8.727657163213455E-007
   8.26500000000000         5.573280842951078E-007
   8.45500000000000         2.000580200407214E-007
   8.64500000000000        -1.690846123216980E-007
   8.83500000000000        -5.328094645127756E-007
   9.02500000000000        -8.650224118181612E-007
   9.21500000000000        -1.143446537369483E-006
   9.40500000000000        -1.350550054276509E-006
   9.59500000000000        -1.472818035055165E-006
   9.78500000000000        -1.501292362070571E-006
   9.97500000000000        -1.437059702629413E-006
   10.1650000000000        -1.284242166659142E-006
   10.3550000000000        -1.055127400919322E-006
   10.5450000000000        -7.677042543139570E-007
   10.7350000000000        -4.443524116964991E-007
   10.9250000000000        -1.103664854257093E-007
   11.1150000000000         2.053187870090317E-007
   11.3050000000000         4.807703415836008E-007
   11.4950000000000         6.963829766254968E-007
   11.6850000000000         8.396351324100842E-007
   11.8750000000000         9.045785334957879E-007
   12.0650000000000         8.915030419325412E-007
   12.2550000000000         8.112298940393558E-007
   12.4450000000000         6.799273325411280E-007
   12.6350000000000         5.185300946558592E-007
   12.8250000000000         3.515777502836753E-007
   13.0150000000000         2.086171238088030E-007
   13.2050000000000         1.057672049499707E-007
   13.3950000000000         7.579815707997763E-008
   13.5850000000000         1.247206566338918E-007
   13.7750000000000         2.748005769224698E-007
   13.9650000000000         5.270233619705315E-007
   14.1550000000000         8.808771141865779E-007
   14.3450000000000         1.329277256780810E-006
   14.5350000000000         1.855328855517291E-006
   14.7250000000000         2.434670286717009E-006
   14.9150000000000         3.035241321700537E-006
   15.1050000000000         3.620122461379048E-006
   15.2950000000000         4.145897761140535E-006
   15.4850000000000         4.571544070036127E-006
   15.6750000000000         4.861015801449884E-006
   15.8650000000000         4.983559373438647E-006
   16.0550000000000         4.918544916651382E-006
   16.2450000000000         4.658529078883644E-006
   16.4350000000000         4.207599115890005E-006
   16.6250000000000         3.586628982118524E-006
   16.8150000000000         2.829928101316799E-006
   17.0050000000000         1.982150428557595E-006
   17.1950000000000         1.095373252164622E-006
   17.3850000000000         2.248883065682153E-007
   17.5750000000000        -5.742616563403085E-007
   17.7650000000000        -1.250901636464067E-006
   17.9550000000000        -1.766411672065572E-006
   18.1450000000000        -2.092378880246724E-006
   18.3350000000000        -2.209159148761004E-006
   18.5250000000000        -2.111074397744582E-006
   18.7150000000000        -1.815725160706217E-006
   18.9050000000000        -1.338225710648493E-006
   19.0950000000000        -7.127725017248410E-007
   19.2850000000000         1.928165292520746E-008
   19.4750000000000         8.079650572684567E-007
   19.6650000000000         1.598530369980192E-006
   19.8550000000000         2.334140340527563E-006
   20.0450000000000         2.959565997613159E-006
   20.2350000000000         3.421298595025798E-006
   20.4250000000000         3.679725827085580E-006
   20.6150000000000         3.706345051329798E-006
   20.8050000000000         3.490203952802858E-006
   20.9950000000000         3.034637441039862E-006
   21.1850000000000         2.363135593154789E-006
   21.3750000000000         1.513337256380453E-006
   21.5650000000000         5.394726845747930E-007
   21.7550000000000        -4.945072391532017E-007
   21.9450000000000        -1.519333882388261E-006
   22.1350000000000        -2.466193550557699E-006
   22.3250000000000        -3.272395973581175E-006
   22.5150000000000        -3.886920983760666E-006
   22.7050000000000        -4.273858512586008E-006
   22.8950000000000        -4.407353100930416E-006
   23.0850000000000        -4.297663341852869E-006
   23.2750000000000        -3.953376200842569E-006
   23.4650000000000        -3.407511998382729E-006
   23.6550000000000        -2.705977606661768E-006
   23.8450000000000        -1.912064192123973E-006
   24.0350000000000        -1.079182033551361E-006
   24.2250000000000        -2.728779327584368E-007
   24.4150000000000         4.416096091595909E-007
   24.6050000000000         1.007243000235697E-006
   24.7950000000000         1.382493540098774E-006
   24.9850000000000         1.527431157644114E-006
   25.1750000000000         1.421156802897407E-006
   25.3650000000000         1.065428943447633E-006
   25.5550000000000         4.773060724976191E-007
   25.7450000000000        -3.028488075283607E-007
   25.9350000000000        -1.216523020368020E-006
   26.1250000000000        -2.190856786122154E-006
   26.3150000000000        -3.143902442328358E-006
   26.5050000000000        -3.986808542354198E-006
   26.6950000000000        -4.639279821976653E-006
   26.8850000000000        -5.033752659891323E-006
   27.0750000000000        -5.121027931575663E-006
   27.2650000000000        -4.872367825311245E-006
   27.4550000000000        -4.287286536731547E-006
   27.6450000000000        -3.392932742434596E-006
   27.8350000000000        -2.241536083377375E-006
   28.0250000000000        -9.061971468126712E-007
   28.2150000000000         5.230818338480327E-007
   28.4050000000000         1.945931119161902E-006
   28.5950000000000         3.272624953977377E-006
   28.7850000000000         4.408340232943002E-006
   28.9750000000000         5.278899532756971E-006
   29.1650000000000         5.824080169432655E-006
   29.3550000000000         6.010221716307329E-006
   29.5450000000000         5.839604993259902E-006
   29.7350000000000         5.319060532143238E-006
   29.9250000000000         4.494891178233812E-006
   30.1150000000000         3.432147153624883E-006
   30.3050000000000         2.214384878311294E-006
   30.4950000000000         9.362103511745668E-007
   30.6850000000000        -3.024630360767881E-007
   30.8750000000000        -1.394949088347015E-006
   31.0650000000000        -2.254513889938593E-006
   31.2550000000000        -2.814264838058389E-006
   31.4450000000000        -3.017494895034148E-006
   31.6350000000000        -2.843769872134612E-006
   31.8250000000000        -2.302738713770751E-006
   32.0150000000000        -1.437311335086983E-006
   32.2050000000000        -3.172495700168287E-007
   32.3950000000000         9.680542065723467E-007
   32.5850000000000         2.308957365300685E-006
   32.7750000000000         3.597260757752915E-006
   32.9650000000000         4.729313417382723E-006
   33.1550000000000         5.614362505679339E-006
   33.3450000000000         6.184679558105517E-006
   33.5350000000000         6.400621242833790E-006
   33.7250000000000         6.250730452465312E-006
   33.9150000000000         5.756039937577493E-006
   34.1050000000000         4.962757621101204E-006
   34.2950000000000         3.946569886296183E-006
   34.4850000000000         2.792814243322232E-006
   34.6750000000000         1.590356437132773E-006
   34.8650000000000         4.342415034484718E-007
   35.0550000000000        -5.883163762770897E-007
   35.2450000000000        -1.402064170468161E-006
   35.4350000000000        -1.949858914921336E-006
   35.6250000000000        -2.192445965119040E-006
   35.8150000000000        -2.114500325763875E-006
   36.0050000000000        -1.732623849342899E-006
   36.1950000000000        -1.069747491274407E-006
   36.3850000000000        -1.779592572578868E-007
   36.5750000000000         8.773512131550841E-007
   36.7650000000000         2.019732120776251E-006
   36.9550000000000         3.166836952124206E-006
   37.1450000000000         4.236241304803370E-006
   37.3350000000000         5.156107601810296E-006
   37.5250000000000         5.867168824235283E-006
   37.7150000000000         6.328027740267874E-006
   37.9050000000000         6.520328104704524E-006
   38.0950000000000         6.445250643187164E-006
   38.2850000000000         6.120651640248542E-006
   38.4750000000000         5.589808706250961E-006
   38.6650000000000         4.912042251503653E-006
   38.8550000000000         4.147202381370509E-006
   39.0450000000000         3.360316895786225E-006
   39.2350000000000         2.609336042314285E-006
   39.4250000000000         1.946280162245464E-006
   39.6150000000000         1.409840199814145E-006
   39.8050000000000         1.025651256268028E-006
   39.9950000000000         8.031581266807261E-007
   40.1850000000000         7.379544880290994E-007
   40.3750000000000         8.146147686277383E-007
   40.5650000000000         9.984568592031339E-007
   40.7550000000000         1.269113741027497E-006
   40.9450000000000         1.587892293192210E-006
   41.1350000000000         1.918589379907294E-006
   41.3250000000000         2.225345665370205E-006
   41.5150000000000         2.477609926945928E-006
   41.7050000000000         2.637331577945681E-006
   41.8950000000000         2.681922074987059E-006
   42.0850000000000         2.603461202370127E-006
   42.2750000000000         2.382907603791882E-006
   42.4650000000000         2.021652550798830E-006
   42.6550000000000         1.528350247044948E-006
   42.8450000000000         9.207764126953120E-007
   43.0350000000000         2.246924652004398E-007
   43.2250000000000        -5.280864871057969E-007
   43.4150000000000        -1.301041914936511E-006
   43.6050000000000        -2.057127538862130E-006
   43.7950000000000        -2.762095786970079E-006
   43.9850000000000        -3.384447023094677E-006
   44.1750000000000        -3.899365664556810E-006
   44.3650000000000        -4.288665757054947E-006
   44.5550000000000        -4.541601865377674E-006
   44.7450000000000        -4.656333653262236E-006
   44.9350000000000        -4.625904188911776E-006
   45.1250000000000        -4.455984112177655E-006
   45.3150000000000        -4.168674824019783E-006
   45.5050000000000        -3.762601516770163E-006
   45.6950000000000        -3.254604656135412E-006
   45.8850000000000        -2.660797682381538E-006
   46.0750000000000        -2.000253946812691E-006
   46.2650000000000        -1.295411267612304E-006
   46.4550000000000        -5.714336716364703E-007
   46.6450000000000         1.426483506389455E-007
   46.8350000000000         8.176829605950582E-007
   47.0250000000000         1.429274304403224E-006
   47.2150000000000         1.957087580157619E-006
   47.4050000000000         2.377479687033350E-006
   47.5950000000000         2.680090970107213E-006
   47.7850000000000         2.866987338590585E-006
   47.9750000000000         2.942705136266047E-006
   48.1650000000000         2.924193052214810E-006
   48.3550000000000         2.832194776859815E-006
   48.5450000000000         2.688976431462012E-006
   48.7350000000000         2.521915558314582E-006
   48.9250000000000         2.355817668908344E-006
   49.1150000000000         2.216793236525862E-006
   49.3050000000000         2.115608919704035E-006
   49.4950000000000         2.074061388025641E-006
   49.6850000000000         2.086832375987423E-006
   49.8750000000000         2.165197659202615E-006
   50.0650000000000         2.305235463568880E-006
   50.2550000000000         2.491630568943144E-006
   50.4450000000000         2.727446704797102E-006
   50.6350000000000         2.997758130423754E-006
   50.8250000000000         3.290018457928184E-006
   51.0150000000000         3.590213009948469E-006
   51.2050000000000         3.877277719113541E-006
   51.3950000000000         4.136035258645132E-006
   51.5850000000000         4.357390079796700E-006
   51.7750000000000         4.519784484090556E-006
   51.9650000000000         4.613888650792310E-006
   52.1550000000000         4.634296024215266E-006
   52.3450000000000         4.582205772935117E-006
   52.5350000000000         4.460325569164658E-006
   52.7250000000000         4.290761785651850E-006
   52.9150000000000         4.086952355602634E-006
   53.1050000000000         3.866810269841770E-006
   53.2950000000000         3.649571183829087E-006
   53.4850000000000         3.456515375865379E-006
   53.6750000000000         3.301936139004775E-006
   53.8650000000000         3.190660879203068E-006
   54.0550000000000         3.126669705010454E-006
   54.2450000000000         3.109177017154751E-006
   54.4350000000000         3.131484493831412E-006
   54.6250000000000         3.182819634558893E-006
   54.8150000000000         3.252104581415963E-006
   55.0050000000000         3.329211002276794E-006
   55.1950000000000         3.404296480317269E-006
   55.3850000000000         3.469112839554669E-006
   55.5750000000000         3.518692814793151E-006
   55.7650000000000         3.548011523264405E-006
   55.9550000000000         3.559489583304956E-006
   56.1450000000000         3.547220436348699E-006
   56.3350000000000         3.503869982975290E-006
   56.5250000000000         3.424351375487971E-006
   56.7150000000000         3.302064753231539E-006
   56.9050000000000         3.130779628794472E-006
   57.0950000000000         2.905975919617259E-006
   57.2850000000000         2.626850934228723E-006
   57.4750000000000         2.300218927981124E-006
   57.6650000000000         1.928866370838748E-006
   57.8550000000000         1.517860900689843E-006
   58.0450000000000         1.089650988263334E-006
   58.2350000000000         6.590720129957632E-007
   58.4250000000000         2.433773060478981E-007
   58.6150000000000        -1.385126708394364E-007
   58.8050000000000        -4.720578137754602E-007
   58.9950000000000        -7.368802449382334E-007
   59.1850000000000        -9.095093075913131E-007
   59.3750000000000        -9.861250955755077E-007
   59.5650000000000        -9.442918728156328E-007
   59.7550000000000        -7.769188668256112E-007
   59.9450000000000        -4.783404867019198E-007
   60.1350000000000        -5.677862608600436E-008
   60.3250000000000         4.867589683798053E-007
   60.5150000000000         1.133358806714438E-006
   60.7050000000000         1.856628896990117E-006
   60.8950000000000         2.620638480408026E-006
   61.0850000000000         3.379227155956305E-006
   61.2750000000000         4.083687991993974E-006
   61.4650000000000         4.684278592767143E-006
   61.6550000000000         5.133874972034014E-006
   61.8450000000000         5.395024955592201E-006
   62.0350000000000         5.442537350624425E-006
   62.2250000000000         5.264414232740684E-006
   62.4150000000000         4.863693607565751E-006
   62.6050000000000         4.274837103556671E-006
   62.7950000000000         3.539526440716611E-006
   62.9850000000000         2.714834590495157E-006
   63.1750000000000         1.864135333712459E-006
   63.3650000000000         1.056304230559603E-006
   63.5550000000000         3.571889084281110E-007
   63.7450000000000        -1.706278567497510E-007
   63.9350000000000        -4.897685285850772E-007
   64.1250000000000        -5.725835376074172E-007
   64.3150000000000        -4.137143455721852E-007
   64.5050000000000        -2.405647475366969E-008
   64.6950000000000         5.694948606692461E-007
   64.8850000000000         1.319452707607296E-006
   65.0750000000000         2.158954151871798E-006
   65.2650000000000         3.022697468261859E-006
   65.4550000000000         3.838621114619647E-006
   65.6450000000000         4.535941027761249E-006
   65.8350000000000         5.052300466123811E-006
   66.0250000000000         5.336156907098396E-006
   66.2150000000000         5.357852519399817E-006
   66.4050000000000         5.105309394618706E-006
   66.5950000000000         4.593348603239067E-006
   66.7850000000000         3.859999223279596E-006
   66.9750000000000         2.965964344915522E-006
   67.1650000000000         1.987929170485801E-006
   67.3550000000000         1.013774788429702E-006
   67.5450000000000         1.343709377023053E-007
   67.7350000000000        -5.604430180499486E-007
   67.9250000000000        -9.937445996300756E-007
   68.1150000000000        -1.112975100511025E-006
   68.3050000000000        -8.861608812002277E-007
   68.4950000000000        -3.152120689847386E-007
   68.6850000000000         5.735003591466654E-007
   68.8750000000000         1.724820269186583E-006
   69.0650000000000         3.061036457342444E-006
   69.2550000000000         4.486478582527543E-006
   69.4450000000000         5.897765116512162E-006
   69.6350000000000         7.196613720979098E-006
   69.8250000000000         8.289089362643380E-006
   70.0150000000000         9.095920264198950E-006
   70.2050000000000         9.560334676039864E-006
   70.3950000000000         9.650485640671829E-006
   70.5850000000000         9.360784498037185E-006
   70.7750000000000         8.717211281460382E-006
   70.9650000000000         7.768892551211812E-006
   71.1550000000000         6.583926869415312E-006
   71.3450000000000         5.248273653977577E-006
   71.5350000000000         3.858752837251250E-006
   71.7250000000000         2.515842472772901E-006
   71.9150000000000         1.315391959228919E-006
   72.1050000000000         3.418353864516076E-007
   72.2950000000000        -3.366217323809187E-007
   72.4850000000000        -6.767536927435777E-007
   72.6750000000000        -6.608705147808080E-007
   72.8650000000000        -2.990511778667194E-007
   73.0550000000000         3.690687943171744E-007
   73.2450000000000         1.280332025029773E-006
   73.4350000000000         2.353760416055174E-006
   73.6250000000000         3.497124197192730E-006
   73.8150000000000         4.614189596993720E-006
   74.0050000000000         5.613658255021416E-006
   74.1950000000000         6.416763346534490E-006
   74.3850000000000         6.964100629549083E-006
   74.5750000000000         7.214143902665388E-006
   74.7650000000000         7.168858911911981E-006
   74.9550000000000         6.833156043597874E-006
   75.1450000000000         6.259220668929375E-006
   75.3350000000000         5.499437845505572E-006
   75.5250000000000         4.629903432341284E-006
   75.7150000000000         3.735322631394803E-006
   75.9050000000000         2.898843247097484E-006
   76.0950000000000         2.193938349995166E-006
   76.2850000000000         1.684785568125320E-006
   76.4750000000000         1.417944694566057E-006
   76.6650000000000         1.416357138182516E-006
   76.8550000000000         1.686418850312637E-006
   77.0450000000000         2.213848592605246E-006
   77.2350000000000         2.957360230762082E-006
   77.4250000000000         3.855856784916627E-006
   77.6150000000000         4.835342556307764E-006
   77.8050000000000         5.820923913344709E-006
   77.9950000000000         6.730045824402332E-006
   78.1850000000000         7.485188046205621E-006
   78.3750000000000         8.019007158178946E-006
   78.5650000000000         8.285057784212683E-006
   78.7550000000000         8.245171427900588E-006
   78.9450000000000         7.905260320276172E-006
   79.1350000000000         7.273873198638348E-006
   79.3250000000000         6.396280913657987E-006
   79.5150000000000         5.332147275211045E-006
   79.7050000000000         4.156686577167871E-006
   79.8950000000000         2.953490106697980E-006
   80.0850000000000         1.807663493383694E-006
   80.2750000000000         8.011085247524227E-007
   80.4650000000000         1.116869119853278E-009
   80.6550000000000        -5.408322691499554E-007
   80.8450000000000        -7.928843020345182E-007
   81.0350000000000        -7.483213089847802E-007
   81.2250000000000        -4.169475943764088E-007
   81.4150000000000         1.723610230670964E-007
   81.6050000000000         9.723007197417632E-007
   81.7950000000000         1.922240910967486E-006
   81.9850000000000         2.953372210508441E-006
   82.1750000000000         3.992836065201507E-006
   82.3650000000000         4.977900953532922E-006
   82.5550000000000         5.848282544808906E-006
   82.7450000000000         6.554578992228507E-006
   82.9350000000000         7.062016757091851E-006
   83.1250000000000         7.349679731190725E-006
   83.3150000000000         7.413093030444379E-006
   83.5050000000000         7.264695906244380E-006
   83.6950000000000         6.927073537736725E-006
   83.8850000000000         6.435270793754153E-006
   84.0750000000000         5.833982727722546E-006
   84.2650000000000         5.168525218015407E-006
   84.4550000000000         4.485878512973075E-006
   84.6450000000000         3.829246640143993E-006
   84.8350000000000         3.235859483198767E-006
   85.0250000000000         2.732590589439505E-006
   85.2150000000000         2.338610500386028E-006
   85.4050000000000         2.062044988329587E-006
   85.5950000000000         1.901066951329723E-006
   85.7850000000000         1.848150643907060E-006
   85.9750000000000         1.889001985395623E-006
   86.1650000000000         2.006640736741576E-006
   86.3550000000000         2.182930165636642E-006
   86.5450000000000         2.399966005056128E-006
   86.7350000000000         2.641944878211591E-006
   86.9250000000000         2.896628925431631E-006
   87.1150000000000         3.154547108889877E-006
   87.3050000000000         3.409120290066043E-006
   87.4950000000000         3.656505861689454E-006
   87.6850000000000         3.895559790050345E-006
   87.8750000000000         4.125436896144546E-006
   88.0650000000000         4.347505681506191E-006
   88.2550000000000         4.554190992033928E-006
   88.4450000000000         4.750188573511255E-006
   88.6350000000000         4.933462566919076E-006
   88.8250000000000         5.112269488239854E-006
   89.0150000000000         5.285424823028650E-006
   89.2050000000000         5.462477466397147E-006
   89.3950000000000         5.649866874556786E-006
   89.5850000000000         5.854581026677544E-006
   89.7750000000000         6.084124860291911E-006
   89.9650000000000         6.345051474983376E-006
   90.1550000000000         6.641779170978466E-006
   90.3450000000000         6.975415991737768E-006
   90.5350000000000         7.346308787380858E-006
   90.7250000000000         7.739558170803714E-006
   90.9150000000000         8.142044745288020E-006
   91.1050000000000         8.533216678457042E-006
   91.2950000000000         8.887684150502201E-006
   91.4850000000000         9.177612709853584E-006
   91.6750000000000         9.376701839521422E-006
   91.8650000000000         9.456494793736235E-006
   92.0550000000000         9.393667095106949E-006
   92.2450000000000         9.173612601967453E-006
   92.4350000000000         8.786523443166334E-006
   92.6250000000000         8.233655902060286E-006
   92.8150000000000         7.528065186973035E-006
   93.0050000000000         6.694607357197105E-006
   93.1950000000000         5.768721265257201E-006
   93.3850000000000         4.795175706205562E-006
   93.5750000000000         3.825535399231129E-006
   93.7650000000000         2.914989763781211E-006
   93.9550000000000         2.118674516300110E-006
   94.1450000000000         1.487272626402215E-006
   94.3350000000000         1.063163933565167E-006
   94.5250000000000         8.768666751315524E-007
   94.7150000000000         9.435955187390437E-007
   94.9050000000000         1.272559624791283E-006
   95.0950000000000         1.835138165497867E-006
   95.2850000000000         2.604796629276696E-006
   95.4750000000000         3.532750759836554E-006
   95.6650000000000         4.559793583071526E-006
   95.8550000000000         5.622142627927541E-006
   96.0450000000000         6.654056424853397E-006
   96.2350000000000         7.593307520636750E-006
   96.4250000000000         8.386523229283689E-006
   96.6150000000000         8.991787239640029E-006
   96.8050000000000         9.384856357205608E-006
   96.9950000000000         9.556293021014174E-006
   97.1850000000000         9.513832834910277E-006
   97.3750000000000         9.288357309593381E-006
   97.5650000000000         8.907489597240053E-006
   97.7550000000000         8.421110392498692E-006
   97.9450000000000         7.879826373446709E-006
   98.1350000000000         7.334496143403247E-006
   98.3250000000000         6.832263764683237E-006
   98.5150000000000         6.412874481362076E-006
   98.7050000000000         6.105578656890519E-006
   98.8950000000000         5.923282098333663E-006
   99.0850000000000         5.883911018719767E-006
   99.2750000000000         5.964091338031283E-006
   99.4650000000000         6.154706234341913E-006
   99.6550000000000         6.424205536102549E-006
   99.8450000000000         6.733320250978191E-006
   100.035000000000         7.051426156547106E-006
   100.225000000000         7.333521181364030E-006
   100.415000000000         7.550782022957738E-006
   100.605000000000         7.671189729908411E-006
   100.795000000000         7.673976447650374E-006
   100.985000000000         7.545421968580743E-006
   101.175000000000         7.290859963200606E-006
   101.365000000000         6.919070772531119E-006
   101.555000000000         6.453159760756405E-006
   101.745000000000         5.923975913411203E-006
   101.935000000000         5.367272091600546E-006
   102.125000000000         4.822511617767083E-006
   102.315000000000         4.327951889730473E-006
   102.505000000000         3.918498552420084E-006
   102.695000000000         3.621149779821072E-006
   102.885000000000         3.455989947920127E-006
   103.075000000000         3.433975292823628E-006
   103.265000000000         3.556912990394415E-006
   103.455000000000         3.814308688014120E-006
   103.645000000000         4.190562281559274E-006
   103.835000000000         4.662598166028884E-006
   104.025000000000         5.199027314839297E-006
   104.215000000000         5.772962438715089E-006
   104.405000000000         6.357130429886412E-006
   104.595000000000         6.924153229090721E-006
   104.785000000000         7.449567415804503E-006
   104.975000000000         7.911772593562972E-006
   105.165000000000         8.294045392778433E-006
   105.355000000000         8.579309755169570E-006
   105.545000000000         8.758920577624886E-006
   105.735000000000         8.829997103977537E-006
   105.925000000000         8.802444997282731E-006
   106.115000000000         8.668212663861090E-006
   106.305000000000         8.444567846878384E-006
   106.495000000000         8.147386896568458E-006
   106.685000000000         7.797179216699720E-006
   106.875000000000         7.417509911353902E-006
   107.065000000000         7.033046029600328E-006
   107.255000000000         6.668210252867502E-006
   107.445000000000         6.344976426294903E-006
   107.635000000000         6.081435930754442E-006
   107.825000000000         5.891142794302310E-006
   108.015000000000         5.781333595177132E-006
   108.205000000000         5.751795346662005E-006
   108.395000000000         5.805171341003061E-006
   108.585000000000         5.932309671089976E-006
   108.775000000000         6.123466398663607E-006
   108.965000000000         6.356988214841405E-006
   109.155000000000         6.626590915713562E-006
   109.345000000000         6.916249141948636E-006
   109.535000000000         7.212181417007723E-006
   109.725000000000         7.501231273264660E-006
   109.915000000000         7.771310396722135E-006
   110.105000000000         8.011835932633349E-006