  -1.79550000000000         0.000000000000000E+000
  -1.55610000000000         0.000000000000000E+000
  -1.31670000000000         0.000000000000000E+000
  -1.07730000000000         0.000000000000000E+000
 -0.837900000000000         0.000000000000000E+000
 -0.598500000000000         0.000000000000000E+000
 -0.359100000000000         0.000000000000000E+000
 -0.119700000000000         0.000000000000000E+000
  0.119700000000000         0.000000000000000E+000
  0.359100000000000         0.000000000000000E+000
  0.598500000000000         0.000000000000000E+000
  0.837900000000000         0.000000000000000E+000
   1.07730000000000         0.000000000000000E+000
   1.31670000000000         0.000000000000000E+000
   1.55610000000000         0.000000000000000E+000
   1.79550000000000         0.000000000000000E+000
   2.03490000000000         0.000000000000000E+000
   2.27430000000000         0.000000000000000E+000
   2.51370000000000         0.000000000000000E+000
   2.75310000000000         0.000000000000000E+000
   2.99250000000000         0.000000000000000E+000
   3.23190000000000         0.000000000000000E+000
   3.47130000000000         0.000000000000000E+000
   3.71070000000000         0.000000000000000E+000
   3.95010000000000         0.000000000000000E+000
   4.18950000000000         0.000000000000000E+000
   4.42890000000000         0.000000000000000E+000
   4.66830000000000         0.000000000000000E+000
   4.90770000000000         0.000000000000000E+000
   5.14710000000000         0.000000000000000E+000
   5.38650000000000         0.000000000000000E+000
   5.62590000000000         0.000000000000000E+000
   5.86530000000000         0.000000000000000E+000
   6.10470000000000         0.000000000000000E+000
   6.34410000000000         0.000000000000000E+000
   6.58350000000000         0.000000000000000E+000
   6.82290000000000         0.000000000000000E+000
   7.06230000000000         0.000000000000000E+000
   7.30170000000000         0.000000000000000E+000
   7.54110000000000         3.797390671483704E-154
   7.78050000000000         1.431319761917395E-149
   8.01990000000000         3.347785255962394E-147
   8.25930000000000         1.330541009283926E-145
   8.49870000000000         1.873877929642292E-144
   8.73810000000000        -1.598005118568200E-143
   8.97750000000000        -1.227291590004150E-141
   9.21690000000000        -2.806785457384781E-140
   9.45630000000000        -4.059099373688070E-139
   9.69570000000000        -4.052529716689329E-138
   9.93510000000000        -2.482696919992741E-137
   10.1745000000000         8.402535605901767E-138
   10.4139000000000         2.587256335693182E-135
   10.6533000000000         4.057847580813219E-134
   10.8927000000000         3.991446304110533E-133
   11.1321000000000         2.436389777324806E-132
   11.3715000000000        -9.007856768412039E-133
   11.6109000000000        -2.799289194934339E-130
   11.8503000000000        -4.920579687370402E-129
   12.0897000000000        -5.981495211467687E-128
   12.3291000000000        -5.934441581039361E-127
   12.5685000000000        -5.076236213618289E-126
   12.8079000000000        -3.842632159381063E-125
   13.0473000000000        -2.613066921144316E-124
   13.2867000000000        -1.611485878370777E-123
   13.5261000000000        -9.067908298283817E-123
   13.7655000000000        -4.672106419189315E-122
   14.0049000000000        -2.206258226183764E-121
   14.2443000000000        -9.527267738038606E-121
   14.4837000000000        -3.735284989239131E-120
   14.7231000000000        -1.307569535575636E-119
   14.9625000000000        -3.927843635091892E-119
   15.2019000000000        -8.994798347166696E-119
   15.4413000000000        -7.027384414186889E-119
   15.6807000000000         7.978567657081117E-118
   15.9201000000000         6.663141754943079E-117
   16.1595000000000         3.591413393529976E-116
   16.3989000000000         1.610672669740953E-115
   16.6383000000000         6.440444124029511E-115
   16.8777000000000         2.364637801219373E-114
   17.1171000000000         8.096243179991142E-114
   17.3565000000000         2.609213772391288E-113
   17.5959000000000         7.963268200496688E-113
   17.8353000000000         2.311482126463803E-112
   18.0747000000000         6.401799569916592E-112
   18.3141000000000         1.696088422236446E-111
   18.5535000000000         4.308454196684276E-111
   18.7929000000000         1.051738190415463E-110
   19.0323000000000         2.473560173376480E-110
   19.2717000000000         5.622998401704697E-110
   19.5111000000000         1.240841625536632E-109
   19.7505000000000         2.673591031452908E-109
   19.9899000000000         5.667509887618325E-109
   20.2293000000000         1.192702404336611E-108
   20.4687000000000         2.514972831371882E-108
   20.7081000000000         5.352036040821828E-108
   20.9475000000000         1.152416171741840E-107
   21.1869000000000         2.502226372063495E-107
   21.4263000000000         5.431209059863485E-107
   21.6657000000000         1.164544117498678E-106
   21.9051000000000         2.434387469120210E-106
   22.1445000000000         4.893148162214795E-106
   22.3839000000000         9.308689645612255E-106
   22.6233000000000         1.639723384721244E-105
   22.8627000000000         2.570984037837730E-105
   23.1021000000000         3.249490283622794E-105
   23.3415000000000         2.023144489576668E-105
   23.5809000000000        -5.516900359831947E-105
   23.8203000000000        -2.956192823279274E-104
   24.0597000000000        -9.134670030422024E-104
   24.2991000000000        -2.313843373683016E-103
   24.5385000000000        -5.207982173486931E-103
   24.7779000000000        -1.074292437746434E-102
   25.0173000000000        -2.060670185453811E-102
   25.2567000000000        -3.704365541364429E-102
   25.4961000000000        -6.273762249986360E-102
   25.7355000000000        -1.007012532660481E-101
   25.9749000000000        -1.548542620581424E-101
   26.2143000000000        -2.331826351900978E-101
   26.4537000000000        -3.575152050525332E-101
   26.6931000000000        -5.868673249212726E-101
   26.9325000000000        -1.063459684460048E-100
   27.1719000000000        -2.087394499753014E-100
   27.4113000000000        -4.207744799364660E-100
   27.6507000000000        -8.267471343226733E-100
   27.8901000000000        -1.523432544986204E-099
   28.1295000000000        -2.547201603508609E-099
   28.3689000000000        -3.687311807322484E-099
   28.6083000000000        -4.110198999808462E-099
   28.8477000000000        -1.739038785355941E-099
   29.0871000000000         7.550106460917964E-099
   29.3265000000000         3.054655639805878E-098
   29.5659000000000         7.617403559117223E-098
   29.8053000000000         1.519663759819353E-097
   30.0447000000000         2.548694418412495E-097
   30.2841000000000         3.539682461190086E-097
   30.5235000000000         3.665214515100522E-097
   30.7629000000000         1.401694479978550E-097
   31.0023000000000        -5.209284736673442E-097
   31.2417000000000        -1.705379433597085E-096
   31.4811000000000        -2.981759943540807E-096
   31.7205000000000        -2.544085322214666E-096
   31.9599000000000         4.210630028391178E-096
   32.1993000000000         2.647844973006613E-095
   32.4387000000000         7.913892675927074E-095
   32.6781000000000         1.801916132608314E-094
   32.9175000000000         3.383222801292304E-094
   33.1569000000000         5.196906190398398E-094
   33.3963000000000         5.781287453878112E-094
   33.6357000000000         1.317916614872937E-094
   33.8751000000000        -1.619128084064234E-093
   34.1145000000000        -6.098168117150971E-093
   34.3539000000000        -1.545063494466268E-092
   34.5933000000000        -3.222007499244792E-092
   34.8327000000000        -5.799457214478253E-092
   35.0721000000000        -9.002096090072422E-092
   35.3115000000000        -1.144081320621074E-091
   35.5509000000000        -9.449786623048280E-092
   35.7903000000000         4.606930725380511E-092
   36.0297000000000         4.429894178866470E-091
   36.2691000000000         1.304166092944274E-090
   36.5085000000000         2.893762031510045E-090
   36.7479000000000         5.445666303820436E-090
   36.9873000000000         8.938822589647671E-090
   37.2267000000000         1.264186796273145E-089
   37.4661000000000         1.432827788042076E-089
   37.7055000000000         9.111399002629413E-090
   37.9449000000000        -1.198891705350658E-089
   38.1843000000000        -6.327486304266681E-089
   38.4237000000000        -1.642622813508922E-088
   38.6631000000000        -3.360743519261714E-088
   38.9025000000000        -5.908143306425331E-088
   39.1419000000000        -9.089916472447939E-088
   39.3813000000000        -1.199400336276798E-087
   39.6207000000000        -1.237418890955253E-087
   39.8601000000000        -5.840416342209424E-088
   40.0995000000000         1.497332930493713E-087
   40.3389000000000         6.081982375421075E-087
   40.5783000000000         1.449492599005632E-086
   40.8177000000000         2.794460590200889E-086
   41.0571000000000         4.666544555669520E-086
   41.2965000000000         6.830811242997106E-086
   41.5359000000000         8.534027221919023E-086
   41.7753000000000         8.140493996266634E-086
   42.0147000000000         2.705832038321544E-086
   42.2541000000000        -1.237643936209192E-085
   42.4935000000000        -4.336750241476955E-085
   42.7329000000000        -9.730753406637128E-085
   42.9723000000000        -1.794980457758300E-084
   43.2117000000000        -2.883250149175907E-084
   43.4511000000000        -4.063355910939280E-084
   43.6905000000000        -4.868526631352348E-084
   43.9299000000000        -4.366334116717862E-084
   44.1693000000000        -9.768867421474890E-085
   44.4087000000000         7.640400150296783E-084
   44.6481000000000         2.448497569497762E-083
   44.8875000000000         5.266052168177765E-083
   45.1269000000000         9.403145988854095E-083
   45.3663000000000         1.466860605713442E-082
   45.6057000000000         2.008331640311999E-082
   45.8451000000000         2.330044827570546E-082
   46.0845000000000         1.990518389693350E-082
   46.3239000000000         2.760795127786514E-083
   46.5633000000000        -3.824076380094474E-082
   46.8027000000000        -1.153954524025748E-081
   47.0421000000000        -2.404168790922060E-081
   47.2815000000000        -4.184206631305571E-081
   47.5209000000000        -6.372839268614103E-081
   47.7603000000000        -8.513425761350247E-081
   47.9997000000000        -9.596106535177682E-081
   48.2391000000000        -7.813422254761616E-081
   48.4785000000000        -3.636910760869537E-082
   48.7179000000000         1.655386935018862E-080
   48.9573000000000         4.731707763597364E-080
   49.1967000000000         9.569746280781001E-080
   49.4361000000000         1.625075778227581E-079
   49.6755000000000         2.416840566566560E-079
   49.9149000000000         3.146085897454072E-079
   50.1543000000000         3.429818194506400E-079
   50.3937000000000         2.615452221764781E-079
   50.6331000000000        -2.647701374793515E-080
   50.8725000000000        -6.461420996006056E-079
   51.1119000000000        -1.732058498231965E-078
   51.3513000000000        -3.384016802991828E-078
   51.5907000000000        -5.585791113281448E-078
   51.8301000000000        -8.078283819591000E-078
   52.0695000000000        -1.018682284767259E-077
   52.3089000000000        -1.062082008437230E-077
   52.5483000000000        -7.295551710340206E-078
   52.7877000000000         2.727673394422259E-078
   53.0271000000000         2.302747760997581E-077
   53.2665000000000         5.711689087464629E-077
   53.5059000000000         1.069851896891828E-076
   53.7453000000000         1.706383746343020E-076
   53.9847000000000         2.385131794266798E-076
   54.2241000000000         2.889446771704538E-076
   54.4635000000000         2.834281645385364E-076
   54.7029000000000         1.632843827304667E-076
   54.9423000000000        -1.494987205969487E-076
   55.1817000000000        -7.431528876807007E-076
   55.4211000000000        -1.693512936567102E-075
   55.6605000000000        -3.022334208367201E-075
   55.8999000000000        -4.632412339652096E-075
   56.1393000000000        -6.219824722990872E-075
   56.3787000000000        -7.172483752559337E-075
   56.6181000000000        -6.478637872358232E-075
   56.8575000000000        -2.689216931666266E-075
   57.0969000000000         5.997678566592303E-075
   57.3363000000000         2.143814709674569E-074
   57.5757000000000         4.492407983786344E-074
   57.8151000000000         7.615060072242355E-074
   58.0545000000000         1.117313601474347E-073
   58.2939000000000         1.433487256256461E-073
   58.5333000000000         1.558411092862503E-073
   58.7727000000000         1.258449244813079E-073
   59.0121000000000         2.200774418374327E-074
   59.2515000000000        -1.917890461128421E-073
   59.4909000000000        -5.484421298567144E-073
   59.7303000000000        -1.063111815782894E-072
   59.9697000000000        -1.711022323758157E-072
   60.2091000000000        -2.397982357214478E-072
   60.4485000000000        -2.926909921786319E-072
   60.6879000000000        -2.968059733880352E-072
   60.9273000000000        -2.046501780234750E-072
   61.1667000000000         4.329930611594292E-073
   61.4061000000000         5.097686065400196E-072
   61.6455000000000         1.242688483320239E-071
   61.8849000000000         2.245687852152307E-071
   62.1243000000000         3.436463685542370E-071
   62.3637000000000         4.595868189561763E-071
   62.6031000000000         5.316138571837213E-071
   62.8425000000000         4.964440872651553E-071
   63.0819000000000         2.687163471373579E-071
   63.3213000000000        -2.510516530702544E-071
   63.5607000000000        -1.156945458828909E-070
   63.8001000000000        -2.502755107067241E-070
   64.0395000000000        -4.249498362049833E-070
   64.2789000000000        -6.196880628380446E-070
   64.5183000000000        -7.906597453679509E-070
   64.7577000000000        -8.634692708742930E-070
   64.9971000000000        -7.301922869601412E-070
   65.2365000000000        -2.543592830925025E-070
   65.4759000000000         7.109640665365768E-070
   65.7153000000000         2.286612875914689E-069
   65.9547000000000         4.508120557037348E-069
   66.1941000000000         7.243248632584499E-069
   66.4335000000000         1.009222644365371E-068
   66.6729000000000         1.228684807934156E-068
   66.9123000000000         1.261809014373789E-068
   67.1517000000000         9.437372583828126E-069
   67.3911000000000         7.908768874977531E-070
   67.6305000000000        -1.524576061129322E-068
   67.8699000000000        -3.997097721992414E-068
   68.1093000000000        -7.316650814106772E-068
   68.3487000000000        -1.119410957833683E-067
   68.5881000000000        -1.494384863760398E-067
   68.8275000000000        -1.736814212225239E-067
   69.0669000000000        -1.669962509091089E-067
   69.3063000000000        -1.066402180097491E-067
   69.5457000000000         3.261273690980966E-068
   69.7851000000000         2.731536793642820E-067
   70.0245000000000         6.259048577488451E-067
   70.2639000000000         1.078290992753421E-066
   70.5033000000000         1.579644849362755E-066
   70.7427000000000         2.026235224759909E-066
   70.9821000000000         2.249866492435718E-066
   71.2215000000000         2.015963869932638E-066
   71.4609000000000         1.038825830763842E-066
   71.7003000000000        -9.773472723904434E-067
   71.9397000000000        -4.263828472898048E-066
   72.1791000000000        -8.874868294212689E-066
   72.4185000000000        -1.454038204323903E-065
   72.6579000000000        -2.049871557840091E-065
   72.8973000000000        -2.534074558409994E-065
   73.1367000000000        -2.691622503393290E-065
   73.3761000000000        -2.237323065911131E-065
   73.6155000000000        -8.416587959803003E-066
   73.8549000000000         1.812634118660793E-065
   74.0943000000000         5.936367662017313E-065
   74.3337000000000         1.150039584311304E-064
   74.5731000000000         1.807043337028784E-064
   74.8125000000000         2.463168295426209E-064
   75.0519000000000         2.944261215317574E-064
   75.2913000000000         2.997713414460754E-064
   75.5307000000000         2.303257837283798E-064
   75.7701000000000         5.091181284522124E-065
   76.0095000000000        -2.698268537053442E-064
   76.2489000000000        -7.485812158705302E-064
   76.4883000000000        -1.372800080260367E-063
   76.7277000000000        -2.083581795834513E-063
   76.9671000000000        -2.758711852650669E-063
   77.2065000000000        -3.200309617332134E-063
   77.4459000000000        -3.133393647302314E-063
   77.6853000000000        -2.223148687970379E-063
   77.9247000000000        -1.191539099421232E-064
   78.1641000000000         3.466472880420809E-063
   78.4035000000000         8.643995275936930E-063
   78.6429000000000         1.519832898619535E-062
   78.8823000000000         2.242400350139414E-062
   79.1217000000000         2.897263666852663E-062
   79.3611000000000         3.275926808051423E-062
   79.6005000000000         3.098967129970885E-062
   79.8399000000000         2.038138319127834E-062
   80.0793000000000        -2.349308013436559E-063
   80.3187000000000        -3.968081386020389E-062
   80.5581000000000        -9.215035978716537E-062
   80.7975000000000        -1.569533361175485E-061
   81.0369000000000        -2.264485846357590E-061
   81.2763000000000        -2.868725083396325E-061
   81.5157000000000        -3.177075051892658E-061
   81.7551000000000        -2.922752944054048E-061
   81.9945000000000        -1.801920232789008E-061
   82.2339000000000         4.772309009677622E-062
   82.4733000000000         4.117090500194832E-061
   82.7127000000000         9.125572974230105E-061
   82.9521000000000         1.519099702223735E-060
   83.1915000000000         2.155400972932458E-060
   83.4309000000000         2.690497700229233E-060
   83.6703000000000         2.934683789766147E-060
   83.9097000000000         2.647268885996844E-060
   84.1491000000000         1.561074633561578E-060
   84.3885000000000        -5.717528519310776E-061
   84.6279000000000        -3.910206382133156E-060
   84.8673000000000        -8.432792696323731E-060
   85.1067000000000        -1.383155882647130E-059
   85.3461000000000        -1.940749600983118E-059
   85.5855000000000        -2.399219837815840E-059
   85.8249000000000        -2.592955914924271E-059
   86.0643000000000        -2.315776163813716E-059
   86.3037000000000        -1.343295208510741E-059
   86.5431000000000         5.271636742619392E-060
   86.7825000000000         3.417710978978240E-059
   87.0219000000000         7.294142645655591E-059
   87.2613000000000         1.188036946956736E-058
   87.5007000000000         1.657644369095943E-058
   87.7401000000000         2.040063924642105E-058
   87.9795000000000         2.198258700944234E-058
   88.2189000000000         1.963877611946306E-058
   88.4583000000000         1.156156736012079E-058
   88.6977000000000        -3.854296017762097E-059
   88.9371000000000        -2.754025187493731E-058
   89.1765000000000        -5.915776747730399E-058
   89.4159000000000        -9.643659758802692E-058
   89.6553000000000        -1.345545990156822E-057
   89.8947000000000        -1.657180006440342E-057
   90.1341000000000        -1.791473223180121E-057
   90.3735000000000        -1.617018614437875E-057
   90.6129000000000        -9.936847311389101E-058
   90.8523000000000         2.021957142308045E-058
   91.0917000000000         2.041968227282521E-057
   91.3311000000000         4.499844976090281E-057
   91.5705000000000         7.403721498936829E-057
   91.8099000000000         1.038967160553578E-056
   92.0493000000000         1.287182796931282E-056
   92.2887000000000         1.404252947073766E-056
   92.5281000000000         1.291937065014789E-056
   92.7675000000000         8.454984893083140E-057
   93.0069000000000        -2.791793560201307E-058
   93.2463000000000        -1.383323663145311E-056
   93.4857000000000        -3.205640485435666E-056
   93.7251000000000        -5.374483997318845E-056
   93.9645000000000        -7.631689246356066E-056
   94.2039000000000        -9.559784950450319E-056
   94.4433000000000        -1.058174321163934E-055
   94.6827000000000        -9.993443912045334E-056
   94.9221000000000        -7.039637284453646E-056
   95.1615000000000        -1.040972296201982E-056
   95.4009000000000         8.426796339773689E-056
   95.6403000000000         2.131037127487310E-055
   95.8797000000000         3.683568432427786E-055
   96.1191000000000         5.328226510662429E-055
   96.3585000000000         6.783003849510944E-055
   96.5979000000000         7.654724874838197E-055
   96.8373000000000         7.459537638218033E-055
   97.0767000000000         5.672251723805523E-055
   97.3161000000000         1.809571910109971E-055
   97.5555000000000        -4.451900637112540E-055
   97.7949000000000        -1.312850587525847E-054
   98.0343000000000        -2.376745754725354E-054
   98.2737000000000        -3.529432587408946E-054
   98.5131000000000        -4.590502925355754E-054
   98.7525000000000        -5.304618214167879E-054
   98.9919000000000        -5.353236208061512E-054
   99.2313000000000        -4.384640160868687E-054
   99.4707000000000        -2.065610727636326E-054
   99.7101000000000         1.844472122997322E-054
   99.9495000000000         7.400279453418815E-054
   100.188900000000         1.436642829746969E-053
   100.428300000000         2.211739066772959E-053
   100.667700000000         2.956268831415586E-053
   100.907100000000         3.512422766643354E-053
   101.146500000000         3.679577301092713E-053
   101.385900000000         3.231347843176317E-053
   101.625300000000         1.945927272958773E-053
   101.864700000000        -3.495828875646624E-054
   102.104100000000        -3.722456110665533E-053
   102.343500000000        -8.069967294324225E-053
   102.582900000000        -1.305580857104329E-052
   102.822300000000        -1.805963913653410E-052
   103.061700000000        -2.215554181492599E-052
   103.301100000000        -2.413725149141898E-052
   103.540500000000        -2.260775745876770E-052
   103.779900000000        -1.614720875930394E-052
   104.019300000000        -3.565060954292642E-053
   104.258700000000         1.577042999820829E-052
   104.498100000000         4.154980327022998E-052
   104.737500000000         7.213270014855290E-052
   104.976900000000         1.042191048723822E-051
   105.216300000000         1.326702479506456E-051
   105.455700000000         1.505815882259443E-051
   105.695100000000         1.497115363725515E-051
   105.934500000000         1.213524914439820E-051
   106.173900000000         5.769011747380026E-052
   106.413300000000        -4.637069175074844E-052
   106.652700000000        -1.910289093465802E-051
   106.892100000000        -3.692911961507032E-051
   107.131500000000        -5.649145794296087E-051
   107.370900000000        -7.510651280447481E-051
   107.610300000000        -8.902566219796561E-051
   107.849700000000        -9.361580927626841E-051
   108.089100000000        -8.377900953983069E-051
   108.328500000000        -5.464374569530470E-051
   108.567900000000        -2.527091648799348E-052
   108.807300000000         7.388119771524829E-051
   109.046700000000         1.722224179793367E-050
   109.286100000000         2.852383555361955E-050
   109.525500000000         3.998510441138123E-050
   109.764900000000         4.968504252162582E-050
   110.004300000000         5.515115280023507E-050
   110.243700000000         5.354411758268366E-050
   110.483100000000         4.198711146466787E-050
   110.722500000000         1.804578990923991E-050
   110.961900000000        -1.965844205077409E-050
   111.201300000000        -7.074974477687758E-050
   111.440700000000        -1.323968535944306E-049
   111.680100000000        -1.987288850178955E-049
   111.919500000000        -2.605179176516818E-049
   112.158900000000        -3.052966481596985E-049
   112.398300000000        -3.180767898263874E-049
   112.637700000000        -2.828019630659547E-049
   112.877100000000        -1.846008132486147E-049
   113.116500000000        -1.279847339737589E-050
   113.355900000000         2.355009863676513E-049
   113.595300000000         5.516229567867914E-049
   113.834700000000         9.118694644887734E-049
   114.074100000000         1.275124316241125E-048
   114.313500000000         1.582357064227017E-048
   114.552900000000         1.758898066541178E-048
   114.792300000000         1.720256022098754E-048
   115.031700000000         1.381979051799248E-048
   115.271100000000         6.735967390480154E-049
   115.510500000000        -4.439780085561222E-049
   115.749900000000        -1.959031798116476E-048
   115.989300000000        -3.789981739675778E-048
   116.228700000000        -5.769919814195916E-048
   116.468100000000        -7.638765725247533E-048
   116.707500000000        -9.047393222692876E-048
   116.946900000000        -9.577901028246024E-048
   117.186300000000        -8.783249573468207E-048
   117.425700000000        -6.247633710976533E-048
   117.665100000000        -1.666153612023835E-048
   117.904500000000         5.061341381372870E-048
   118.143900000000         1.373167829473037E-047
   118.383300000000         2.374899578397819E-047
   118.622700000000         3.406255591732207E-047
   118.862100000000         4.315242452532051E-047
   119.101500000000         4.908419417114765E-047
   119.340900000000         4.965121582414998E-047
   119.580300000000         4.261610545270343E-047
   119.819700000000         2.605212599203428E-047
   120.059100000000        -1.230532270916566E-048
   120.298500000000        -3.920776439781737E-047
   120.537900000000        -8.616925476218026E-047
   120.777300000000        -1.383268849082074E-046
   121.016700000000        -1.895964101613466E-046
   121.256100000000        -2.316533175899202E-046
   121.495500000000        -2.543595055477655E-046
   121.734900000000        -2.466364338024705E-046
   121.974300000000        -1.978196611276103E-046
   122.213700000000        -9.946814171005891E-047
   122.453100000000         5.247893914648793E-047
   122.692500000000         2.553992602979607E-046
   122.931900000000         4.978382691703322E-046
   123.171300000000         7.579026741675455E-046
   123.410700000000         1.002647455962691E-045
   123.650100000000         1.188923263767545E-045
   123.889500000000         1.266101272246780E-045
   124.128900000000         1.180960495071892E-045
   124.368300000000         8.847981784664843E-046
   124.607700000000         3.425077026300034E-046
   124.847100000000        -4.570249349937636E-046
   125.086500000000        -1.490293746776166E-045
   125.325900000000        -2.689836218402899E-045
   125.565300000000        -3.938071109597874E-045
   125.804700000000        -5.066402719727449E-045
   126.044100000000        -5.861652455720189E-045
   126.283500000000        -6.081525710456991E-045
   126.522900000000        -5.480085372619410E-045
   126.762300000000        -3.843055971458012E-045
   127.001700000000        -1.031249897055785E-045
   127.241100000000         2.971418524466085E-045
   127.480500000000         8.010815470848334E-045
   127.719900000000         1.372367888220666E-044
   127.959300000000         1.951562124529088E-044
   128.198700000000         2.456533859671764E-044
   128.438100000000         2.786374537442310E-044
   128.677500000000         2.829468833768668E-044
   128.916900000000         2.476011855021000E-044
   129.156300000000         1.634707909328347E-044
   129.395700000000         2.526802614953431E-045
   129.635100000000        -1.663189012549021E-044
   129.874500000000        -4.026101280417350E-044
   130.113900000000        -6.653715764585803E-044
   130.353300000000        -9.260910399988960E-044
   130.592700000000        -1.146490017560975E-043
   130.832100000000        -1.280626339626254E-043
   131.071500000000        -1.278834579038591E-043
   131.310900000000        -1.093570380617721E-043
   131.550300000000        -6.869726280526103E-044
   131.789700000000        -3.964607983599769E-045
   132.029100000000         8.401782740845035E-044
   132.268500000000         1.908289057394151E-043
   132.507900000000         3.078416912689668E-043
   132.747300000000         4.220075977351768E-043
   132.986700000000         5.161961833618270E-043
   133.226100000000         5.702302488736949E-043
   133.465500000000         5.627038243725920E-043
   133.704900000000         4.735887085734113E-043
   133.944300000000         2.875252275740206E-043
   134.183700000000        -2.438823866552752E-045
   134.423100000000        -3.910389621928747E-043
   134.662500000000        -8.574276788959428E-043
   134.901900000000        -1.362871493177035E-042
   135.141300000000        -1.850187024815714E-042
   135.380700000000        -2.245569818249154E-042
   135.620100000000        -2.463348740495966E-042
   135.859500000000        -2.413963722967587E-042
   136.098900000000        -2.015111459653492E-042
   136.338300000000        -1.205543761234360E-042
   136.577700000000         3.953345008324716E-044
   136.817100000000         1.693075756671584E-042
   137.056500000000         3.662965461042690E-042
   137.295900000000         5.783451400422190E-042
   137.535300000000         7.813953129556508E-042
   137.774700000000         9.447764347025100E-042
   138.014100000000         1.033263603285908E-041
   138.253500000000         1.010421622352988E-041
   138.492900000000         8.431867611324786E-042
   138.732300000000         5.074534650313465E-042