  -1.42500000000000         0.000000000000000E+000
  -1.23500000000000         3.289535870623056E-014
  -1.04500000000000         7.768315503531533E-013
 -0.855000000000000         5.975755835792598E-012
 -0.665000000000000         3.101145147777576E-011
 -0.475000000000000         1.287975452311738E-010
 -0.285000000000000         4.497703508142400E-010
 -9.499999999999975E-002    1.357985775984167E-009
  9.500000000000020E-002    3.599096696438702E-009
  0.285000000000000         8.466681634405203E-009
  0.475000000000000         1.790113072801063E-008
  0.665000000000000         3.437815556204817E-008
  0.855000000000000         6.064303722407362E-008
   1.04500000000000         9.912533780575915E-008
   1.23500000000000         1.514488116815974E-007
   1.42500000000000         2.177776672232589E-007
   1.61500000000000         2.963733759082571E-007
   1.80500000000000         3.834374083304464E-007
   1.99500000000000         4.730874369275387E-007
   2.18500000000000         5.577693738103532E-007
   2.37500000000000         6.287642302050373E-007
   2.56500000000000         6.771687755639583E-007
   2.75500000000000         6.943043821674831E-007
   2.94500000000000         6.742644457157075E-007
   3.13500000000000         6.104051612830567E-007
   3.32500000000000         5.011067623742952E-007
   3.51500000000000         3.477056872438309E-007
   3.70500000000000         1.554586373854468E-007
   3.89500000000000        -6.647918056652688E-008
   4.08500000000000        -3.051859420233852E-007
   4.27500000000000        -5.447349565320635E-007
   4.46500000000000        -7.672706962724914E-007
   4.65500000000000        -9.543808060948126E-007
   4.84500000000000        -1.088776616747604E-006
   5.03500000000000        -1.156064817532275E-006
   5.22500000000000        -1.146541035590080E-006
   5.41500000000000        -1.055944784777108E-006
   5.60500000000000        -8.862727898498184E-007
   5.79500000000000        -6.458360939959044E-007
   5.98500000000000        -3.504341412728927E-007
   6.17500000000000        -2.035562633157698E-008
   6.36500000000000         3.217976865474932E-007
   6.55500000000000         6.514579699346993E-007
   6.74500000000000         9.445609964100727E-007
   6.93500000000000         1.180923170611155E-006
   7.12500000000000         1.342577068086464E-006
   7.31500000000000         1.417794783754446E-006
   7.50500000000000         1.400744475686064E-006
   7.69500000000000         1.291693065922448E-006
   7.88500000000000         1.097985547262534E-006
   8.07500000000000         8.320981128566373E-007
   8.26500000000000         5.144567255392995E-007
   8.45500000000000         1.576203533625089E-007
   8.64500000000000        -2.090402104343185E-007
   8.83500000000000        -5.680135542027379E-007
   9.02500000000000        -8.938455276236622E-007
   9.21500000000000        -1.164287215561227E-006
   9.40500000000000        -1.362106829133840E-006
   9.59500000000000        -1.474085533377706E-006
   9.78500000000000        -1.491143411480470E-006
   9.97500000000000        -1.415181132487995E-006
   10.1650000000000        -1.250618225637446E-006
   10.3550000000000        -1.010167638038422E-006
   10.5450000000000        -7.127513437323019E-007
   10.7350000000000        -3.813962865880980E-007
   10.9250000000000        -4.225378343221920E-008
   11.1150000000000         2.749192226424417E-007
   11.3050000000000         5.477496811411009E-007
   11.4950000000000         7.566601593676506E-007
   11.6850000000000         8.892943351058261E-007
   11.8750000000000         9.402272152124156E-007
   12.0650000000000         9.105965150214416E-007
   12.2550000000000         8.122021019032291E-007
   12.4450000000000         6.620559133516726E-007
   12.6350000000000         4.819489806582874E-007
   12.8250000000000         2.969377323370361E-007
   13.0150000000000         1.368436037389827E-007
   13.2050000000000         1.754147494560299E-008
   13.3950000000000        -2.815414863475749E-008
   13.5850000000000         4.819381307387942E-009
   13.7750000000000         1.387729087745998E-007
   13.9650000000000         3.745145707818358E-007
   14.1550000000000         7.112117795501023E-007
   14.3450000000000         1.142372090924480E-006
   14.5350000000000         1.651626637567324E-006
   14.7250000000000         2.215200448000049E-006
   14.9150000000000         2.802003132300003E-006
   15.1050000000000         3.375943329718794E-006
   15.2950000000000         3.894355865415325E-006
   15.4850000000000         4.316811393446893E-006
   15.6750000000000         4.607712808944856E-006
   15.8650000000000         4.736779739114669E-006
   16.0550000000000         4.683536321188033E-006
   16.2450000000000         4.440650469885347E-006
   16.4350000000000         4.011854456356851E-006
   16.6250000000000         3.418233967743253E-006
   16.8150000000000         2.693586347185638E-006
   17.0050000000000         1.881738749751403E-006
   17.1950000000000         1.033785154214050E-006
   17.3850000000000         2.030057669483936E-007
   17.5750000000000        -5.578260870427097E-007
   17.7650000000000        -1.199731572096077E-006
   17.9550000000000        -1.687394700233777E-006
   18.1450000000000        -1.994549999469566E-006
   18.3350000000000        -2.104070277814267E-006
   18.5250000000000        -2.011540524978239E-006
   18.7150000000000        -1.735435485174544E-006
   18.9050000000000        -1.290004133511948E-006
   19.0950000000000        -7.075028102135390E-007
   19.2850000000000        -2.683802490101901E-008
   19.4750000000000         7.058465419842662E-007
   19.6650000000000         1.439926681320428E-006
   19.8550000000000         2.122848745903133E-006
   20.0450000000000         2.703576164296862E-006
   20.2350000000000         3.132055765587671E-006
   20.4250000000000         3.371767131487386E-006
   20.6150000000000         3.396120194827382E-006
   20.8050000000000         3.194891499477106E-006
   20.9950000000000         2.771355493215816E-006
   21.1850000000000         2.148341654151873E-006
   21.3750000000000         1.361015926476018E-006
   21.5650000000000         4.608549468793203E-007
   21.7550000000000        -4.922587189048643E-007
   21.9450000000000        -1.433093418432426E-006
   22.1350000000000        -2.298434867048243E-006
   22.3250000000000        -3.030606967628590E-006
   22.5150000000000        -3.584069971161517E-006
   22.7050000000000        -3.927521822186507E-006
   22.8950000000000        -4.039240217121485E-006
   23.0850000000000        -3.931446920696316E-006
   23.2750000000000        -3.613889215013754E-006
   23.4650000000000        -3.117559524115189E-006
   23.6550000000000        -2.485188080915324E-006
   23.8450000000000        -1.775034646186006E-006
   24.0350000000000        -1.033330985363400E-006
   24.2250000000000        -3.178260968838149E-007
   24.4150000000000         3.142397121258955E-007
   24.6050000000000         8.130687208099160E-007
   24.7950000000000         1.142910300261560E-006
   24.9850000000000         1.269311676135588E-006
   25.1750000000000         1.172181217564188E-006
   25.3650000000000         8.535003314518608E-007
   25.5550000000000         3.272674090244432E-007
   25.7450000000000        -3.711711879706274E-007
   25.9350000000000        -1.189754875607359E-006
   26.1250000000000        -2.063214492598662E-006
   26.3150000000000        -2.918073597041080E-006
   26.5050000000000        -3.672667593974175E-006
   26.6950000000000        -4.254628108430817E-006
   26.8850000000000        -4.602262564965142E-006
   27.0750000000000        -4.670778701109889E-006
   27.2650000000000        -4.433380061706114E-006
   27.4550000000000        -3.889611188271588E-006
   27.6450000000000        -3.064324273492547E-006
   27.8350000000000        -2.004832439406343E-006
   28.0250000000000        -7.781866064600239E-007
   28.2150000000000         5.341205711109497E-007
   28.4050000000000         1.841651320382190E-006
   28.5950000000000         3.063252098500877E-006
   28.7850000000000         4.113353018442395E-006
   28.9750000000000         4.925124432048759E-006
   29.1650000000000         5.443419175833646E-006
   29.3550000000000         5.637089741056429E-006
   29.5450000000000         5.507804783508035E-006
   29.7350000000000         5.058075329714444E-006
   29.9250000000000         4.327380567220382E-006
   30.1150000000000         3.372141741576640E-006
   30.3050000000000         2.265575472916784E-006
   30.4950000000000         1.091863591652546E-006
   30.6850000000000        -5.963960596251046E-008
   30.8750000000000        -1.090005453327120E-006
   31.0650000000000        -1.918280707528504E-006
   31.2550000000000        -2.480469520185273E-006
   31.4450000000000        -2.720083247096571E-006
   31.6350000000000        -2.613752177225495E-006
   31.8250000000000        -2.165760104174454E-006
   32.0150000000000        -1.411072442996410E-006
   32.2050000000000        -4.115646697817303E-007
   32.3950000000000         7.521555997886913E-007
   32.5850000000000         1.979977842832234E-006
   32.7750000000000         3.170751033507859E-006
   32.9650000000000         4.226685581945290E-006
   33.1550000000000         5.062436501677913E-006
   33.3450000000000         5.612286093333883E-006
   33.5350000000000         5.837168691916961E-006
   33.7250000000000         5.723564649336134E-006
   33.9150000000000         5.289104168208102E-006
   34.1050000000000         4.574313962872543E-006
   34.2950000000000         3.648480301084546E-006
   34.4850000000000         2.589799503168938E-006
   34.6750000000000         1.479623261020003E-006
   34.8650000000000         4.060954196004904E-007
   35.0550000000000        -5.490043416655232E-007
   35.2450000000000        -1.314538527519661E-006
   35.4350000000000        -1.835630630763729E-006
   35.6250000000000        -2.073276960330726E-006
   35.8150000000000        -2.010221258930906E-006
   36.0050000000000        -1.659820035710672E-006
   36.1950000000000        -1.039966437536546E-006
   36.3850000000000        -1.979315099431413E-007
   36.5750000000000         8.059769650108171E-007
   36.7650000000000         1.899809970157128E-006
   36.9550000000000         3.004654958034027E-006
   37.1450000000000         4.040099841352103E-006
   37.3350000000000         4.935144193756570E-006
   37.5250000000000         5.630233587146138E-006
   37.7150000000000         6.082567943668955E-006
   37.9050000000000         6.272076912965441E-006
   38.0950000000000         6.198078702472794E-006
   38.2850000000000         5.876323209933652E-006
   38.4750000000000         5.349143317731994E-006
   38.6650000000000         4.674274272216160E-006
   38.8550000000000         3.911546030059076E-006
   39.0450000000000         3.125986718578914E-006
   39.2350000000000         2.376081510085904E-006
   39.4250000000000         1.713755950373912E-006
   39.6150000000000         1.178196377641263E-006
   39.8050000000000         7.952991864657319E-007
   39.9950000000000         5.748935403856847E-007
   40.1850000000000         5.123502482186257E-007
   40.3750000000000         5.924142907530489E-007
   40.5650000000000         7.801380613260748E-007
   40.7550000000000         1.055138812918281E-006
   40.9450000000000         1.378643876609244E-006
   41.1350000000000         1.713994953928785E-006
   41.3250000000000         2.025025744102909E-006
   41.5150000000000         2.280982455222326E-006
   41.7050000000000         2.443095109230269E-006
   41.8950000000000         2.488779134479070E-006
   42.0850000000000         2.409728121825727E-006
   42.2750000000000         2.187444502830915E-006
   42.4650000000000         1.823723718323935E-006
   42.6550000000000         1.328614120361544E-006
   42.8450000000000         7.215260640212779E-007
   43.0350000000000         3.033226144502466E-008
   43.2250000000000        -7.109808897376211E-007
   43.4150000000000        -1.464118123127120E-006
   43.6050000000000        -2.190694057051956E-006
   43.7950000000000        -2.855778356024446E-006
   43.9850000000000        -3.428536677603052E-006
   44.1750000000000        -3.885868820705372E-006
   44.3650000000000        -4.212722409605768E-006
   44.5550000000000        -4.402111302995480E-006
   44.7450000000000        -4.456739769742380E-006
   44.9350000000000        -4.373636960740276E-006
   45.1250000000000        -4.163261264945871E-006
   45.3150000000000        -3.851029853394760E-006
   45.5050000000000        -3.437719035960957E-006
   45.6950000000000        -2.941717935142590E-006
   45.8850000000000        -2.378623564892063E-006
   46.0750000000000        -1.766009153936338E-006
   46.2650000000000        -1.123709392492519E-006
   46.4550000000000        -4.733837548946421E-007
   46.6450000000000         1.602657308119782E-007
   46.8350000000000         7.522593145447641E-007
   47.0250000000000         1.282871980884077E-006
   47.2150000000000         1.735932215988579E-006
   47.4050000000000         2.091846334380021E-006
   47.5950000000000         2.344561034712431E-006
   47.7850000000000         2.497163332501042E-006
   47.9750000000000         2.556758732800814E-006
   48.1650000000000         2.540385498422465E-006
   48.3550000000000         2.467860400193589E-006
   48.5450000000000         2.359201552938636E-006
   48.7350000000000         2.238376642545615E-006
   48.9250000000000         2.125601254810238E-006
   49.1150000000000         2.041944462466775E-006
   49.3050000000000         1.992218143243133E-006
   49.4950000000000         1.993553070268470E-006
   49.6850000000000         2.035787921147506E-006
   49.8750000000000         2.127225035072189E-006
   50.0650000000000         2.262282222502360E-006
   50.2550000000000         2.426160676407152E-006
   50.4450000000000         2.623895065028905E-006
   50.6350000000000         2.844159269763852E-006
   50.8250000000000         3.079423590796581E-006
   51.0150000000000         3.321134566281569E-006
   51.2050000000000         3.553083702460204E-006
   51.3950000000000         3.765524931011370E-006
   51.5850000000000         3.953235898989224E-006
   51.7750000000000         4.097143967917919E-006
   51.9650000000000         4.188926694364447E-006
   52.1550000000000         4.222822364841957E-006
   52.3450000000000         4.197709313013201E-006
   52.5350000000000         4.114049092098207E-006
   52.7250000000000         3.989766078004203E-006
   52.9150000000000         3.834210953286737E-006
   53.1050000000000         3.660673363237439E-006
   53.2950000000000         3.484491565706773E-006
   53.4850000000000         3.323403737028864E-006
   53.6750000000000         3.189225976141296E-006
   53.8650000000000         3.085101517760432E-006
   54.0550000000000         3.014783427258381E-006
   54.2450000000000         2.978768984447298E-006
   54.4350000000000         2.972727032484222E-006
   54.6250000000000         2.989544717342673E-006
   54.8150000000000         3.022302434107281E-006
   55.0050000000000         3.065809675799311E-006
   55.1950000000000         3.114912519243684E-006
   55.3850000000000         3.165405349431707E-006
   55.5750000000000         3.215453134674439E-006
   55.7650000000000         3.261205476917239E-006
   55.9550000000000         3.304685566254033E-006
   56.1450000000000         3.338069559609569E-006
   56.3350000000000         3.349738597276737E-006
   56.5250000000000         3.329712483807340E-006
   56.7150000000000         3.265814878833799E-006
   56.9050000000000         3.146190121014819E-006
   57.0950000000000         2.961269305273935E-006
   57.2850000000000         2.707441960826012E-006
   57.4750000000000         2.389459653380212E-006
   57.6650000000000         2.010656472415588E-006
   57.8550000000000         1.578803138929510E-006
   58.0450000000000         1.119663077490216E-006
   58.2350000000000         6.529608201439027E-007
   58.4250000000000         2.012832032777448E-007
   58.6150000000000        -2.114266928260698E-007
   58.8050000000000        -5.673046974734122E-007
   58.9950000000000        -8.434046843095525E-007
   59.1850000000000        -1.015718394734006E-006
   59.3750000000000        -1.081493355434283E-006
   59.5650000000000        -1.021148823995022E-006
   59.7550000000000        -8.316319961833686E-007
   59.9450000000000        -5.123332803395375E-007
   60.1350000000000        -7.643112230726035E-008
   60.3250000000000         4.701892326894376E-007
   60.5150000000000         1.104797976014567E-006
   60.7050000000000         1.798398793874887E-006
   60.8950000000000         2.514475167591631E-006
   61.0850000000000         3.208182052307283E-006
   61.2750000000000         3.833914061163024E-006
   61.4650000000000         4.346715229510505E-006
   61.6550000000000         4.706480777773339E-006
   61.8450000000000         4.882693923381362E-006
   62.0350000000000         4.858255953722720E-006
   62.2250000000000         4.628227902815246E-006
   62.4150000000000         4.201572652325262E-006
   62.6050000000000         3.617047205211456E-006
   62.7950000000000         2.917284116453098E-006
   62.9850000000000         2.158091819707369E-006
   63.1750000000000         1.398030366311711E-006
   63.3650000000000         6.985774470923733E-007
   63.5550000000000         1.158625763059044E-007
   63.7450000000000        -2.984359788527497E-007
   63.9350000000000        -5.187372052567873E-007
   64.1250000000000        -5.272913135513446E-007
   64.3150000000000        -3.269781501444038E-007
   64.5050000000000         6.588267956725142E-008
   64.6950000000000         6.229609121425663E-007
   64.8850000000000         1.299540780930754E-006
   65.0750000000000         2.034614609637830E-006
   65.2650000000000         2.772385212581578E-006
   65.4550000000000         3.452451399942242E-006
   65.6450000000000         4.016836775427402E-006
   65.8350000000000         4.416168926459969E-006
   66.0250000000000         4.609607643676805E-006
   66.2150000000000         4.576137796577524E-006
   66.4050000000000         4.308844209141707E-006
   66.5950000000000         3.823673365349916E-006
   66.7850000000000         3.155962045997212E-006
   66.9750000000000         2.359970176757009E-006
   67.1650000000000         1.502966105108211E-006
   67.3550000000000         6.608450258551204E-007
   67.5450000000000        -8.758483726253943E-008
   67.7350000000000        -6.660402412847873E-007
   67.9250000000000        -1.009550875586216E-006
   68.1150000000000        -1.073550916677815E-006
   68.3050000000000        -8.330622563448468E-007
   68.4950000000000        -2.918452806288786E-007
   68.6850000000000         5.249602079278903E-007
   68.8750000000000         1.567822081748732E-006
   69.0650000000000         2.767700191170378E-006
   69.2550000000000         4.040544509603774E-006
   69.4450000000000         5.296654413074311E-006
   69.6350000000000         6.451142165743336E-006
   69.8250000000000         7.423210758336265E-006
   70.0150000000000         8.144370868763029E-006
   70.2050000000000         8.566044655921409E-006
   70.3950000000000         8.660407669522064E-006
   70.5850000000000         8.421892843682842E-006
   70.7750000000000         7.872016976655721E-006
   70.9650000000000         7.052025822777671E-006
   71.1550000000000         6.019556187646484E-006
   71.3450000000000         4.848148641474227E-006
   71.5350000000000         3.621112562689331E-006
   71.7250000000000         2.426637144705371E-006
   71.9150000000000         1.349950777002544E-006
   72.1050000000000         4.679991780977007E-007
   72.2950000000000        -1.557433088959645E-007
   72.4850000000000        -4.792251567496477E-007
   72.6750000000000        -4.823772521186534E-007
   72.8650000000000        -1.698599363009250E-007
   73.0550000000000         4.262780938745147E-007
   73.2450000000000         1.251424772438421E-006
   73.4350000000000         2.234339323933157E-006
   73.6250000000000         3.291189297012533E-006
   73.8150000000000         4.333400686471291E-006
   74.0050000000000         5.275779304277224E-006
   74.1950000000000         6.043278576832617E-006
   74.3850000000000         6.577755261433333E-006
   74.5750000000000         6.836651858225135E-006
   74.7650000000000         6.818445895860386E-006
   74.9550000000000         6.524238759294230E-006
   75.1450000000000         5.999443286093061E-006
   75.3350000000000         5.290515345780038E-006
   75.5250000000000         4.466963793518171E-006
   75.7150000000000         3.607915457743297E-006
   75.9050000000000         2.792090081247083E-006
   76.0950000000000         2.090164959238194E-006
   76.2850000000000         1.565419232142687E-006
   76.4750000000000         1.265460991868939E-006
   76.6650000000000         1.215708775531446E-006
   76.8550000000000         1.427106638552983E-006
   77.0450000000000         1.890882865535733E-006
   77.2350000000000         2.571327651422799E-006
   77.4250000000000         3.413158600411678E-006
   77.6150000000000         4.347261420113313E-006
   77.8050000000000         5.302398479222834E-006
   77.9950000000000         6.198302449105741E-006
   78.1850000000000         6.957979514147708E-006
   78.3750000000000         7.513002606539196E-006
   78.5650000000000         7.814233450253008E-006
   78.7550000000000         7.819801168778950E-006
   78.9450000000000         7.531287661165048E-006
   79.1350000000000         6.952322566324206E-006
   79.3250000000000         6.124023990657292E-006
   79.5150000000000         5.102059394041144E-006
   79.7050000000000         3.958799495246131E-006
   79.8950000000000         2.775983334554992E-006
   80.0850000000000         1.638187661792945E-006
   80.2750000000000         6.278597046292541E-007
   80.4650000000000        -1.864600194867711E-007
   80.6550000000000        -7.509623412659794E-007
   80.8450000000000        -1.031037680324808E-006
   81.0350000000000        -1.017284669037940E-006
   81.2250000000000        -7.161907727430747E-007
   81.4150000000000        -1.546738252090838E-007
   81.6050000000000         6.223599900053239E-007
   81.7950000000000         1.555445020687941E-006
   81.9850000000000         2.576197494266110E-006
   82.1750000000000         3.610945980368713E-006
   82.3650000000000         4.595769438270389E-006
   82.5550000000000         5.468285952716945E-006
   82.7450000000000         6.176492228001958E-006
   82.9350000000000         6.682999832463733E-006
   83.1250000000000         6.964346020263498E-006
   83.3150000000000         7.014003090013617E-006
   83.5050000000000         6.843134130165879E-006
   83.6950000000000         6.474345678169488E-006
   83.8850000000000         5.943543909987168E-006
   84.0750000000000         5.297723139215951E-006
   84.2650000000000         4.585098252533240E-006
   84.4550000000000         3.857070478054284E-006
   84.6450000000000         3.160827014763688E-006
   84.8350000000000         2.537724812172087E-006
   85.0250000000000         2.018777278211644E-006
   85.2150000000000         1.624998330589707E-006
   85.4050000000000         1.366233290198054E-006
   85.5950000000000         1.240091620758059E-006
   85.7850000000000         1.237252725449132E-006
   85.9750000000000         1.340052750256937E-006
   86.1650000000000         1.526489226478926E-006
   86.3550000000000         1.772631653518393E-006
   86.5450000000000         2.054632692835439E-006
   86.7350000000000         2.350758987363523E-006
   86.9250000000000         2.643164563185571E-006
   87.1150000000000         2.918187415202039E-006
   87.3050000000000         3.166760510503228E-006
   87.4950000000000         3.384427012829813E-006
   87.6850000000000         3.571278015585694E-006
   87.8750000000000         3.729481412842849E-006
   88.0650000000000         3.865639502903220E-006
   88.2550000000000         3.979047678059636E-006
   88.4450000000000         4.081238174882546E-006
   88.6350000000000         4.177995706702551E-006
   88.8250000000000         4.284807342743170E-006
   89.0150000000000         4.406532188353088E-006
   89.2050000000000         4.557497821359225E-006
   89.3950000000000         4.746580846572909E-006
   89.5850000000000         4.980702478639639E-006
   89.7750000000000         5.264769296543782E-006
   89.9650000000000         5.600846733430626E-006
   90.1550000000000         5.986698382102498E-006
   90.3450000000000         6.415554545020675E-006
   90.5350000000000         6.879099105782894E-006
   90.7250000000000         7.354090483401799E-006
   90.9150000000000         7.820184500446391E-006
   91.1050000000000         8.251056528690460E-006
   91.2950000000000         8.618333384079526E-006
   91.4850000000000         8.893383378576402E-006
   91.6750000000000         9.051743898491691E-006
   91.8650000000000         9.070285938889792E-006
   92.0550000000000         8.932193530099652E-006
   92.2450000000000         8.631005983496758E-006
   92.4350000000000         8.165958675083151E-006
   92.6250000000000         7.546467308931747E-006
   92.8150000000000         6.793165811737267E-006
   93.0050000000000         5.936303148031436E-006
   93.1950000000000         5.014339480926402E-006
   93.3850000000000         4.072203650451245E-006
   93.5750000000000         3.158846626525916E-006
   93.7650000000000         2.324226855827030E-006
   93.9550000000000         1.616257337252317E-006
   94.1450000000000         1.076959019558302E-006
   94.3350000000000         7.395459836594578E-007
   94.5250000000000         6.258964264443584E-007
   94.7150000000000         7.434323894332901E-007
   94.9050000000000         1.096328403281422E-006
   95.0950000000000         1.652260105735492E-006
   95.2850000000000         2.385170555828963E-006
   95.4750000000000         3.248339922282359E-006
   95.6650000000000         4.187897319949980E-006
   95.8550000000000         5.147366733830476E-006
   96.0450000000000         6.069737007843146E-006
   96.2350000000000         6.902109756948600E-006
   96.4250000000000         7.600145800668268E-006
   96.6150000000000         8.130255626954405E-006
   96.8050000000000         8.474011241424328E-006
   96.9950000000000         8.626369463672885E-006
   97.1850000000000         8.596084290371919E-006
   97.3750000000000         8.412294137547406E-006
   97.5650000000000         8.098647252906263E-006
   97.7550000000000         7.698443887126740E-006
   97.9450000000000         7.254047418678503E-006
   98.1350000000000         6.807583164159980E-006
   98.3250000000000         6.397408493976684E-006
   98.5150000000000         6.055250783715928E-006
   98.7050000000000         5.804163877269827E-006
   98.8950000000000         5.653100735320749E-006
   99.0850000000000         5.618115602013468E-006
   99.2750000000000         5.676933958789472E-006
   99.4650000000000         5.824063180509496E-006
   99.6550000000000         6.033341136356677E-006
   99.8450000000000         6.272516291991397E-006
   100.035000000000         6.518738474780322E-006
   100.225000000000         6.733705586305262E-006
   100.415000000000         6.895676884319901E-006
   100.605000000000         6.977864184660799E-006
   100.795000000000         6.962582248096329E-006
   100.985000000000         6.837154782292566E-006
   101.175000000000         6.606006792896139E-006
   101.365000000000         6.274978421164930E-006
   101.555000000000         5.862820116365758E-006
   101.745000000000         5.394906888802809E-006
   101.935000000000         4.901143566829644E-006
   102.125000000000         4.414993886183736E-006
   102.315000000000         3.969416470409809E-006
   102.505000000000         3.594893364665040E-006
   102.695000000000         3.315178108789343E-006
   102.885000000000         3.148302538388926E-006
   103.075000000000         3.105286566304956E-006
   103.265000000000         3.189175279100322E-006
   103.455000000000         3.391544029920144E-006
   103.645000000000         3.700261955117928E-006
   103.835000000000         4.096915457949641E-006
   104.025000000000         4.554049671523188E-006
   104.215000000000         5.050174783882493E-006
   104.405000000000         5.562153832446817E-006
   104.595000000000         6.066487725420843E-006
   104.785000000000         6.541712699901750E-006
   104.975000000000         6.968373514669659E-006
   105.165000000000         7.330603499885489E-006
   105.355000000000         7.611188646199855E-006
   105.545000000000         7.800516822722325E-006
   105.735000000000         7.893969696382786E-006
   105.925000000000         7.899026898298799E-006
   106.115000000000         7.805397022769828E-006
   106.305000000000         7.628050159978404E-006
   106.495000000000         7.380241044462780E-006
   106.685000000000         7.080795133471611E-006
   106.875000000000         6.751496607971723E-006
   107.065000000000         6.415639385224787E-006
   107.255000000000         6.096468865530662E-006
   107.445000000000         5.814759527172018E-006
   107.635000000000         5.587361240563897E-006
   107.825000000000         5.426560486869822E-006
   108.015000000000         5.338291201544135E-006
   108.205000000000         5.321198249453618E-006
   108.395000000000         5.376519512579707E-006
   108.585000000000         5.494525787037148E-006
   108.775000000000         5.665285699042972E-006
   108.965000000000         5.867720778279101E-006
   109.155000000000         6.096485201072863E-006
   109.345000000000         6.337466893548649E-006
   109.535000000000         6.579349043711005E-006
   109.725000000000         6.811722597368789E-006
   109.915000000000         7.025219130871450E-006
   110.105000000000         7.211838824732162E-006