  -1.79550000000000         0.000000000000000E+000
  -1.55610000000000         0.000000000000000E+000
  -1.31670000000000         0.000000000000000E+000
  -1.07730000000000         0.000000000000000E+000
 -0.837900000000000         0.000000000000000E+000
 -0.598500000000000         0.000000000000000E+000
 -0.359100000000000         0.000000000000000E+000
 -0.119700000000000         0.000000000000000E+000
  0.119700000000000         0.000000000000000E+000
  0.359100000000000         0.000000000000000E+000
  0.598500000000000         0.000000000000000E+000
  0.837900000000000         0.000000000000000E+000
   1.07730000000000         0.000000000000000E+000
   1.31670000000000         0.000000000000000E+000
   1.55610000000000         0.000000000000000E+000
   1.79550000000000         0.000000000000000E+000
   2.03490000000000         0.000000000000000E+000
   2.27430000000000         0.000000000000000E+000
   2.51370000000000         0.000000000000000E+000
   2.75310000000000         0.000000000000000E+000
   2.99250000000000         0.000000000000000E+000
   3.23190000000000         0.000000000000000E+000
   3.47130000000000         0.000000000000000E+000
   3.71070000000000         0.000000000000000E+000
   3.95010000000000         0.000000000000000E+000
   4.18950000000000         0.000000000000000E+000
   4.42890000000000         0.000000000000000E+000
   4.66830000000000         0.000000000000000E+000
   4.90770000000000         0.000000000000000E+000
   5.14710000000000         0.000000000000000E+000
   5.38650000000000         0.000000000000000E+000
   5.62590000000000         0.000000000000000E+000
   5.86530000000000         0.000000000000000E+000
   6.10470000000000         0.000000000000000E+000
   6.34410000000000         0.000000000000000E+000
   6.58350000000000         0.000000000000000E+000
   6.82290000000000         0.000000000000000E+000
   7.06230000000000         0.000000000000000E+000
   7.30170000000000         0.000000000000000E+000
   7.54110000000000         0.000000000000000E+000
   7.78050000000000         0.000000000000000E+000
   8.01990000000000         0.000000000000000E+000
   8.25930000000000         0.000000000000000E+000
   8.49870000000000         0.000000000000000E+000
   8.73810000000000         0.000000000000000E+000
   8.97750000000000         0.000000000000000E+000
   9.21690000000000         0.000000000000000E+000
   9.45630000000000         0.000000000000000E+000
   9.69570000000000        -2.134455124069122E-191
   9.93510000000000         7.305450244940579E-179
   10.1745000000000        -1.403795560013276E-176
   10.4139000000000        -7.200601412460040E-176
   10.6533000000000         2.893884749109260E-172
   10.8927000000000         2.406686316793705E-170
   11.1321000000000         1.034209126961492E-168
   11.3715000000000         3.022838583583917E-167
   11.6109000000000         6.727149772111375E-166
   11.8503000000000         1.213584264670043E-164
   12.0897000000000         1.847761517301659E-163
   12.3291000000000         2.442818001649315E-162
   12.5685000000000         2.864400595243982E-161
   12.8079000000000         3.028871167362268E-160
   13.0473000000000         2.927021453567846E-159
   13.2867000000000         2.613403092432103E-158
   13.5261000000000         2.175301145445209E-157
   13.7655000000000         1.700429479964683E-156
   14.0049000000000         1.255770610965467E-155
   14.2443000000000         8.803024464686405E-155
   14.4837000000000         5.879325942769390E-154
   14.7231000000000         3.751674428197708E-153
   14.9625000000000         2.292208763289186E-152
   15.2019000000000         1.343134090333629E-151
   15.4413000000000         7.557286487378855E-151
   15.6807000000000         4.087258805271672E-150
   15.9201000000000         2.126617877261215E-149
   16.1595000000000         1.065293197114288E-148
   16.3989000000000         5.141371391428759E-148
   16.6383000000000         2.392276999410849E-147
   16.8777000000000         1.073856740911667E-146
   17.1171000000000         4.653169758310987E-146
   17.3565000000000         1.947446276934409E-145
   17.5959000000000         7.876206690642531E-145
   17.8353000000000         3.079577050831729E-144
   18.0747000000000         1.164476555250646E-143
   18.3141000000000         4.259145645482043E-143
   18.5535000000000         1.506879809396143E-142
   18.7929000000000         5.156013661665081E-142
   19.0323000000000         1.705348383811308E-141
   19.2717000000000         5.447280856526820E-141
   19.5111000000000         1.677877475468216E-140
   19.7505000000000         4.971824748782708E-140
   19.9899000000000         1.411890892616634E-139
   20.2293000000000         3.818987942165891E-139
   20.4687000000000         9.736584655828315E-139
   20.7081000000000         2.294615198293386E-138
   20.9475000000000         4.792908239993966E-138
   21.1869000000000         7.868283359529478E-138
   21.4263000000000         4.555935425692280E-138
   21.6657000000000        -3.878601590884936E-137
   21.9051000000000        -2.517617053117173E-136
   22.1445000000000        -1.079220872368526E-135
   22.3839000000000        -3.937241143915837E-135
   22.6233000000000        -1.308692058619075E-134
   22.8627000000000        -4.077630450721871E-134
   23.1021000000000        -1.208461860565618E-133
   23.3415000000000        -3.435231715136464E-133
   23.5809000000000        -9.415097052828244E-133
   23.8203000000000        -2.496170906849895E-132
   24.0597000000000        -6.415326529148239E-132
   24.2991000000000        -1.600317938040430E-131
   24.5385000000000        -3.877051033027764E-131
   24.7779000000000        -9.122732230418046E-131
   25.0173000000000        -2.083822241996280E-130
   25.2567000000000        -4.615683166308218E-130
   25.4961000000000        -9.896149492643959E-130
   25.7355000000000        -2.048088627889767E-129
   25.9749000000000        -4.074435144419636E-129
   26.2143000000000        -7.741449282368143E-129
   26.4537000000000        -1.390181793042658E-128
   26.6931000000000        -2.316244635189476E-128
   26.9325000000000        -3.448221056656024E-128
   27.1719000000000        -4.153286462614471E-128
   27.4113000000000        -2.446217732154547E-128
   27.6507000000000         6.686480560088485E-128
   27.8901000000000         3.436246006341581E-127
   28.1295000000000         1.028031135344164E-126
   28.3689000000000         2.521050451629972E-126
   28.6083000000000         5.462676028872143E-126
   28.8477000000000         1.069933377692483E-125
   29.0871000000000         1.894376375927320E-125
   29.3265000000000         2.967207557549116E-125
   29.5659000000000         3.841825043903726E-125
   29.8053000000000         3.113890408582281E-125
   30.0447000000000        -2.600765290263616E-125
   30.2841000000000        -2.025200740421783E-124
   30.5235000000000        -6.227920375062308E-124
   30.7629000000000        -1.477023246951720E-123
   31.0023000000000        -2.990861496888318E-123
   31.2417000000000        -5.280308035423966E-123
   31.4811000000000        -7.952406772380692E-123
   31.7205000000000        -9.225289635971786E-123
   31.9599000000000        -4.269548272803309E-123
   32.1993000000000         1.747700182844948E-122
   32.4387000000000         7.586389671069700E-122
   32.6781000000000         2.031139169770578E-121
   32.9175000000000         4.425329372025353E-121
   33.1569000000000         8.343616275605812E-121
   33.3963000000000         1.373743941174022E-120
   33.6357000000000         1.919540151080671E-120
   33.8751000000000         2.034303561783281E-120
   34.1145000000000         7.629022272557728E-121
   34.3539000000000        -3.555941260023729E-120
   34.5933000000000        -1.315014948512843E-119
   34.8327000000000        -2.966986568698511E-119
   35.0721000000000        -5.075653337637906E-119
   35.3115000000000        -6.230481679176787E-119
   35.5509000000000        -2.396162831407286E-119
   35.7903000000000         1.535429174103753E-118
   36.0297000000000         6.355915622618982E-118
   36.2691000000000         1.678214195433021E-117
   36.5085000000000         3.583896743147742E-117
   36.7479000000000         6.500307940342152E-117
   36.9873000000000         9.882986753261021E-117
   37.2267000000000         1.134369645011267E-116
   37.4661000000000         4.534810704404390E-117
   37.7055000000000        -2.420053672049561E-116
   37.9449000000000        -1.001981537504855E-115
   38.1843000000000        -2.643094382110047E-115
   38.4237000000000        -5.717857996420723E-115
   38.6631000000000        -1.076582987905311E-114
   38.9025000000000        -1.783310138220833E-114
   39.1419000000000        -2.538470671090036E-114
   39.3813000000000        -2.822989776365763E-114
   39.6207000000000        -1.408407808237612E-114
   39.8601000000000         4.131490790146486E-114
   40.0995000000000         1.797011245441652E-113
   40.3389000000000         4.635083696413828E-113
   40.5783000000000         9.701680580410966E-113
   40.8177000000000         1.764768271679910E-112
   41.0571000000000         2.830190162304445E-112
   41.2965000000000         3.925351684673096E-112
   41.5359000000000         4.338602985342587E-112
   41.7753000000000         2.515593746581356E-112
   42.0147000000000        -4.411670192142303E-112
   42.2541000000000        -2.105637902264561E-111
   42.4935000000000        -5.381914209236112E-111
   42.7329000000000        -1.098468034843548E-110
   42.9723000000000        -1.937359540039148E-110
   43.2117000000000        -3.002781582999364E-110
   43.4511000000000        -4.012029074924688E-110
   43.6905000000000        -4.242394708722392E-110
   43.9299000000000        -2.247953095318370E-110
   44.1693000000000         4.445061845812531E-110
   44.4087000000000         1.951571742782406E-109
   44.6481000000000         4.759162276899859E-109
   44.8875000000000         9.302696491705103E-109
   45.1269000000000         1.569252604122058E-108
   45.3663000000000         2.314187086441605E-108
   45.6057000000000         2.902845099181786E-108
   45.8451000000000         2.756732464913908E-108
   46.0845000000000         8.258390026286222E-109
   46.3239000000000        -4.535778111067027E-108
   46.5633000000000        -1.554831319048872E-107
   46.8027000000000        -3.463426752166878E-107
   47.0421000000000        -6.338567614075051E-107
   47.2815000000000        -1.004685138532428E-106
   47.5209000000000        -1.380562276112947E-106
   47.7603000000000        -1.565876814036696E-106
   47.9997000000000        -1.182446143251891E-106
   48.2391000000000         3.922014600536215E-107
   48.4785000000000         4.045584650054696E-106
   48.7179000000000         1.084146917151117E-105
   48.9573000000000         2.171394512163612E-105
   49.1967000000000         3.679908927989121E-105
   49.4361000000000         5.424304363686251E-105
   49.6755000000000         6.836862282042917E-105
   49.9149000000000         6.724282546582675E-105
   50.1543000000000         3.004217515514753E-105
   50.3937000000000        -7.475307594176506E-105
   50.6331000000000        -2.883278538597843E-104
   50.8725000000000        -6.543525773394638E-104
   51.1119000000000        -1.200902232473125E-103
   51.3513000000000        -1.905638429916323E-103
   51.5907000000000        -2.638654438260406E-103
   51.8301000000000        -3.080517097931339E-103
   52.0695000000000        -2.621337200451794E-103
   52.3089000000000        -2.629671160392673E-104
   52.5483000000000         5.426549876360065E-103
   52.7877000000000         1.621782378193777E-102
   53.0271000000000         3.384604682240589E-102
   53.2665000000000         5.916831194673726E-102
   53.5059000000000         9.062953011234845E-102
   53.7453000000000         1.218364530753618E-101
   53.9847000000000         1.381759254524615E-101
   54.2241000000000         1.127473948453707E-101
   54.4635000000000         2.512754366501040E-103
   54.7029000000000        -2.533995523954535E-101
   54.9423000000000        -7.298050686347621E-101
   55.1817000000000        -1.500661176277125E-100
   55.4211000000000        -2.606021816137496E-100
   55.6605000000000        -3.992008147848735E-100
   55.8999000000000        -5.415546424176347E-100
   56.1393000000000        -6.310147856365145E-100
   56.3787000000000        -5.620633917653832E-100
   56.6181000000000        -1.637356371281141E-100
   56.8575000000000         8.101710607081606E-100
   57.0969000000000         2.671661049086151E-099
   57.3363000000000         5.750098793695107E-099
   57.5757000000000         1.027680583965676E-098
   57.8151000000000         1.616807576210840E-098
   58.0545000000000         2.267143476882747E-098
   58.2939000000000         2.785323413739031E-098
   58.5333000000000         2.794410412701201E-098
   58.7727000000000         1.663723019075984E-098
   59.0121000000000        -1.543093054111885E-098
   59.2515000000000        -8.058433675574831E-098
   59.4909000000000        -1.926904105640414E-097
   59.7303000000000        -3.634065553964572E-097
   59.9697000000000        -5.948051764761318E-097
   60.2091000000000        -8.670249615902430E-097
   60.4485000000000        -1.119998397049440E-096
   60.6879000000000        -1.229569893600262E-096
   60.9273000000000        -9.809494048363348E-097
   61.1667000000000        -4.698261875793359E-098
   61.4061000000000         2.014442194584922E-096
   61.6455000000000         5.720460324481457E-096
   61.8849000000000         1.154712927589167E-095
   62.1243000000000         1.969482084611290E-095
   62.3637000000000         2.969085197663664E-095
   62.6031000000000         3.979844567151378E-095
   62.8425000000000         4.624173812339791E-095
   63.0819000000000         4.233922447402889E-095
   63.3213000000000         1.777755153210309E-095
   63.5607000000000        -4.153704034626647E-095
   63.8001000000000        -1.523476023658410E-094
   64.0395000000000        -3.306462567513588E-094
   64.2789000000000        -5.847906508786303E-094
   64.5183000000000        -9.039145454889359E-094
   64.7577000000000        -1.240855439853148E-093
   64.9971000000000        -1.490041140060212E-093
   65.2365000000000        -1.463138852709022E-093
   65.4759000000000        -8.691065552216042E-094
   65.7153000000000         6.892715519194458E-094
   65.9547000000000         3.683562728818927E-093
   66.1941000000000         8.566913588893186E-093
   66.4335000000000         1.559003722223954E-092
   66.6729000000000         2.449726984097458E-092
   66.9123000000000         3.408766247569637E-092
   67.1517000000000         4.165917557497222E-092
   67.3911000000000         4.241446929213613E-092
   67.6305000000000         2.900054301768321E-092
   67.8699000000000        -8.518282887789061E-093
   68.1093000000000        -8.180543879731321E-092
   68.3487000000000        -2.019264933682171E-091
   68.5881000000000        -3.748910928635301E-091
   68.8275000000000        -5.944864491646836E-091
   69.0669000000000        -8.321967742443332E-091
   69.3063000000000        -1.024807449407447E-090
   69.5457000000000        -1.061674900527564E-090
   69.7851000000000        -7.756865463389675E-091
   70.0245000000000         5.542332090410574E-092
   70.2639000000000         1.687823384280265E-090
   70.5033000000000         4.358368230862791E-090
   70.7427000000000         8.186647780438155E-090
   70.9821000000000         1.302239158755065E-089
   71.2215000000000         1.823717250410121E-089
   71.4609000000000         2.247686550762145E-089
   71.7003000000000         2.341971998817661E-089
   71.9397000000000         1.762489096306397E-089
   72.1791000000000         6.053594457530689E-091
   72.4185000000000        -3.269038943091621E-089
   72.6579000000000        -8.676699778792857E-089
   72.8973000000000        -1.636220503366809E-088
   73.1367000000000        -2.597922630956104E-088
   73.3761000000000        -3.624494127584794E-088
   73.6155000000000        -4.449330955235096E-088
   73.8549000000000        -4.626355933268248E-088
   74.0943000000000        -3.508624478693391E-088
   74.3337000000000        -2.711535706581817E-089
   74.5731000000000         5.989775614173797E-088
   74.8125000000000         1.604409823194066E-087
   75.0519000000000         3.016857578625685E-087
   75.2913000000000         4.762319268711163E-087
   75.5307000000000         6.598191504105220E-087
   75.7701000000000         8.039770090143411E-087
   76.0095000000000         8.297123976071807E-087
   76.2489000000000         6.250737211352360E-087
   76.4883000000000         5.068565729312302E-088
   76.7277000000000        -1.041578934422954E-086
   76.9671000000000        -2.771213205916891E-086
   77.2065000000000        -5.168336486874273E-086
   77.4459000000000        -8.088092463832343E-086
   77.6853000000000        -1.110489849140633E-085
   77.9247000000000        -1.340127467407041E-085
   78.1641000000000        -1.367994197124521E-085
   78.4035000000000        -1.014487877599632E-085
   78.6429000000000        -6.145087041458005E-087
   78.8823000000000         1.715663560180700E-085
   79.1217000000000         4.486999728530840E-085
   79.3611000000000         8.273137055649218E-085
   79.6005000000000         1.281518882421130E-084
   79.8399000000000         1.741965457406038E-084
   80.0793000000000         2.080260073264106E-084
   80.3187000000000         2.097785966230066E-084
   80.5581000000000         1.525728588495576E-084
   80.7975000000000         4.535212855360516E-086
   81.0369000000000        -2.661000519146104E-084
   81.2763000000000        -6.818153879523730E-084
   81.5157000000000        -1.241922407804079E-083
   81.7551000000000        -1.904162665077715E-083
   81.9945000000000        -2.563437361174735E-083
   82.2339000000000        -3.031412185554826E-083
   82.4733000000000        -3.023438441927749E-083
   82.7127000000000        -2.162214377580749E-083
   82.9521000000000        -1.026653131911420E-085
   83.1915000000000         3.855335281384997E-083
   83.4309000000000         9.713991879854209E-083
   83.6703000000000         1.751205851152429E-082
   83.9097000000000         2.661847794132794E-082
   84.1491000000000         3.555072679973391E-082
   84.3885000000000         4.172362304754582E-082
   84.6279000000000         4.130727532359272E-082
   84.8673000000000         2.931608696201880E-082
   85.1067000000000         7.996763687648722E-085
   85.3461000000000        -5.174096844992203E-082
   85.5855000000000        -1.294629025583717E-081
   85.8249000000000        -2.319525160951665E-081
   86.0643000000000        -3.505723689729632E-081
   86.3037000000000        -4.658462852765197E-081
   86.5431000000000        -5.445266520029861E-081
   86.7825000000000        -5.381417236102710E-081
   87.0219000000000        -3.845010983441366E-081
   87.2613000000000        -1.393837608505812E-082
   87.5007000000000         6.378796379592493E-081
   87.7401000000000         1.609141953114274E-080
   87.9795000000000         2.882700291698390E-080
   88.2189000000000         4.350026893060041E-080
   88.4583000000000         5.772742598939852E-080
   88.6977000000000         6.749936659732778E-080
   88.9371000000000         6.703882563596654E-080
   89.1765000000000         4.900997317792350E-080
   89.4159000000000         5.278052665526231E-081
   89.6553000000000        -7.158428127581213E-080
   89.8947000000000        -1.858991178804581E-079
   90.1341000000000        -3.355741191608847E-079
   90.3735000000000        -5.080793819995100E-079
   90.6129000000000        -6.762258786366610E-079
   90.8523000000000        -7.946695815172106E-079
   91.0917000000000        -7.985236614168393E-079
   91.3311000000000        -6.058883151457781E-079
   91.5705000000000        -1.263758664100291E-079
   91.8099000000000         7.223571286478051E-079
   92.0493000000000         1.988668846674862E-078
   92.2887000000000         3.651550241508896E-078
   92.5281000000000         5.578073578163142E-078
   92.7675000000000         7.479238983324209E-078
   93.0069000000000         8.873930420722486E-078
   93.2463000000000         9.075235772169779E-078
   93.4857000000000         7.217486533713346E-078
   93.7251000000000         2.344742810990836E-078
   93.9645000000000        -6.419624670068682E-078
   94.2039000000000        -1.960912297488663E-077
   94.4433000000000        -3.705692015654399E-077
   94.6827000000000        -5.746894207341514E-077
   94.9221000000000        -7.798316413790608E-077
   95.1615000000000        -9.381074199848787E-077
   95.4009000000000        -9.809744211897085E-077
   95.6403000000000        -8.218152654020491E-077
   95.8797000000000        -3.644463650169610E-077
   96.1191000000000         4.806053030346631E-077
   96.3585000000000         1.770859194424827E-076
   96.5979000000000         3.497800271848065E-076
   96.8373000000000         5.546226253463920E-076
   97.0767000000000         7.652251316894816E-076
   97.3161000000000         9.368811245786646E-076
   97.5555000000000         1.005135928765091E-075
   97.7949000000000         8.879769869947151E-076
   98.0343000000000         4.934194231002377E-076
   98.2737000000000        -2.658646783723450E-076
   98.5131000000000        -1.449804317913049E-075
   98.7525000000000        -3.060185718210325E-075
   98.9919000000000        -5.003896454229285E-075
   99.2313000000000        -7.054727022832474E-075
   99.4707000000000        -8.821422634196527E-075
   99.7101000000000        -9.732971696563407E-075
   99.9495000000000        -9.054945667935233E-075
   100.188900000000        -5.952155739118073E-075
   100.428300000000         3.881827464034603E-076
   100.667700000000         1.056345472635709E-074
   100.907100000000         2.469333168519388E-074
   101.146500000000         4.210422785935400E-074
   101.385900000000         6.099788433389872E-074
   101.625300000000         7.816708076696812E-074
   101.864700000000         8.884843436989701E-074
   102.104100000000         8.682540574268302E-074
   102.343500000000         6.490673628831986E-074
   102.582900000000         1.589755242574789E-074
   102.822300000000        -6.585759559659705E-074
   103.061700000000        -1.823575050572800E-073
   103.301100000000        -3.293725328902183E-073
   103.540500000000        -4.937041352890395E-073
   103.779900000000        -6.507619449266062E-073
   104.019300000000        -7.631555734575572E-073
   104.258700000000        -7.811810811425868E-073
   104.498100000000        -6.461818805692864E-073
   104.737500000000        -2.977130063324768E-073
   104.976900000000         3.148374529901712E-073
   105.216300000000         1.216082661546133E-072
   105.455700000000         2.384741437105605E-072
   105.695100000000         3.732060145182688E-072
   105.934500000000         5.082089864713616E-072
   106.173900000000         6.158935709529524E-072
   106.413300000000         6.587483886568695E-072
   106.652700000000         5.914918814246325E-072
   106.892100000000         3.660083904932154E-072
   107.131500000000        -6.041095900119515E-073
   107.370900000000        -7.133941549036991E-072
   107.610300000000        -1.586883058271484E-071
   107.849700000000        -2.626967409011387E-071
   108.089100000000        -3.716585022891056E-071
   108.328500000000        -4.664645779127203E-071
   108.567900000000        -5.204152085201727E-071
   108.807300000000        -5.004521709962193E-071
   109.046700000000        -3.703240960194770E-071
   109.286100000000        -9.608285838417069E-072
   109.525500000000         3.459457450650412E-071
   109.764900000000         9.589909676764194E-071
   110.004300000000         1.714320538525980E-070
   110.243700000000         2.539947399692064E-070
   110.483100000000         3.311903142842093E-070
   110.722500000000         3.851134498161935E-070
   110.961900000000         3.929558318272432E-070
   111.201300000000         3.288841644364587E-070
   111.440700000000         1.674821870541513E-070
   111.680100000000        -1.111072030088785E-070
   111.919500000000        -5.144646915524415E-070
   112.158900000000        -1.030096395020887E-069
   112.398300000000        -1.617509294618249E-069
   112.637700000000        -2.201622411461833E-069
   112.877100000000        -2.669456586029857E-069
   113.116500000000        -2.872393325216530E-069
   113.355900000000        -2.636374640645672E-069
   113.595300000000        -1.782083618549694E-069
   113.834700000000        -1.562589112272626E-070
   114.074100000000         2.326248239437195E-069
   114.313500000000         5.632297196369217E-069
   114.552900000000         9.557614259240258E-069
   114.792300000000         1.367991964552763E-068
   115.031700000000         1.732977184688956E-068
   115.271100000000         1.959328700960918E-068
   115.510500000000         1.936181274983640E-068
   115.749900000000         1.544217841173073E-068
   115.989300000000         6.736438160842108E-069
   116.228700000000        -7.508605734730741E-069
   116.468100000000        -2.739462794276254E-068
   116.707500000000        -5.203689285484845E-068
   116.946900000000        -7.924951856009563E-068
   117.186300000000        -1.053184411762764E-067
   117.425700000000        -1.249455914097041E-067
   117.665100000000        -1.314559328315014E-067
   117.904500000000        -1.173541623382031E-067
   118.143900000000        -7.529486089504875E-068
   118.383300000000         5.155414691125940E-070
   118.622700000000         1.125365726363504E-067
   118.862100000000         2.578759734631654E-067
   119.101500000000         4.262910693397114E-067
   119.340900000000         5.985786527252331E-067
   119.580300000000         7.458236394373483E-067
   119.819700000000         8.300392088493158E-067
   120.059100000000         8.067263660724168E-067
   120.298500000000         6.297791212510888E-067
   120.537900000000         2.589369901891288E-067
   120.777300000000        -3.303761036736406E-067
   121.016700000000        -1.135485780392719E-066
   121.256100000000        -2.114439547188469E-066
   121.495500000000        -3.175437870937916E-066
   121.734900000000        -4.170253008033203E-066
   121.974300000000        -4.894598633082246E-066
   122.213700000000        -5.098517902470017E-066
   122.453100000000        -4.509467726812139E-066
   122.692500000000        -2.869742024007020E-066
   122.931900000000         1.190683388613954E-068
   123.171300000000         4.197138472282623E-066
   123.410700000000         9.549282217976722E-066
   123.650100000000         1.566846568765357E-065
   123.889500000000         2.184360987012289E-065
   124.128900000000         2.703707564521892E-065
   124.368300000000         2.991901180592790E-065
   124.607700000000         2.896731139646475E-065
   124.847100000000         2.264468308712871E-065
   125.086500000000         9.656037564744552E-066
   125.325900000000        -1.072307732483878E-065
   125.565300000000        -3.827252624851385E-065
   125.804700000000        -7.145255309009302E-065
   126.044100000000        -1.070915010395669E-064
   126.283500000000        -1.402169086984187E-064
   126.522900000000        -1.641207657393435E-064
   126.762300000000        -1.707486693085580E-064
   127.001700000000        -1.514857734495851E-064
   127.241100000000        -9.837591946464967E-065
   127.480500000000        -5.752060360818640E-066
   127.719900000000         1.278232386561970E-064
   127.959300000000         2.975042152528451E-064
   128.198700000000         4.902950805545712E-064
   128.438100000000         6.837651882554427E-064
   128.677500000000         8.458100448510626E-064
   128.916900000000         9.359408748406215E-064
   129.156300000000         9.085305165541502E-064
   129.395700000000         7.182930519673039E-064
   129.635100000000         3.280142979508789E-064
   129.874500000000        -2.818217719641517E-064
   130.113900000000        -1.102333182345079E-063
   130.353300000000        -2.085813105294742E-063
   130.592700000000        -3.137437704765339E-063
   130.832100000000        -4.111386606650599E-063
   131.071500000000        -4.813859992584330E-063
   131.310900000000        -5.015350650619985E-063
   131.550300000000        -4.473956108729200E-063
   131.789700000000        -2.970407074548018E-063
   132.029100000000        -3.538095247471673E-064
   132.268500000000         3.405103625779353E-063
   132.507900000000         8.158984656957580E-063
   132.747300000000         1.353557795649973E-062
   132.986700000000         1.890688998037201E-062
   133.226100000000         2.338808604524990E-062
   133.465500000000         2.587843876307042E-062
   133.704900000000         2.515468598895229E-062
   133.944300000000         2.002266620119432E-062
   134.183700000000         9.525812398637009E-063
   134.423100000000        -6.800915600722195E-063
   134.662500000000        -2.865522733865469E-062
   134.901900000000        -5.470652980574685E-062
   135.141300000000        -8.239883171005733E-062
   135.380700000000        -1.078757435756907E-061
   135.620100000000        -1.260890107481642E-061
   135.859500000000        -1.311463572738677E-061
   136.098900000000        -1.169372743673519E-061
   136.338300000000        -7.804501701915202E-062
   136.577700000000        -1.090923799705539E-062
   136.817100000000         8.485170985014402E-062
   137.056500000000         2.051121649820363E-061
   137.295900000000         3.401194565645816E-061
   137.535300000000         4.738492175983990E-061
   137.774700000000         5.841290344272364E-061
   138.014100000000         6.438134963608821E-061
   138.253500000000         6.232329435722976E-061
   138.492900000000         4.940171360010691E-061
   138.732300000000         2.342099857151216E-061