  -1.79550000000000         0.000000000000000E+000
  -1.55610000000000         0.000000000000000E+000
  -1.31670000000000         0.000000000000000E+000
  -1.07730000000000         0.000000000000000E+000
 -0.837900000000000         0.000000000000000E+000
 -0.598500000000000         0.000000000000000E+000
 -0.359100000000000         0.000000000000000E+000
 -0.119700000000000         0.000000000000000E+000
  0.119700000000000         0.000000000000000E+000
  0.359100000000000         0.000000000000000E+000
  0.598500000000000         0.000000000000000E+000
  0.837900000000000         0.000000000000000E+000
   1.07730000000000         0.000000000000000E+000
   1.31670000000000         0.000000000000000E+000
   1.55610000000000         0.000000000000000E+000
   1.79550000000000         0.000000000000000E+000
   2.03490000000000         0.000000000000000E+000
   2.27430000000000         0.000000000000000E+000
   2.51370000000000         0.000000000000000E+000
   2.75310000000000         0.000000000000000E+000
   2.99250000000000         0.000000000000000E+000
   3.23190000000000         0.000000000000000E+000
   3.47130000000000         0.000000000000000E+000
   3.71070000000000         0.000000000000000E+000
   3.95010000000000         0.000000000000000E+000
   4.18950000000000         0.000000000000000E+000
   4.42890000000000         0.000000000000000E+000
   4.66830000000000         0.000000000000000E+000
   4.90770000000000         0.000000000000000E+000
   5.14710000000000         0.000000000000000E+000
   5.38650000000000         0.000000000000000E+000
   5.62590000000000         0.000000000000000E+000
   5.86530000000000         0.000000000000000E+000
   6.10470000000000         0.000000000000000E+000
   6.34410000000000         0.000000000000000E+000
   6.58350000000000         0.000000000000000E+000
   6.82290000000000         0.000000000000000E+000
   7.06230000000000         0.000000000000000E+000
   7.30170000000000         0.000000000000000E+000
   7.54110000000000         0.000000000000000E+000
   7.78050000000000         0.000000000000000E+000
   8.01990000000000         0.000000000000000E+000
   8.25930000000000         0.000000000000000E+000
   8.49870000000000         0.000000000000000E+000
   8.73810000000000         0.000000000000000E+000
   8.97750000000000         0.000000000000000E+000
   9.21690000000000         0.000000000000000E+000
   9.45630000000000        -6.356454013558959E-203
   9.69570000000000        -2.545932030081843E-191
   9.93510000000000         1.503084658454601E-181
   10.1745000000000        -1.569380570113414E-176
   10.4139000000000         3.727887744617476E-174
   10.6533000000000         4.128773866058809E-172
   10.8927000000000         2.030620626767610E-170
   11.1321000000000         6.515327754277178E-169
   11.3715000000000         1.560015494835388E-167
   11.6109000000000         2.988262525891675E-166
   11.8503000000000         4.778928460558585E-165
   12.0897000000000         6.566892791282259E-164
   12.3291000000000         7.914987290196663E-163
   12.5685000000000         8.496549019484053E-162
   12.8079000000000         8.217949306424750E-161
   13.0473000000000         7.224636586812913E-160
   13.2867000000000         5.810201575941284E-159
   13.5261000000000         4.292842621255311E-158
   13.7655000000000         2.919709507955810E-157
   14.0049000000000         1.826379069359693E-156
   14.2443000000000         1.045300443572376E-155
   14.4837000000000         5.402986957759344E-155
   14.7231000000000         2.446135159421350E-154
   14.9625000000000         8.919539220774329E-154
   15.2019000000000         1.775249264561725E-153
   15.4413000000000        -8.909516474641806E-153
   15.6807000000000        -1.475546377686047E-151
   15.9201000000000        -1.271494997727365E-150
   16.1595000000000        -8.840516449263790E-150
   16.3989000000000        -5.443126601372076E-149
   16.6383000000000        -3.077528420214146E-148
   16.8777000000000        -1.627334461093790E-147
   17.1171000000000        -8.133990439548414E-147
   17.3565000000000        -3.869571294020670E-146
   17.5959000000000        -1.760399532616420E-145
   17.8353000000000        -7.684997009556999E-145
   18.0747000000000        -3.227674476320846E-144
   18.3141000000000        -1.306856451178099E-143
   18.5535000000000        -5.109235648789187E-143
   18.7929000000000        -1.931236434324432E-142
   19.0323000000000        -7.065142408640188E-142
   19.2717000000000        -2.503680479304523E-141
   19.5111000000000        -8.600037420030757E-141
   19.7505000000000        -2.864890246287430E-140
   19.9899000000000        -9.258910936271537E-140
   20.2293000000000        -2.903684816570006E-139
   20.4687000000000        -8.836939765045952E-139
   20.7081000000000        -2.609556295779176E-138
   20.9475000000000        -7.474891392244485E-138
   21.1869000000000        -2.075722260402351E-137
   21.4263000000000        -5.583071205196570E-137
   21.6657000000000        -1.452588460177668E-136
   21.9051000000000        -3.648703527195585E-136
   22.1445000000000        -8.823239722233655E-136
   22.3839000000000        -2.045294657969463E-135
   22.6233000000000        -4.514525511770628E-135
   22.8627000000000        -9.382714457926963E-135
   23.1021000000000        -1.798518532737745E-134
   23.3415000000000        -3.040110832896424E-134
   23.5809000000000        -3.973620378929242E-134
   23.8203000000000        -1.450384169521154E-134
   24.0597000000000         1.498545573188094E-133
   24.2991000000000         7.546800403851248E-133
   24.5385000000000         2.596466296754723E-132
   24.7779000000000         7.654719865155075E-132
   25.0173000000000         2.061929978219021E-131
   25.2567000000000         5.217477048860935E-131
   25.4961000000000         1.258671645791480E-130
   25.7355000000000         2.920938654477448E-130
   25.9749000000000         6.558733519646696E-130
   26.2143000000000         1.430345853374975E-129
   26.4537000000000         3.035831889054338E-129
   26.6931000000000         6.272459738371070E-129
   26.9325000000000         1.259059575550371E-128
   27.1719000000000         2.442504296207201E-128
   27.4113000000000         4.532258626153310E-128
   27.6507000000000         7.885591492394358E-128
   27.8901000000000         1.233096656303698E-127
   28.1295000000000         1.541364168258414E-127
   28.3689000000000         7.468875846104376E-128
   28.6083000000000        -4.089639952798466E-127
   28.8477000000000        -2.082815257321823E-126
   29.0871000000000        -6.874799393578898E-126
   29.3265000000000        -1.920039296674947E-125
   29.5659000000000        -4.857420401451727E-125
   29.8053000000000        -1.143253599809792E-124
   30.0447000000000        -2.533876100147598E-124
   30.2841000000000        -5.316516613094426E-124
   30.5235000000000        -1.057177401659275E-123
   30.7629000000000        -1.987542228040664E-123
   31.0023000000000        -3.510147266424454E-123
   31.2417000000000        -5.748288825909416E-123
   31.4811000000000        -8.501893878882827E-123
   31.7205000000000        -1.066905299848799E-122
   31.9599000000000        -9.127120583787116E-123
   32.1993000000000         3.169602329812723E-123
   32.4387000000000         3.997624459077354E-122
   32.6781000000000         1.249979776195456E-121
   32.9175000000000         2.938932453431405E-121
   33.1569000000000         5.909755430945303E-121
   33.3963000000000         1.052978750000731E-120
   33.6357000000000         1.668503315589193E-120
   33.8751000000000         2.301594828076952E-120
   34.1145000000000         2.580484547179313E-120
   34.3539000000000         1.795791000528942E-120
   34.5933000000000        -1.044594547229773E-120
   34.8327000000000        -6.658278003375984E-120
   35.0721000000000        -1.376801076337155E-119
   35.3115000000000        -1.517811872339642E-119
   35.5509000000000         9.584104944126621E-120
   35.7903000000000         1.056219194428065E-118
   36.0297000000000         3.556054756655776E-118
   36.2691000000000         8.840281686792801E-118
   36.5085000000000         1.825893069498848E-117
   36.7479000000000         3.202963004946315E-117
   36.9873000000000         4.604809662379033E-117
   37.2267000000000         4.516231106177882E-117
   37.4661000000000        -9.043905025207759E-118
   37.7055000000000        -1.973565590850848E-116
   37.9449000000000        -6.673171282440114E-116
   38.1843000000000        -1.653135940119698E-115
   38.4237000000000        -3.464086459767790E-115
   38.6631000000000        -6.383065535684986E-115
   38.9025000000000        -1.036833439501945E-114
   39.1419000000000        -1.438873783364973E-114
   39.3813000000000        -1.516663839073730E-114
   39.6207000000000        -5.109017475817733E-115
   39.8601000000000         3.060914686123688E-114
   40.0995000000000         1.172825033682580E-113
   40.3389000000000         2.924640132199133E-113
   40.5783000000000         6.022411567598061E-113
   40.8177000000000         1.084290249153747E-112
   41.0571000000000         1.725094777207142E-112
   41.2965000000000         2.373664887797071E-112
   41.5359000000000         2.592050728454950E-112
   41.7753000000000         1.430464152813608E-112
   42.0147000000000        -2.856656572002028E-112
   42.2541000000000        -1.307076050778609E-111
   42.4935000000000        -3.309706796707068E-111
   42.7329000000000        -6.728920654826151E-111
   42.9723000000000        -1.185205353223160E-110
   43.2117000000000        -1.839053704171649E-110
   43.4511000000000        -2.470017440744774E-110
   43.6905000000000        -2.655280347907895E-110
   43.9299000000000        -1.547707170298235E-110
   44.1693000000000         2.303184049090363E-110
   44.4087000000000         1.105924455507183E-109
   44.6481000000000         2.745861816930851E-109
   44.8875000000000         5.414321831249853E-109
   45.1269000000000         9.201623411481017E-109
   45.3663000000000         1.370969799443983E-108
   45.6057000000000         1.753888617442036E-108
   45.8451000000000         1.756602275095425E-108
   46.0845000000000         8.102627863590497E-109
   46.3239000000000        -1.978665612600389E-108
   46.5633000000000        -7.821416220082356E-108
   46.8027000000000        -1.806240137055203E-107
   47.0421000000000        -3.366526433190171E-107
   47.2815000000000        -5.417881653873035E-107
   47.5209000000000        -7.599820084252774E-107
   47.7603000000000        -8.984373638112890E-107
   47.9997000000000        -7.766730008270537E-107
   48.2391000000000        -9.756386344753876E-108
   48.4785000000000         1.562824530833297E-106
   48.7179000000000         4.717065563476413E-106
   48.9573000000000         9.835455809375949E-106
   49.1967000000000         1.706517079606273E-105
   49.4361000000000         2.573998163006928E-105
   49.6755000000000         3.364271243420947E-105
   49.9149000000000         3.604720605122936E-105
   50.1543000000000         2.469623765419503E-105
   50.3937000000000        -1.291335206398222E-105
   50.6331000000000        -9.325918502368893E-105
   50.8725000000000        -2.344753749988733E-104
   51.1119000000000        -4.505413059124464E-104
   51.3513000000000        -7.402758295923795E-104
   51.5907000000000        -1.069539353565985E-103
   51.8301000000000        -1.345832113975724E-103
   52.0695000000000        -1.386356420456059E-103
   52.3089000000000        -8.840518896952217E-104
   52.5483000000000         6.184120573114274E-104
   52.7877000000000         3.728780983608848E-103
   53.0271000000000         9.150943687364787E-103
   53.2665000000000         1.753425845907525E-102
   53.5059000000000         2.916865767102539E-102
   53.7453000000000         4.345085978080141E-102
   53.9847000000000         5.803293475670826E-102
   54.2241000000000         6.756230503201816E-102
   54.4635000000000         6.195199916712504E-102
   54.7029000000000         2.422108795100761E-102
   54.9423000000000        -7.181184436756236E-102
   55.1817000000000        -2.632021839989898E-101
   55.4211000000000        -5.972317561161413E-101
   55.6605000000000        -1.125256266754698E-100
   55.8999000000000        -1.885658090109785E-100
   56.1393000000000        -2.867701333692903E-100
   56.3787000000000        -3.945289969817985E-100
   56.6181000000000        -4.768458921223210E-100
   56.8575000000000        -4.604066871151202E-100
   57.0969000000000        -2.130960884767086E-100
   57.3363000000000         4.773372950135501E-100
   57.5757000000000         1.915844835042970E-099
   57.8151000000000         4.484712522486018E-099
   58.0545000000000         8.567748973193666E-099
   58.2939000000000         1.436580221211259E-098
   58.5333000000000         2.154204097446334E-098
   58.7727000000000         2.863442750131954E-098
   59.0121000000000         3.220139547694555E-098
   59.2515000000000         2.575064183886080E-098
   59.4909000000000        -1.327175199942769E-099
   59.7303000000000        -6.430526145011861E-098
   59.9697000000000        -1.822020768711821E-097
   60.2091000000000        -3.739064569288270E-097
   60.4485000000000        -6.493073206544757E-097
   60.6879000000000        -9.930868114739468E-097
   60.9273000000000        -1.339227138301222E-096
   61.1667000000000        -1.536048724613508E-096
   61.4061000000000        -1.305635878732675E-096
   61.6455000000000        -2.087796138847081E-097
   61.8849000000000         2.362239296416433E-096
   62.1243000000000         7.125815314840600E-096
   62.3637000000000         1.473444281025093E-095
   62.6031000000000         2.541291994991387E-095
   62.8425000000000         3.834558002501712E-095
   63.0819000000000         5.077649341860733E-095
   63.3213000000000         5.686615270154192E-095
   63.5607000000000         4.650135158281998E-095
   63.8001000000000         4.501658314448290E-096
   64.0395000000000        -8.899058712329911E-095
   64.2789000000000        -2.557423893582171E-094
   64.5183000000000        -5.127144458454024E-094
   64.7577000000000        -8.596729644953446E-094
   64.9971000000000        -1.259776532485213E-093
   65.2365000000000        -1.613114049268705E-093
   65.4759000000000        -1.725965562937704E-093
   65.7153000000000        -1.283299666916990E-093
   65.9547000000000         1.610695791264014E-094
   66.1941000000000         3.153561976007643E-093
   66.4335000000000         8.237097937976305E-093
   66.6729000000000         1.573649811878948E-092
   66.9123000000000         2.539731760182229E-092
   67.1517000000000         3.586099537951095E-092
   67.3911000000000         4.400380619833761E-092
   67.6305000000000         4.424774495887670E-092
   67.8699000000000         2.807478491199639E-092
   68.1093000000000        -1.586074936429993E-092
   68.3487000000000        -1.004440619358710E-091
   68.5881000000000        -2.369042295736266E-091
   68.8275000000000        -4.289400665088769E-091
   69.0669000000000        -6.636025413076434E-091
   69.3063000000000        -8.989895033437579E-091
   69.5457000000000        -1.050029975032037E-090
   69.7851000000000        -9.756083377740981E-091
   70.0245000000000        -4.730299260668521E-091
   70.2639000000000         7.108692501674868E-091
   70.5033000000000         2.839461993172818E-090
   70.7427000000000         6.102544291911152E-090
   70.9821000000000         1.047607642510450E-089
   71.2215000000000         1.551989162358168E-089
   71.4609000000000         2.012428097803473E-089
   71.7003000000000         2.224480299542319E-089
   71.9397000000000         1.870652757934837E-089
   72.1791000000000         5.212356942792325E-090
   72.4185000000000        -2.325252002039003E-089
   72.6579000000000        -7.138263638457021E-089
   72.8973000000000        -1.416368621636014E-088
   73.1367000000000        -2.312725811586060E-088
   73.3761000000000        -3.283519193759621E-088
   73.6155000000000        -4.071115397742748E-088
   73.8549000000000        -4.236648657255012E-088
   74.0943000000000        -3.137878434737173E-088
   74.3337000000000         4.548528206586525E-090
   74.5731000000000         6.203796521635611E-088
   74.8125000000000         1.606698063040385E-087
   75.0519000000000         2.981598626232415E-087
   75.2913000000000         4.652048903496388E-087
   75.5307000000000         6.342993325877043E-087
   75.7701000000000         7.521710742805022E-087
   76.0095000000000         7.337740742419124E-087
   76.2489000000000         4.611717576349389E-087
   76.4883000000000        -2.079788629620631E-087
   76.7277000000000        -1.416559590585197E-086
   76.9671000000000        -3.262794456275868E-086
   77.2065000000000        -5.729366380376060E-086
   77.4459000000000        -8.586835499678261E-086
   77.6853000000000        -1.127945193266642E-085
   77.9247000000000        -1.281398870543339E-085
   78.1641000000000        -1.168903498524189E-085
   78.4035000000000        -5.921678795821074E-086
   78.6429000000000         6.753119253441126E-086
   78.8823000000000         2.842453077121818E-085
   79.1217000000000         6.021020555756253E-085
   79.3611000000000         1.010808765613956E-084
   79.6005000000000         1.463439052898939E-084
   79.8399000000000         1.859607790018315E-084
   80.0793000000000         2.030700407020063E-084
   80.3187000000000         1.733338896888471E-084
   80.5581000000000         6.599069881712708E-085
   80.7975000000000        -1.522881215694393E-084
   81.0369000000000        -5.095736370704020E-084
   81.2763000000000        -1.015952517574570E-083
   81.5157000000000        -1.645654136171410E-083
   81.7551000000000        -2.315109910632330E-083
   81.9945000000000        -2.860092709904876E-083
   82.2339000000000        -3.017891956356923E-083
   82.4733000000000        -2.423793827294506E-083
   82.7127000000000        -6.343930691008227E-084
   82.9521000000000         2.807524879179966E-083
   83.1915000000000         8.252085730990643E-083
   83.4309000000000         1.575564318722406E-082
   83.6703000000000         2.482968461899381E-082
   83.9097000000000         3.414615712745712E-082
   84.1491000000000         4.124872841956858E-082
   84.3885000000000         4.235640218271354E-082
   84.6279000000000         3.238694524735146E-082
   84.8673000000000         5.364384950360626E-083
   85.1067000000000        -4.460613740487705E-082
   85.3461000000000        -1.216304361007038E-081
   85.5855000000000        -2.254955401007163E-081
   85.8249000000000        -3.483893325165737E-081
   86.0643000000000        -4.712018418642328E-081
   86.3037000000000        -5.601066818093187E-081
   86.5431000000000        -5.645706573809126E-081
   86.7825000000000        -4.184116344375424E-081
   87.0219000000000        -4.590777937686503E-082
   87.2613000000000         6.249142228520588E-081
   87.5007000000000         1.640041956602482E-080
   87.7401000000000         2.987617576619470E-080
   87.9795000000000         4.557862850684753E-080
   88.2189000000000         6.099420950139159E-080
   88.4583000000000         7.181086497484268E-080
   88.6977000000000         7.173003711180478E-080
   88.9371000000000         5.266493283010971E-080
   89.1765000000000         5.553653258142159E-081
   89.4159000000000        -7.798068231077082E-080
   89.6553000000000        -2.029452038857053E-079
   89.8947000000000        -3.672298699227328E-079
   90.1341000000000        -5.570076101374904E-079
   90.3735000000000        -7.418616968118444E-079
   90.6129000000000        -8.707001462750812E-079
   90.8523000000000        -8.700618318828542E-079
   91.0917000000000        -6.469342544921228E-079
   91.3311000000000        -9.853672509921385E-080
   91.5705000000000         8.685349323993765E-079
   91.8099000000000         2.308109695976316E-078
   92.0493000000000         4.193110885554021E-078
   92.2887000000000         6.365757723416894E-078
   92.5281000000000         8.485910734575162E-078
   92.7675000000000         9.989159032310707E-078
   93.0069000000000         1.007173223982991E-077
   93.2463000000000         7.724278330145551E-078
   93.4857000000000         1.839403139393103E-078
   93.7251000000000        -8.583490083393189E-078
   93.9645000000000        -2.412056076327776E-077
   94.2039000000000        -4.449477097708144E-077
   94.4433000000000        -6.806585807418484E-077
   94.6827000000000        -9.130844464275658E-077
   94.9221000000000        -1.083965042834085E-076
   95.1615000000000        -1.110647454079674E-076
   95.4009000000000        -8.896305420264792E-077
   95.6403000000000        -3.074363571647378E-077
   95.8797000000000         7.389797599867273E-077
   96.1191000000000         2.310899230918962E-076
   96.3585000000000         4.385902874560196E-076
   96.5979000000000         6.808346053981892E-076
   96.8373000000000         9.238994788995722E-076
   97.0767000000000         1.111509214084122E-075
   97.3161000000000         1.163687881264139E-075
   97.5555000000000         9.800616837404653E-076
   97.7949000000000         4.500064976767763E-076
   98.0343000000000        -5.283641484993410E-076
   98.2737000000000        -2.019161206239565E-075
   98.5131000000000        -4.009977808672904E-075
   98.7525000000000        -6.366230460166915E-075
   98.9919000000000        -8.784689151593532E-075
   99.2313000000000        -1.075627409984763E-074
   99.4707000000000        -1.155231989474911E-074
   99.7101000000000        -1.025193750191646E-074
   99.9495000000000        -5.829642833930472E-075
   100.188900000000         2.679425552324662E-075
   100.428300000000         1.592623540807432E-074
   100.667700000000         3.390941946655448E-074
   100.907100000000         5.557528822638111E-074
   101.146500000000         7.840784925451274E-074
   101.385900000000         9.809357065105388E-074
   101.625300000000         1.083798337037400E-073
   101.864700000000         1.012742966574384E-073
   102.104100000000         6.774501737932145E-074
   102.343500000000        -9.338000473745656E-076
   102.582900000000        -1.111010266870632E-073
   102.822300000000        -2.639108026155571E-073
   103.061700000000        -4.520018713592119E-073
   103.301100000000        -6.560410799166172E-073
   103.540500000000        -8.418120972596039E-073
   103.779900000000        -9.587923063202622E-073
   104.019300000000        -9.413866263668303E-073
   104.258700000000        -7.140919891568855E-073
   104.498100000000        -2.017591576505216E-073
   104.737500000000         6.542977848858386E-073
   104.976900000000         1.874405810489767E-072
   105.216300000000         3.414170567631241E-072
   105.455700000000         5.136654697347852E-072
   105.695100000000         6.788107224811067E-072
   105.934500000000         7.984326580347954E-072
   106.173900000000         8.216485327120200E-072
   106.413300000000         6.886118000881112E-072
   106.652700000000         3.378311707794729E-072
   106.892100000000        -2.820763637420937E-072
   107.131500000000        -1.196161781908589E-071
   107.370900000000        -2.383313561465752E-071
   107.610300000000        -3.754899560824062E-071
   107.849700000000        -5.135410306750768E-071
   108.089100000000        -6.250147313463651E-071
   108.328500000000        -6.726304378531297E-071
   108.567900000000        -6.114505147523034E-071
   108.807300000000        -3.937526200520038E-071
   109.046700000000         2.289400947196081E-072
   109.286100000000         6.642484122684014E-071
   109.525500000000         1.525224689035801E-070
   109.764900000000         2.554268304776904E-070
   110.004300000000         3.638626820279414E-070
   110.243700000000         4.593921707015459E-070
   110.483100000000         5.162368221258530E-070
   110.722500000000         5.024558840595918E-070
   110.961900000000         3.829616652854875E-070
   111.201300000000         1.247409328127613E-070
   111.440700000000        -2.955906915855183E-070
   111.680100000000        -8.821664811880613E-070
   111.919500000000        -1.608985510963673E-069
   112.158900000000        -2.409237693072848E-069
   112.398300000000        -3.167019730776596E-069
   112.637700000000        -3.714277603158156E-069
   112.877100000000        -3.836245208452038E-069
   113.116500000000        -3.288669463770549E-069
   113.355900000000        -1.829507686353054E-069
   113.595300000000         7.336431482651886E-070
   113.834700000000         4.481509591615789E-069
   114.074100000000         9.310982358188844E-069
   114.313500000000         1.486149792936183E-068
   114.552900000000         2.045322710809419E-068
   114.792300000000         2.505469453904259E-068
   115.031700000000         2.730061754133702E-068
   115.271100000000         2.558153720616087E-068
   115.510500000000         1.822390724821756E-068
   115.749900000000         3.771455506435290E-069
   115.989300000000        -1.863508448943284E-068
   116.228700000000        -4.880262374160664E-068
   116.468100000000        -8.500272316357120E-068
   116.707500000000        -1.235373902021996E-067
   116.946900000000        -1.584580497427043E-067
   117.186300000000        -1.815640499909065E-067
   117.425700000000        -1.828161350898430E-067
   117.665100000000        -1.512886489796281E-067
   117.904500000000        -7.674413545062014E-068
   118.143900000000         4.816059913601094E-068
   118.383300000000         2.251395467142561E-067
   118.622700000000         4.472619066959520E-067
   118.862100000000         6.960729427672624E-067
   119.101500000000         9.394404685345519E-067
   119.340900000000         1.130861491099789E-066
   119.580300000000         1.211043190296812E-066
   119.819700000000         1.112541318332386E-066
   120.059100000000         7.680515551332578E-067
   120.298500000000         1.225669606392146E-067
   120.537900000000        -8.509833172046605E-067
   120.777300000000        -2.133803774721437E-066
   121.016700000000        -3.643162120066648E-066
   121.256100000000        -5.217347512598385E-066
   121.495500000000        -6.607742346888799E-066
   121.734900000000        -7.482696757840743E-066
   121.974300000000        -7.447937787552769E-066
   122.213700000000        -6.087464016877866E-066
   122.453100000000        -3.027037733592366E-066
   122.692500000000         1.980660104828311E-066
   122.931900000000         8.954405021562748E-066
   123.171300000000         1.757678644467545E-065
   123.410700000000         2.709677827548402E-065
   123.650100000000         3.626426329675109E-065
   123.889500000000         4.332240132754155E-065
   124.128900000000         4.608518291184486E-065
   124.368300000000         4.212481052741073E-065
   124.607700000000         2.908532989196653E-065
   124.847100000000         5.124191793955237E-066
   125.086500000000        -3.053814216309409E-065
   125.325900000000        -7.700806942652892E-065
   125.565300000000        -1.311272586579491E-064
   125.804700000000        -1.870103558231821E-064
   126.044100000000        -2.358491078230700E-064
   126.283500000000        -2.661341824166907E-064
   126.522900000000        -2.644401143509324E-064
   126.762300000000        -2.168852542928743E-064
   127.001700000000        -1.113110987437773E-064
   127.241100000000         5.987913367871830E-065
   127.480500000000         2.964223414720606E-064
   127.719900000000         5.868030943829527E-064
   127.959300000000         9.053067128699951E-064
   128.198700000000         1.210214898170034E-063
   128.438100000000         1.443946437510061E-063
   128.677500000000         1.535959019011689E-063
   128.916900000000         1.409108005367614E-063
   129.156300000000         9.898675418175625E-064
   129.395700000000         2.223355775006408E-064
   129.635100000000        -9.147325230761648E-064
   129.874500000000        -2.389453833166599E-063
   130.113900000000        -4.099425171436308E-063
   130.353300000000        -5.858808307204509E-063
   130.592700000000        -7.393978903385848E-063
   130.832100000000        -8.352108237474444E-063
   131.071500000000        -8.326710325051751E-063
   131.310900000000        -6.903027467172016E-063
   131.550300000000        -3.723995079365204E-063
   131.789700000000         1.425625281266722E-063
   132.029100000000         8.523421984289287E-063
   132.268500000000         1.721297235412625E-062
   132.507900000000         2.672285215654948E-062
   132.747300000000         3.582098605651893E-062
   132.986700000000         4.282671247237316E-062
   133.226100000000         4.570258788050980E-062
   133.465500000000         4.224377670656234E-062
   133.704900000000         3.037398261106993E-062
   133.944300000000         8.542822301418251E-063
   134.183700000000        -2.379944960819873E-062
   134.423100000000        -6.569674104711745E-062
   134.662500000000        -1.142226535648891E-061
   134.901900000000        -1.641503988341784E-061
   135.141300000000        -2.078668211184531E-061
   135.380700000000        -2.356446572306416E-061
   135.620100000000        -2.363744532439233E-061
   135.859500000000        -1.988228876698538E-061
   136.098900000000        -1.134244855116309E-061
   136.338300000000         2.547139173784293E-062
   136.577700000000         2.170829620304443E-061
   136.817100000000         4.517115867623767E-061
   137.056500000000         7.087111419845493E-061
   137.295900000000         9.554264962751411E-061
   137.535300000000         1.147664271144795E-060
   137.774700000000         1.232233649811038E-060
   138.014100000000         1.151971318585948E-060
   138.253500000000         8.534239536696247E-061
   138.492900000000         2.969971104905930E-061
   138.732300000000        -5.310983473931820E-061