  -1.79550000000000         0.000000000000000E+000
  -1.55610000000000         0.000000000000000E+000
  -1.31670000000000         0.000000000000000E+000
  -1.07730000000000         0.000000000000000E+000
 -0.837900000000000         0.000000000000000E+000
 -0.598500000000000         0.000000000000000E+000
 -0.359100000000000         0.000000000000000E+000
 -0.119700000000000         0.000000000000000E+000
  0.119700000000000         0.000000000000000E+000
  0.359100000000000         0.000000000000000E+000
  0.598500000000000         0.000000000000000E+000
  0.837900000000000         0.000000000000000E+000
   1.07730000000000         0.000000000000000E+000
   1.31670000000000         0.000000000000000E+000
   1.55610000000000         0.000000000000000E+000
   1.79550000000000         0.000000000000000E+000
   2.03490000000000         0.000000000000000E+000
   2.27430000000000         0.000000000000000E+000
   2.51370000000000         0.000000000000000E+000
   2.75310000000000         0.000000000000000E+000
   2.99250000000000         0.000000000000000E+000
   3.23190000000000         0.000000000000000E+000
   3.47130000000000         0.000000000000000E+000
   3.71070000000000         0.000000000000000E+000
   3.95010000000000         0.000000000000000E+000
   4.18950000000000         0.000000000000000E+000
   4.42890000000000         0.000000000000000E+000
   4.66830000000000         0.000000000000000E+000
   4.90770000000000         0.000000000000000E+000
   5.14710000000000         0.000000000000000E+000
   5.38650000000000         0.000000000000000E+000
   5.62590000000000         0.000000000000000E+000
   5.86530000000000         0.000000000000000E+000
   6.10470000000000         0.000000000000000E+000
   6.34410000000000         0.000000000000000E+000
   6.58350000000000         0.000000000000000E+000
   6.82290000000000         0.000000000000000E+000
   7.06230000000000         0.000000000000000E+000
   7.30170000000000         0.000000000000000E+000
   7.54110000000000         0.000000000000000E+000
   7.78050000000000         0.000000000000000E+000
   8.01990000000000         0.000000000000000E+000
   8.25930000000000         0.000000000000000E+000
   8.49870000000000         0.000000000000000E+000
   8.73810000000000         1.728449219608072E-181
   8.97750000000000        -5.565700496411774E-175
   9.21690000000000         9.791179004580689E-172
   9.45630000000000        -4.822097700012127E-170
   9.69570000000000         3.317367585227556E-167
   9.93510000000000         2.427228309675903E-165
   10.1745000000000         8.375326409846054E-164
   10.4139000000000         1.873837952889421E-162
   10.6533000000000         3.075955970485184E-161
   10.8927000000000         3.964844761400855E-160
   11.1321000000000         4.209863250525286E-159
   11.3715000000000         3.853893917459259E-158
   11.6109000000000         3.218417896877217E-157
   11.8503000000000         2.630046648176355E-156
   12.0897000000000         2.228778844659598E-155
   12.3291000000000         1.969393919740610E-154
   12.5685000000000         1.739583495379774E-153
   12.8079000000000         1.466211285968213E-152
   13.0473000000000         1.147010042287380E-151
   13.2867000000000         8.238502993227927E-151
   13.5261000000000         5.424107842776592E-150
   13.7655000000000         3.281216316634647E-149
   14.0049000000000         1.830694628410505E-148
   14.2443000000000         9.459750793290589E-148
   14.4837000000000         4.546493301642162E-147
   14.7231000000000         2.041666936566084E-146
   14.9625000000000         8.613379833100616E-146
   15.2019000000000         3.439324206447706E-145
   15.4413000000000         1.314273578325950E-144
   15.6807000000000         4.886598411872284E-144
   15.9201000000000         1.808593033826246E-143
   16.1595000000000         6.836486992282796E-143
   16.3989000000000         2.690405170101883E-142
   16.6383000000000         1.105336694979701E-141
   16.8777000000000         4.674214210897601E-141
   17.1171000000000         1.991122447221330E-140
   17.3565000000000         8.381616401744074E-140
   17.5959000000000         3.441822657933119E-139
   17.8353000000000         1.368945778147871E-138
   18.0747000000000         5.257050397023543E-138
   18.3141000000000         1.947466858129452E-137
   18.5535000000000         6.961176824466611E-137
   18.7929000000000         2.402625854876330E-136
   19.0323000000000         8.013035170908161E-136
   19.2717000000000         2.583619844634216E-135
   19.5111000000000         8.054016964522856E-135
   19.7505000000000         2.426233516824709E-134
   19.9899000000000         7.054237203893961E-134
   20.2293000000000         1.975136099670684E-133
   20.4687000000000         5.306379333322078E-133
   20.7081000000000         1.360011788151206E-132
   20.9475000000000         3.293964100770084E-132
   21.1869000000000         7.414981734836524E-132
   21.4263000000000         1.500897092981134E-131
   21.6657000000000         2.514810967604708E-131
   21.9051000000000         2.450127469881657E-131
   22.1445000000000        -4.684211239638938E-131
   22.3839000000000        -3.956891428652815E-130
   22.6233000000000        -1.641206777106219E-129
   22.8627000000000        -5.451672636514443E-129
   23.1021000000000        -1.591103537375234E-128
   23.3415000000000        -4.203020731389376E-128
   23.5809000000000        -1.011566158192651E-127
   23.8203000000000        -2.196425030488123E-127
   24.0597000000000        -4.154767812263363E-127
   24.2991000000000        -6.142846390157150E-127
   24.5385000000000        -3.665596963824150E-127
   24.7779000000000         1.952160320242341E-126
   25.0173000000000         1.113900726140890E-125
   25.2567000000000         3.961850255646459E-125
   25.4961000000000         1.161854375763904E-124
   25.7355000000000         3.002715772378690E-124
   25.9749000000000         6.973960643215090E-124
   26.2143000000000         1.450646713476928E-123
   26.4537000000000         2.622920105561143E-123
   26.6931000000000         3.735214805685148E-123
   26.9325000000000         2.396792818283045E-123
   27.1719000000000        -9.181926731149522E-123
   27.4113000000000        -5.209328542218484E-122
   27.6507000000000        -1.767997913950806E-121
   27.8901000000000        -4.919982113645057E-121
   28.1295000000000        -1.208057014270407E-120
   28.3689000000000        -2.681837889744928E-120
   28.6083000000000        -5.403986798382416E-120
   28.8477000000000        -9.757130188561775E-120
   29.0871000000000        -1.513376158085032E-119
   29.3265000000000        -1.755712159258418E-119
   29.5659000000000        -4.243736982087947E-120
   29.8053000000000         5.730323961682693E-119
   30.0447000000000         2.384465443282237E-118
   30.2841000000000         6.776155145749252E-118
   30.5235000000000         1.609699011637652E-117
   30.7629000000000         3.364754380189823E-117
   31.0023000000000         6.249841586287212E-117
   31.2417000000000         1.012193858321874E-116
   31.4811000000000         1.328168466760629E-116
   31.7205000000000         1.007051390015441E-116
   31.9599000000000        -1.367594336973164E-116
   32.1993000000000        -8.808727480344191E-116
   32.4387000000000        -2.693085284873008E-115
   32.6781000000000        -6.482847520831379E-115
   32.9175000000000        -1.345951107772311E-114
   33.1569000000000        -2.465427198311427E-114
   33.3963000000000        -3.942084981813276E-114
   33.6357000000000        -5.188476384783091E-114
   33.8751000000000        -4.381466813490462E-114
   34.1145000000000         2.783337480568387E-114
   34.3539000000000         2.495616353385593E-113
   34.5933000000000         7.733241261649298E-113
   34.8327000000000         1.829502799610124E-112
   35.0721000000000         3.698692962155244E-112
   35.3115000000000         6.574774579299708E-112
   35.5509000000000         1.019760072027787E-111
   35.7903000000000         1.306634791247100E-111
   36.0297000000000         1.099249230616172E-111
   36.2691000000000        -5.211070837966517E-112
   36.5085000000000        -5.282701557539619E-111
   36.7479000000000        -1.602430113093099E-110
   36.9873000000000        -3.672815547875114E-110
   37.2267000000000        -7.171195176415018E-110
   37.4661000000000        -1.229123769319049E-109
   37.7055000000000        -1.835417127579202E-109
   37.9449000000000        -2.257757582998378E-109
   38.1843000000000        -1.800494515846179E-109
   38.4237000000000         9.492635071109409E-110
   38.6631000000000         8.472497398207293E-109
   38.9025000000000         2.456349382547994E-108
   39.1419000000000         5.409720613012068E-108
   39.3813000000000         1.015980962601632E-107
   39.6207000000000         1.674099802398936E-107
   39.8601000000000         2.397478965579682E-107
   40.0995000000000         2.806352164148505E-107
   40.3389000000000         2.042933215046311E-107
   40.5783000000000        -1.509662203850055E-107
   40.8177000000000        -1.050239214441579E-106
   41.0571000000000        -2.870028008989912E-106
   41.2965000000000        -6.048255741416674E-106
   41.5359000000000        -1.090973505095439E-105
   41.7753000000000        -1.726748629915374E-105
   42.0147000000000        -2.367448142655617E-105
   42.2541000000000        -2.620912033850777E-105
   42.4935000000000        -1.677097811557016E-105
   42.7329000000000         1.888053730265719E-105
   42.9723000000000         1.025880968467935E-104
   43.2117000000000         2.630993694976726E-104
   43.4511000000000         5.302054391574779E-104
   43.6905000000000         9.190125403063094E-104
   43.9299000000000         1.398027589507568E-103
   44.1693000000000         1.834230531226776E-103
   44.4087000000000         1.910856415528853E-103
   44.6481000000000         1.022356896108370E-103
   44.8875000000000        -1.829688546341490E-103
   45.1269000000000        -8.081107181339953E-103
   45.3663000000000        -1.947731659412727E-102
   45.6057000000000        -3.758782849959546E-102
   45.8451000000000        -6.269907126936628E-102
   46.0845000000000        -9.176946252827354E-102
   46.3239000000000        -1.151702343203445E-101
   46.5633000000000        -1.121753667619882E-101
   46.8027000000000        -4.576092642835607E-102
   47.0421000000000         1.415806735024140E-101
   47.2815000000000         5.274368394158798E-101
   47.5209000000000         1.198263382801312E-100
   47.7603000000000         2.217999879601715E-100
   47.9997000000000         3.564381161915191E-100
   48.2391000000000         5.020322895551491E-100
   48.4785000000000         6.012842606110681E-100
   48.7179000000000         5.407599319348701E-100
   48.9573000000000         1.299694902289690E-100
   49.1967000000000        -9.102502976924158E-100
   49.4361000000000        -2.932014895422890E-099
   49.6755000000000        -6.288597779408885E-099
   49.9149000000000        -1.116685733652097E-098
   50.1543000000000        -1.727778719025888E-098
   50.3937000000000        -2.336620442494269E-098
   50.6331000000000        -2.653518519479433E-098
   50.8725000000000        -2.146183075288687E-098
   51.1119000000000         2.704903910455899E-100
   51.3513000000000         5.026552824981676E-098
   51.5907000000000         1.420597583652600E-097
   51.8301000000000         2.873897153351666E-097
   52.0695000000000         4.885631403395406E-097
   52.3089000000000         7.255151375157603E-097
   52.5483000000000         9.367696366907543E-097
   52.7877000000000         9.953026066105281E-097
   53.0271000000000         6.838081071659759E-097
   53.2665000000000        -3.203632848212202E-097
   53.5059000000000        -2.432118410817705E-096
   53.7453000000000        -6.088966961837952E-096
   53.9847000000000        -1.158698789302266E-095
   54.2241000000000        -1.878054899936464E-095
   54.4635000000000        -2.661327451573368E-095
   54.7029000000000        -3.248229360167358E-095
   54.9423000000000        -3.151211627211735E-095
   55.1817000000000        -1.594301341618908E-095
   55.4211000000000         2.497059019226247E-095
   55.6605000000000         1.039130462754198E-094
   55.8999000000000         2.324203328409732E-094
   56.1393000000000         4.146951247380364E-094
   56.3787000000000         6.373552036059648E-094
   56.6181000000000         8.547424224096814E-094
   56.8575000000000         9.708464285069455E-094
   57.0969000000000         8.214949128760990E-094
   57.3363000000000         1.644625839648276E-094
   57.5757000000000        -1.309535862259563E-093
   57.8151000000000        -3.926108644267860E-093
   58.0545000000000        -7.913142573244378E-093
   58.2939000000000        -1.319960620868407E-092
   58.5333000000000        -1.911244259805474E-092
   58.7727000000000        -2.398177022968616E-092
   59.0121000000000        -2.471262036691864E-092
   59.2515000000000        -1.645803956171794E-092
   59.4909000000000         7.366375489238270E-093
   59.7303000000000         5.436391121113864E-092
   59.9697000000000         1.312619848438888E-091
   60.2091000000000         2.403296120028285E-091
   60.4485000000000         3.737157665556923E-091
   60.6879000000000         5.057179518614931E-091
   60.9273000000000         5.838080385179053E-091
   61.1667000000000         5.205931278252080E-091
   61.4061000000000         1.908012247915017E-091
   61.6455000000000        -5.603053531614322E-091
   61.8849000000000        -1.888451515624929E-090
   62.1243000000000        -3.891953463464089E-090
   62.3637000000000        -6.514864738633935E-090
   62.6031000000000        -9.409033921064916E-090
   62.8425000000000        -1.176536447991793E-089
   63.0819000000000        -1.214667661475419E-089
   63.3213000000000        -8.386751439775046E-090
   63.5607000000000         2.339647613852018E-090
   63.8001000000000         2.312982225539035E-089
   64.0395000000000         5.647567691192725E-089
   64.2789000000000         1.027318107662253E-088
   64.5183000000000         1.578453649463763E-088
   64.7577000000000         2.104541075163263E-088
   64.9971000000000         2.387973175105847E-088
   65.2365000000000         2.083897018481157E-088
   65.4759000000000         7.205921631041186E-089
   65.7153000000000        -2.253524124355602E-088
   65.9547000000000        -7.347915786787762E-088
   66.1941000000000        -1.480439033495605E-087
   66.4335000000000        -2.424932986385140E-087
   66.6729000000000        -3.423117652661466E-087
   66.9123000000000        -4.169913976545267E-087
   67.1517000000000        -4.155367900830548E-087
   67.3911000000000        -2.649800271777613E-087
   67.6305000000000         1.246989167487974E-087
   67.8699000000000         8.449159297935377E-087
   68.1093000000000         1.957481752085370E-086
   68.3487000000000         3.444737565491015E-086
   68.5881000000000         5.140657390401431E-086
   68.8275000000000         6.649273247966711E-086
   69.0669000000000         7.267132624867855E-086
   69.3063000000000         5.940590276562669E-086
   69.5457000000000         1.305095102656676E-086
   69.7851000000000        -8.131345401713045E-086
   70.0245000000000        -2.359107212143308E-085
   70.2639000000000        -4.535664215507829E-085
   70.5033000000000        -7.180782962811317E-085
   70.7427000000000        -9.822817549412197E-085
   70.9821000000000        -1.155787217863040E-084
   71.2215000000000        -1.096262619587212E-084
   71.4609000000000        -6.104197082406288E-085
   71.7003000000000         5.268900542669125E-085
   71.9397000000000         2.525646003913609E-084
   72.1791000000000         5.496491456671248E-084
   72.4185000000000         9.324473972123890E-084
   72.6579000000000         1.350538385512644E-083
   72.8973000000000         1.696594819076947E-083
   73.1367000000000         1.791317420470537E-083
   73.3761000000000         1.378820551779932E-083
   73.6155000000000         1.431497121786230E-084
   73.8549000000000        -2.241018758646779E-083
   74.0943000000000        -6.010289976221746E-083
   74.3337000000000        -1.115787612305813E-082
   74.5731000000000        -1.722356206654083E-082
   74.8125000000000        -2.304847506269411E-082
   75.0519000000000        -2.654339374540337E-082
   75.2913000000000        -2.455651217720677E-082
   75.5307000000000        -1.296773103080337E-082
   75.7701000000000         1.282808868023873E-082
   76.0095000000000         5.687296118579199E-082
   76.2489000000000         1.208875513072559E-081
   76.4883000000000         2.017599037011193E-081
   76.7277000000000         2.884385884200571E-081
   76.9671000000000         3.587047173674130E-081
   77.2065000000000         3.767276933893480E-081
   77.4459000000000         2.928125089812724E-081
   77.6853000000000         4.722550014436458E-082
   77.9247000000000        -4.197262215508942E-081
   78.1641000000000        -1.149331492208219E-080
   78.4035000000000        -2.136680728978075E-080
   78.6429000000000        -3.294236795649304E-080
   78.8823000000000        -4.410829205042459E-080
   79.1217000000000        -5.114772802692969E-080
   79.3611000000000        -4.855533099043226E-080
   79.6005000000000        -2.924294249597050E-080
   79.8399000000000         1.461673950651254E-080
   80.0793000000000         8.985250943150167E-080
   80.3187000000000         1.994704236078128E-079
   80.5581000000000         3.387202337675725E-079
   80.7975000000000         4.903384657900606E-079
   81.0369000000000         6.197183694876603E-079
   81.2763000000000         6.713605642424989E-079
   81.5157000000000         5.686321026319633E-079
   81.7551000000000         2.194639862918138E-079
   81.9945000000000        -4.690805824120118E-079
   82.2339000000000        -1.564746879429962E-078
   82.4733000000000        -3.071217635200697E-078
   82.7127000000000        -4.877767398755993E-078
   82.9521000000000        -6.703054138204002E-078
   83.1915000000000        -8.044543760783694E-078
   83.4309000000000        -8.152087199839434E-078
   83.6703000000000        -6.051198504340127E-078
   83.9097000000000        -6.466472080696627E-079
   84.1491000000000         9.062777536369816E-078
   84.3885000000000         2.363564039576801E-077
   84.6279000000000         4.270311319611686E-077
   84.8673000000000         6.438179196911450E-077
   85.1067000000000         8.467050780602100E-077
   85.3461000000000         9.698472000523554E-077
   85.5855000000000         9.205560588309904E-077
   85.8249000000000         5.848535907169107E-077
   86.0643000000000        -1.571850175961115E-077
   86.3037000000000        -1.403407408877438E-076
   86.5431000000000        -3.187343724517542E-076
   86.7825000000000        -5.422938328526932E-076
   87.0219000000000        -7.841763677366925E-076
   87.2613000000000        -9.934106353094090E-076
   87.5007000000000        -1.091227237038427E-075
   87.7401000000000        -9.721395091116915E-076
   87.9795000000000        -5.128098911090241E-076
   88.2189000000000         4.082039333975700E-076
   88.4583000000000         1.877439925278339E-075
   88.6977000000000         3.899695774796884E-075
   88.9371000000000         6.340008214189301E-075
   89.1765000000000         8.861786950380205E-075
   89.4159000000000         1.087442067503338E-074
   89.6553000000000         1.151024946809427E-074
   89.8947000000000         9.656684377232596E-075
   90.1341000000000         4.072485110049255E-075
   90.3735000000000        -6.384803553125521E-075
   90.6129000000000        -2.240345486132067E-074
   90.8523000000000        -4.373858819991279E-074
   91.0917000000000        -6.864802986876422E-074
   91.3311000000000        -9.332808185911104E-074
   91.5705000000000        -1.114900980363250E-073
   91.8099000000000        -1.142757168524918E-073
   92.0493000000000        -9.075320725337773E-074
   92.2887000000000        -2.925063907268043E-074
   92.5281000000000         8.025985647252687E-074
   92.7675000000000         2.426332599767278E-073
   93.0069000000000         4.530056004508075E-073
   93.2463000000000         6.916879334316583E-073
   93.4857000000000         9.193848569552523E-073
   93.7251000000000         1.074103513762378E-072
   93.9645000000000         1.071571683286086E-072
   94.2039000000000         8.112798739860089E-073
   94.4433000000000         1.902337177182061E-073
   94.6827000000000        -8.740445749014219E-073
   94.9221000000000        -2.410981714420772E-072
   95.1615000000000        -4.356697715323926E-072
   95.4009000000000        -6.510792633855683E-072
   95.6403000000000        -8.498565844099909E-072
   95.8797000000000        -9.750910125760155E-072
   96.1191000000000        -9.517426461434361E-072
   96.3585000000000        -6.929952183970047E-072
   96.5979000000000        -1.132304278227829E-072
   96.8373000000000         8.513878576859642E-072
   97.0767000000000         2.214907140679445E-071
   97.3161000000000         3.908178138228229E-071
   97.5555000000000         5.744518288548031E-071
   97.7949000000000         7.391790339951223E-071
   98.0343000000000         8.361109350171376E-071
   98.2737000000000         8.024600844307007E-071
   98.5131000000000         5.675290377423582E-071
   98.7525000000000         6.402595753634681E-072
   98.9919000000000        -7.547404835109658E-071
   99.2313000000000        -1.892244855394656E-070
   99.4707000000000        -3.282654541974680E-070
   99.7101000000000        -4.765116904804190E-070
   99.9495000000000        -6.064402882465266E-070
   100.188900000000        -6.785883236805631E-070
   100.428300000000        -6.434159977416490E-070
   100.667700000000        -4.464702784547845E-070
   100.907100000000        -3.758018885678318E-071
   101.146500000000         6.156657211953037E-070
   101.385900000000         1.510714200728820E-069
   101.625300000000         2.590800385151082E-069
   101.864700000000         3.726734030399938E-069
   102.104100000000         4.704276404434115E-069
   102.343500000000         5.222967705082999E-069
   102.582900000000         4.913003109924549E-069
   102.822300000000         3.376460652406170E-069
   103.061700000000         2.573585256124671E-070
   103.301100000000        -4.658769650052876E-069
   103.540500000000        -1.132108474949052E-068
   103.779900000000        -1.927882492061494E-068
   104.019300000000        -2.755880553582255E-068
   104.258700000000        -3.458774103872399E-068
   104.498100000000        -3.820007242909555E-068
   104.737500000000        -3.577552906060777E-068
   104.976900000000        -2.454666228435305E-068
   105.216300000000        -2.101938364108884E-069
   105.455700000000         3.291781945521868E-068
   105.695100000000         7.997378961069892E-068
   105.934500000000         1.357330597637226E-067
   106.173900000000         1.932831606499073E-067
   106.413300000000         2.416792618321816E-067
   106.652700000000         2.660921526040436E-067
   106.892100000000         2.488390422024429E-067
   107.131500000000         1.715415248317946E-067
   107.370900000000         1.854721637493653E-068
   107.610300000000        -2.184397831043153E-067
   107.849700000000        -5.348520919836015E-067
   108.089100000000        -9.075586333915700E-067
   108.328500000000        -1.290040511562350E-066
   108.567900000000        -1.609876111047609E-066
   108.807300000000        -1.770220500596173E-066
   109.046700000000        -1.656998318973016E-066
   109.286100000000        -1.153229601736793E-066
   109.525500000000        -1.611696080947844E-067
   109.764900000000         1.368300558090258E-066
   110.004300000000         3.401343182436575E-066
   110.243700000000         5.786348117337367E-066
   110.483100000000         8.225389831275830E-066
   110.722500000000         1.026078944287911E-065
   110.961900000000         1.128693009294780E-065
   111.201300000000         1.059739874820047E-065
   111.440700000000         7.475400118083761E-066
   111.680100000000         1.330640594688495E-066
   111.919500000000        -8.121805729110789E-066
   112.158900000000        -2.065564499133988E-065
   112.398300000000        -3.532811893933279E-065
   112.637700000000        -5.031615098298276E-065
   112.877100000000        -6.284612181292652E-065
   113.116500000000        -6.927614840746775E-065
   113.355900000000        -6.538795898457773E-065
   113.595300000000        -4.693162417943475E-065
   113.834700000000        -1.043754341032469E-065
   114.074100000000         4.573523542964387E-065
   114.313500000000         1.202059474056749E-064
   114.552900000000         2.073972506596686E-064
   114.792300000000         2.966147463720313E-064
   115.031700000000         3.716787607492042E-064
   115.271100000000         4.114391900556472E-064
   115.510500000000         3.914886316454224E-064
   115.749900000000         2.873055257846151E-064
   115.989300000000         7.889234233513629E-065
   116.228700000000        -2.432823317157270E-064
   116.468100000000        -6.715666411310273E-064
   116.707500000000        -1.174554107355180E-063
   116.946900000000        -1.691975375307796E-063
   117.186300000000        -2.132697860384051E-063
   117.425700000000        -2.377643154191338E-063
   117.665100000000        -2.289329782798234E-063
   117.904500000000        -1.729277733404764E-063
   118.143900000000        -5.835934291142552E-064
   118.383300000000         1.204338880681524E-063
   118.622700000000         3.596952998292370E-063
   118.862100000000         6.426374788929010E-063
   119.101500000000         9.366172173178367E-063
   119.340900000000         1.191980736596488E-062
   119.580300000000         1.343547756587288E-062
   119.819700000000         1.315647659140300E-062
   120.059100000000         1.031371888888407E-062
   120.298500000000         4.262242744939294E-063
   120.537900000000        -5.343788496417413E-063
   120.777300000000        -1.835258627652818E-062
   121.016700000000        -3.391870289011419E-062
   121.256100000000        -5.034647035011172E-062
   121.495500000000        -6.501905160863640E-062
   121.734900000000        -7.446397143873383E-062
   121.974300000000        -7.460353958271583E-062
   122.213700000000        -6.122626701684024E-062
   122.453100000000        -3.069116304005850E-062
   122.692500000000         1.916008916578277E-062
   122.931900000000         8.795647330437331E-062
   123.171300000000         1.717460423091585E-061
   123.410700000000         2.621261001763377E-061
   123.650100000000         3.457902840599187E-061
   123.889500000000         4.047549048678406E-061
   124.128900000000         4.175190834188006E-061
   124.368300000000         3.613567837642133E-061
   124.607700000000         2.158231208708238E-061
   124.847100000000        -3.262239089451087E-062
   125.086500000000        -3.852120661805361E-061
   125.325900000000        -8.253036240152271E-061
   125.565300000000        -1.313561216680259E-060
   125.804700000000        -1.785050336550227E-060
   126.044100000000        -2.149573481097008E-060
   126.283500000000        -2.296569826671198E-060
   126.522900000000        -2.105666388255182E-060
   126.762300000000        -1.463444218145604E-060
   127.001700000000        -2.861418421451235E-061
   127.241100000000         1.453127138125724E-060
   127.480500000000         3.695442973884906E-060
   127.719900000000         6.269704820311321E-060
   127.959300000000         8.874426836998136E-060
   128.198700000000         1.107426018829705E-059
   128.438100000000         1.231800233672118E-059
   128.677500000000         1.198399134705481E-059
   128.916900000000         9.456557135881455E-060
   129.156300000000         4.233434648979828E-060
   129.395700000000        -3.941254350508781E-060
   129.635100000000        -1.493040052492216E-059
   129.874500000000        -2.806285442652057E-059
   130.113900000000        -4.202401848837692E-059
   130.353300000000        -5.480953635879532E-059
   130.592700000000        -6.377577957555614E-059
   130.832100000000        -6.581833711625259E-059
   131.071500000000        -5.770098477938638E-059
   131.310900000000        -3.654160135675792E-059
   131.550300000000        -4.379569257769193E-061
   131.789700000000         5.081386988403144E-059
   132.029100000000         1.149901175226167E-058
   132.268500000000         1.868153580275944E-058
   132.507900000000         2.575895330150971E-058
   132.747300000000         3.152285428524593E-058
   132.986700000000         3.448777635666866E-058
   133.226100000000         3.302272362685207E-058
   133.465500000000         2.555933797997628E-058
   133.704900000000         1.087323199594871E-058
   133.944300000000        -1.157834259865125E-058
   134.183700000000        -4.129514738093793E-058
   134.423100000000        -7.639830316898956E-058
   134.662500000000        -1.133849262254630E-057
   134.901900000000        -1.470483284661207E-057
   135.141300000000        -1.706416893966060E-057
   135.380700000000        -1.763541617415647E-057
   135.620100000000        -1.561448280037362E-057
   135.859500000000        -1.029399669947937E-057
   136.098900000000        -1.214286066043675E-058
   136.338300000000         1.166643065292789E-057
   136.577700000000         2.780239713736116E-057
   136.817100000000         4.591845672316369E-057
   137.056500000000         6.392921259853847E-057
   137.295900000000         7.895542180230874E-057
   137.535300000000         8.747217193895577E-057
   137.774700000000         8.561561126173019E-057
   138.014100000000         6.966004967379552E-057
   138.253500000000         3.665480859055855E-057
   138.492900000000        -1.481896639298644E-057
   138.732300000000        -8.384509299475063E-057