  -1.79550000000000         0.000000000000000E+000
  -1.55610000000000         0.000000000000000E+000
  -1.31670000000000         0.000000000000000E+000
  -1.07730000000000         0.000000000000000E+000
 -0.837900000000000         0.000000000000000E+000
 -0.598500000000000         0.000000000000000E+000
 -0.359100000000000         0.000000000000000E+000
 -0.119700000000000         0.000000000000000E+000
  0.119700000000000         0.000000000000000E+000
  0.359100000000000         0.000000000000000E+000
  0.598500000000000         0.000000000000000E+000
  0.837900000000000         0.000000000000000E+000
   1.07730000000000         0.000000000000000E+000
   1.31670000000000         0.000000000000000E+000
   1.55610000000000         0.000000000000000E+000
   1.79550000000000         0.000000000000000E+000
   2.03490000000000         0.000000000000000E+000
   2.27430000000000         0.000000000000000E+000
   2.51370000000000         0.000000000000000E+000
   2.75310000000000         0.000000000000000E+000
   2.99250000000000         0.000000000000000E+000
   3.23190000000000         0.000000000000000E+000
   3.47130000000000         0.000000000000000E+000
   3.71070000000000         0.000000000000000E+000
   3.95010000000000         0.000000000000000E+000
   4.18950000000000         0.000000000000000E+000
   4.42890000000000         0.000000000000000E+000
   4.66830000000000         0.000000000000000E+000
   4.90770000000000         0.000000000000000E+000
   5.14710000000000         0.000000000000000E+000
   5.38650000000000         0.000000000000000E+000
   5.62590000000000         0.000000000000000E+000
   5.86530000000000         0.000000000000000E+000
   6.10470000000000         0.000000000000000E+000
   6.34410000000000         0.000000000000000E+000
   6.58350000000000         0.000000000000000E+000
   6.82290000000000         0.000000000000000E+000
   7.06230000000000         0.000000000000000E+000
   7.30170000000000         0.000000000000000E+000
   7.54110000000000         0.000000000000000E+000
   7.78050000000000         0.000000000000000E+000
   8.01990000000000         0.000000000000000E+000
   8.25930000000000         0.000000000000000E+000
   8.49870000000000         3.015840247388299E-180
   8.73810000000000        -9.711175657938727E-174
   8.97750000000000         1.710330966531820E-170
   9.21690000000000        -8.755488235188195E-169
   9.45630000000000         5.805221931914208E-166
   9.69570000000000         4.119238392895269E-164
   9.93510000000000         1.377224409446077E-162
   10.1745000000000         2.981483667750161E-161
   10.4139000000000         4.727712671956181E-160
   10.6533000000000         5.877252213715702E-159
   10.8927000000000         6.015550324484921E-158
   11.1321000000000         5.324453076034927E-157
   11.3715000000000         4.344154988366588E-156
   11.6109000000000         3.533098284515775E-155
   11.8503000000000         3.027189412533524E-154
   12.0897000000000         2.704370605730516E-153
   12.3291000000000         2.386906593757871E-152
   12.5685000000000         1.985590064847555E-151
   12.8079000000000         1.520027477576451E-150
   13.0473000000000         1.062790650611838E-149
   13.2867000000000         6.789300333051622E-149
   13.5261000000000         3.976070393910855E-148
   13.7655000000000         2.143852466573251E-147
   14.0049000000000         1.068963687437238E-146
   14.2443000000000         4.951135506939676E-146
   14.4837000000000         2.140839749349979E-145
   14.7231000000000         8.697417607881910E-145
   14.9625000000000         3.351484624754927E-144
   15.2019000000000         1.243261550156746E-143
   15.4413000000000         4.540004417659924E-143
   15.6807000000000         1.679743617754331E-142
   15.9201000000000         6.469740149973832E-142
   16.1595000000000         2.624158340413735E-141
   16.3989000000000         1.109046165403332E-140
   16.6383000000000         4.767874395590037E-140
   16.8777000000000         2.035884187180189E-139
   17.1171000000000         8.491698698834173E-139
   17.3565000000000         3.427902152880183E-138
   17.5959000000000         1.333739197929883E-137
   17.8353000000000         4.996027220866685E-137
   18.0747000000000         1.802318656114547E-136
   18.3141000000000         6.267318511940626E-136
   18.5535000000000         2.102752662420383E-135
   18.7929000000000         6.811621687890991E-135
   19.0323000000000         2.130911021532207E-134
   19.2717000000000         6.435053088627376E-134
   19.5111000000000         1.873578593489362E-133
   19.7505000000000         5.246986630278053E-133
   19.9899000000000         1.407919706280395E-132
   20.2293000000000         3.597009186796893E-132
   20.4687000000000         8.658682550393289E-132
   20.7081000000000         1.927295364908864E-131
   20.9475000000000         3.816044778905559E-131
   21.1869000000000         6.059725268525634E-131
   21.4263000000000         4.440838854412782E-131
   21.6657000000000        -1.881962934952646E-130
   21.9051000000000        -1.233530640126762E-129
   22.1445000000000        -4.841951079552232E-129
   22.3839000000000        -1.564532683302600E-128
   22.6233000000000        -4.475384062298751E-128
   22.8627000000000        -1.160115702412128E-127
   23.1021000000000        -2.732361606275419E-127
   23.3415000000000        -5.759182934576410E-127
   23.5809000000000        -1.035718625514213E-126
   23.8203000000000        -1.349593542265174E-126
   24.0597000000000        -5.188374046810604E-128
   24.2991000000000         7.791212932475278E-126
   24.5385000000000         3.613522587433944E-125
   24.7779000000000         1.198367494296484E-124
   25.0173000000000         3.366228219164091E-124
   25.2567000000000         8.390413468381019E-124
   25.4961000000000         1.876021239424665E-123
   25.7355000000000         3.717144912932594E-123
   25.9749000000000         6.213775912766092E-123
   26.2143000000000         7.311210756786095E-123
   26.4537000000000        -1.046522808696250E-123
   26.6931000000000        -4.276070096443608E-122
   26.9325000000000        -1.786752030806351E-121
   27.1719000000000        -5.466995102208801E-121
   27.4113000000000        -1.427181628567736E-120
   27.6507000000000        -3.323749257516694E-120
   27.8901000000000        -6.994309481174328E-120
   28.1295000000000        -1.322091905774985E-119
   28.3689000000000        -2.178182914057222E-119
   28.6083000000000        -2.845798849570793E-119
   28.8477000000000        -1.785806765083809E-119
   29.0871000000000         5.152939750787939E-119
   29.3265000000000         2.745785485404910E-118
   29.5659000000000         8.415914470878296E-118
   29.8053000000000         2.086745827819372E-117
   30.0447000000000         4.502094583704189E-117
   30.2841000000000         8.600492578145885E-117
   30.5235000000000         1.435941342302856E-116
   30.7629000000000         1.971707041108089E-116
   31.0023000000000         1.722158694623881E-116
   31.2417000000000        -1.242927201992676E-116
   31.4811000000000        -1.111613071218747E-115
   31.7205000000000        -3.583046746362245E-115
   31.9599000000000        -8.840130499568365E-115
   32.1993000000000        -1.863645507708086E-114
   32.4387000000000        -3.450476824056420E-114
   32.6781000000000        -5.560582954415693E-114
   32.9175000000000        -7.359838869834402E-114
   33.1569000000000        -6.232193072536785E-114
   33.3963000000000         4.017743825800139E-114
   33.6357000000000         3.582823974204594E-113
   33.8751000000000         1.109323490215063E-112
   34.1145000000000         2.618636147460808E-112
   34.3539000000000         5.269966727831398E-112
   34.5933000000000         9.289727078396769E-112
   34.8327000000000         1.418562224797454E-111
   35.0721000000000         1.756848705234508E-111
   35.3115000000000         1.302938011684919E-111
   35.5509000000000        -1.315735294768931E-111
   35.7903000000000        -8.623973604476270E-111
   36.0297000000000        -2.465385745381788E-110
   36.2691000000000        -5.480908759175413E-110
   36.5085000000000        -1.043405837702093E-109
   36.7479000000000        -1.738238448814321E-109
   36.9873000000000        -2.491599008936096E-109
   37.2267000000000        -2.829516858554710E-109
   37.4661000000000        -1.645179269927229E-109
   37.7055000000000         3.209655000090323E-109
   37.9449000000000         1.534753624822597E-108
   38.1843000000000         4.000000969781948E-108
   38.4237000000000         8.328876821926775E-108
   38.6631000000000         1.494924050619499E-107
   38.9025000000000         2.345517769180694E-107
   39.1419000000000         3.134956896802324E-107
   39.3813000000000         3.194946753141541E-107
   39.6207000000000         1.138677998662801E-107
   39.8601000000000        -5.487576582292594E-107
   40.0995000000000        -2.045443858307383E-106
   40.3389000000000        -4.866622958458127E-106
   40.5783000000000        -9.492079058809254E-106
   40.8177000000000        -1.606138362635494E-105
   41.0571000000000        -2.370237306365380E-105
   41.2965000000000        -2.936978301209304E-105
   41.5359000000000        -2.610731679277587E-105
   41.7753000000000        -8.592191841882338E-107
   42.0147000000000         6.756581329840277E-105
   42.2541000000000         2.089039979314969E-104
   42.4935000000000         4.573773125952193E-104
   42.7329000000000         8.384935487896309E-104
   42.9723000000000         1.340089870784293E-103
   43.2117000000000         1.859891950164435E-103
   43.4511000000000         2.123469204357078E-103
   43.6905000000000         1.573970223044856E-103
   43.9299000000000        -7.469960665038291E-104
   44.1693000000000        -6.273987974271702E-103
   44.4087000000000        -1.683974283597046E-102
   44.6481000000000        -3.426042694855659E-102
   44.8875000000000        -5.931309044940055E-102
   45.1269000000000        -8.976756109482915E-102
   45.3663000000000        -1.171527833207510E-101
   45.6057000000000        -1.221504552299476E-101
   45.8451000000000        -6.908018600414367E-102
   46.0845000000000         9.892489973953733E-102
   46.3239000000000         4.605575368110363E-101
   46.5633000000000         1.106560134241127E-100
   46.8027000000000         2.109966499322973E-100
   47.0421000000000         3.463730441089772E-100
   47.2815000000000         4.972232472576003E-100
   47.5209000000000         6.087865748591941E-100
   47.7603000000000         5.699377682459320E-100
   47.9997000000000         1.911637408105730E-100
   48.2391000000000        -8.085900198091805E-100
   48.4785000000000        -2.787815747460361E-099
   48.7179000000000        -6.111528351470833E-099
   48.9573000000000        -1.098243635780282E-098
   49.1967000000000        -1.712623262781517E-098
   49.4361000000000        -2.329023418780033E-098
   49.6755000000000        -2.655058478007354E-098
   49.9149000000000        -2.150793121459001E-098
   50.1543000000000         3.928056540352524E-100
   50.3937000000000         5.093903766713083E-098
   50.6331000000000         1.438142699368706E-097
   50.8725000000000         2.906697037432239E-097
   51.1119000000000         4.931347568803434E-097
   51.3513000000000         7.293224752334760E-097
   51.5907000000000         9.341043861125827E-097
   51.8301000000000         9.743704156392672E-097
   52.0695000000000         6.242732313212350E-097
   52.3089000000000        -4.483761967091529E-097
   52.5483000000000        -2.664722395923326E-096
   52.7877000000000        -6.456329304260480E-096
   53.0271000000000        -1.208599493272731E-095
   53.2665000000000        -1.932539043950186E-095
   53.5059000000000        -2.695916596391702E-095
   53.7453000000000        -3.212522360210729E-095
   53.9847000000000        -2.958419746032554E-095
   54.2241000000000        -1.115229611949442E-095
   54.4635000000000         3.426322752071517E-095
   54.7029000000000         1.193319628697222E-094
   54.9423000000000         2.547256041519148E-094
   55.1817000000000         4.422170148380431E-094
   55.4211000000000         6.635366694846580E-094
   55.6605000000000         8.648192201890874E-094
   55.8999000000000         9.381485133662204E-094
   56.1393000000000         7.046523118375389E-094
   56.3787000000000        -9.200214516052252E-095
   56.6181000000000        -1.767214135074040E-093
   56.8575000000000        -4.631732522061746E-093
   57.0969000000000        -8.858138336659413E-093
   57.3363000000000        -1.425462356310433E-092
   57.5757000000000        -1.993591497163799E-092
   57.8151000000000        -2.391213949256709E-092
   58.0545000000000        -2.267276563839230E-092
   58.2939000000000        -1.092910419202751E-092
   58.5333000000000         1.820739466564045E-092
   58.7727000000000         7.220916211440143E-092
   59.0121000000000         1.567799850230068E-091
   59.2515000000000         2.716662556864788E-091
   59.4909000000000         4.043302469300540E-091
   59.7303000000000         5.217118595508862E-091
   59.9697000000000         5.613021960043068E-091
   60.2091000000000         4.243155820825424E-091
   60.4485000000000        -2.414783210921453E-092
   60.6879000000000        -9.406714127526556E-091
   60.9273000000000        -2.465523969857628E-090
   61.1667000000000        -4.651300214142442E-090
   61.4061000000000        -7.351200943727106E-090
   61.6455000000000        -1.006832705040524E-089
   61.8849000000000        -1.178377204106869E-089
   62.1243000000000        -1.080760463067102E-089
   62.3637000000000        -4.732973956422917E-090
   62.6031000000000         9.384339147401435E-090
   62.8425000000000         3.446060193676806E-089
   63.0819000000000         7.225731604518500E-089
   63.3213000000000         1.215527310103425E-088
   63.5607000000000         1.755952047326486E-088
   63.8001000000000         2.190745593969360E-088
   64.0395000000000         2.252616922032372E-088
   64.2789000000000         1.545464246430084E-088
   64.5183000000000        -4.370456233526180E-089
   64.7577000000000        -4.233909156016565E-088
   64.9971000000000        -1.025098698722703E-087
   65.2365000000000        -1.848168002072065E-087
   65.4759000000000        -2.810582973869307E-087
   65.7153000000000        -3.699508055456867E-087
   65.9547000000000        -4.121419682833032E-087
   66.1941000000000        -3.469522072947379E-087
   66.4335000000000        -9.368086288331371E-088
   66.6729000000000         4.386284954807726E-087
   66.9123000000000         1.328408740450612E-086
   67.1517000000000         2.601570679236063E-086
   67.3911000000000         4.172261987139691E-086
   67.6305000000000         5.767308641943579E-086
   67.8699000000000         6.845797472780604E-086
   68.1093000000000         6.537682118025015E-086
   68.3487000000000         3.640820435675174E-086
   68.5881000000000        -3.268125188792389E-086
   68.8275000000000        -1.554213577427515E-085
   69.0669000000000        -3.392639432761672E-085
   69.3063000000000        -5.773541388979286E-085
   69.5457000000000        -8.376806208056570E-085
   69.7851000000000        -1.050957632062319E-084
   70.0245000000000        -1.100258882015185E-084
   70.2639000000000        -8.175579298060076E-085
   70.5033000000000         5.381318624133950E-087
   70.7427000000000         1.582520694284228E-084
   70.9821000000000         4.065965198390847E-084
   71.2215000000000         7.438505639459899E-084
   71.4609000000000         1.136695210528684E-083
   71.7003000000000         1.503072264236118E-083
   71.9397000000000         1.696125413629700E-083
   72.1791000000000         1.495553599075319E-083
   72.4185000000000         6.157962567758542E-084
   72.6579000000000        -1.256876435309080E-083
   72.8973000000000        -4.385333847196567E-083
   73.1367000000000        -8.850088708337855E-083
   73.3761000000000        -1.436293970289660E-082
   73.6155000000000        -2.003926607147381E-082
   73.8549000000000        -2.416760968750136E-082
   74.0943000000000        -2.404917419665537E-082
   74.3337000000000        -1.601922860350380E-082
   74.5731000000000         4.201064959276134E-083
   74.8125000000000         4.065430761259909E-082
   75.0519000000000         9.564778436808169E-082
   75.2913000000000         1.675362797519903E-081
   75.5307000000000         2.478878651069111E-081
   75.7701000000000         3.184139127146593E-081
   76.0095000000000         3.484364911148427E-081
   76.2489000000000         2.941383372173035E-081
   76.4883000000000         1.013102989490298E-081
   76.7277000000000        -2.863702658829972E-081
   76.9671000000000        -9.115512417464690E-081
   77.2065000000000        -1.778641822287733E-080
   77.4459000000000        -2.820889323504255E-080
   77.6853000000000        -3.862425362667857E-080
   77.9247000000000        -4.582843019587152E-080
   78.1641000000000        -4.497179423644938E-080
   78.4035000000000        -2.969810175350893E-080
   78.6429000000000         7.147438576612989E-081
   78.8823000000000         7.199996854825864E-080
   79.1217000000000         1.680585656043917E-079
   79.3611000000000         2.917344785307100E-079
   79.6005000000000         4.283071488946068E-079
   79.8399000000000         5.474576151201254E-079
   80.0793000000000         5.999080172465755E-079
   80.3187000000000         5.170245298474655E-079
   80.5581000000000         2.158072336007151E-079
   80.7975000000000        -3.880197626635556E-079
   81.0369000000000        -1.356386457349883E-078
   81.2763000000000        -2.693496766934294E-078
   81.5157000000000        -4.299939048568470E-078
   81.7551000000000        -5.921522902977230E-078
   81.9945000000000        -7.103558958558418E-078
   82.2339000000000        -7.167816135171960E-078
   82.4733000000000        -5.235851529836864E-078
   82.7127000000000        -3.269273136320659E-079
   82.9521000000000         8.441409791331551E-078
   83.1915000000000         2.153019319958121E-077
   83.4309000000000         3.853326114218726E-077
   83.6703000000000         5.764310875998053E-077
   83.9097000000000         7.511247919591895E-077
   84.1491000000000         8.485845138742686E-077
   84.3885000000000         7.842304768030257E-077
   84.6279000000000         4.556095705444335E-077
   84.8673000000000        -2.425241145350050E-077
   85.1067000000000        -1.391410794755609E-076
   85.3461000000000        -3.008657525418788E-076
   85.5855000000000        -4.997374508617591E-076
   85.8249000000000        -7.089851826010004E-076
   86.0643000000000        -8.797121301030078E-076
   86.3037000000000        -9.382163365088733E-076
   86.5431000000000        -7.880643693075728E-076
   86.7825000000000        -3.197054611441686E-076
   87.0219000000000         5.696549105861848E-076
   87.2613000000000         1.944042538881634E-075
   87.5007000000000         3.784599511444886E-075
   87.7401000000000         5.936623270720866E-075
   87.9795000000000         8.055578351753913E-075
   88.2189000000000         9.565513745624405E-075
   88.4583000000000         9.649225012506497E-075
   88.6977000000000         7.294353083241939E-075
   88.9371000000000         1.421443765332419E-075
   89.1765000000000        -8.883686024057088E-075
   89.4159000000000        -2.402282738997814E-074
   89.6553000000000        -4.343555009639386E-074
   89.8947000000000        -6.509301268211030E-074
   90.1341000000000        -8.502684928681049E-074
   90.3735000000000        -9.703600837621031E-074
   90.6129000000000        -9.276327183869187E-074
   90.8523000000000        -6.236540128969221E-074
   91.0917000000000         4.002446915545403E-075
   91.3311000000000         1.137282745490298E-073
   91.5705000000000         2.682911218635418E-073
   91.8099000000000         4.590306247252918E-073
   92.0493000000000         6.626853017670754E-073
   92.2887000000000         8.376539958310910E-073
   92.5281000000000         9.223648783437577E-073
   92.7675000000000         8.374971292384199E-073
   93.0069000000000         4.939596363990418E-073
   93.2463000000000        -1.916760966963646E-073
   93.4857000000000        -1.273342551527600E-072
   93.7251000000000        -2.743744757385969E-072
   93.9645000000000        -4.497458817326414E-072
   94.2039000000000        -6.294529608756737E-072
   94.4433000000000        -7.733622142794766E-072
   94.6827000000000        -8.247066547246062E-072
   94.9221000000000        -7.132473019498785E-072
   95.1615000000000        -3.635846048367328E-072
   95.4009000000000         2.902021628275889E-072
   95.6403000000000         1.283194285811959E-071
   95.8797000000000         2.592508746779989E-071
   96.1191000000000         4.107300088739191E-071
   96.3585000000000         5.601189042429768E-071
   96.5979000000000         6.715017405225069E-071
   96.8373000000000         6.960121647140947E-071
   97.0767000000000         5.753588136229276E-071
   97.3161000000000         2.496305382835716E-071
   97.5555000000000        -3.298906185622228E-071
   97.7949000000000        -1.182908959224574E-070
   98.0343000000000        -2.278439617709896E-070
   98.2737000000000        -3.511985828221104E-070
   98.5131000000000        -4.686110177938384E-070
   98.7525000000000        -5.500791815959095E-070
   98.9919000000000        -5.561416958512559E-070
   99.2313000000000        -4.412753456607528E-070
   99.4707000000000        -1.606157489405158E-070
   99.7101000000000         3.196106130831678E-070
   99.9495000000000         1.008169308192358E-069
   100.188900000000         1.872551773700300E-069
   100.428300000000         2.822661522714310E-069
   100.667700000000         3.698056934161093E-069
   100.907100000000         4.263579801182249E-069
   101.146500000000         4.219030057066742E-069
   101.385900000000         3.228582890126059E-069
   101.625300000000         9.744400828476453E-070
   101.864700000000        -2.763649432943921E-069
   102.104100000000        -8.006145155866800E-069
   102.343500000000        -1.445858966211359E-068
   102.582900000000        -2.140162893937595E-068
   102.822300000000        -2.761288610825520E-068
   103.061700000000        -3.135494767396840E-068
   103.301100000000        -3.046789425129758E-068
   103.540500000000        -2.260289179658266E-068
   103.779900000000        -5.622529661719869E-069
   104.019300000000         2.182853946873173E-068
   104.258700000000         5.961373973310249E-068
   104.498100000000         1.053328594191435E-067
   104.737500000000         1.536199766990391E-067
   104.976900000000         1.956970039968595E-067
   105.216300000000         2.194122506747828E-067
   105.455700000000         2.100107609624294E-067
   105.695100000000         1.518572956608913E-067
   105.934500000000         3.124685029827823E-068
   106.173900000000        -1.597212137819915E-067
   106.413300000000        -4.184648897796617E-067
   106.652700000000        -7.269985248114486E-067
   106.892100000000        -1.047669420157320E-066
   107.131500000000        -1.320776026082503E-066
   107.370900000000        -1.465524906362149E-066
   107.610300000000        -1.385832120681023E-066
   107.849700000000        -9.822354641945025E-067
   108.089100000000        -1.705624539420661E-067
   108.328500000000         1.093067510839208E-066
   108.567900000000         2.782841431354321E-066
   108.807300000000         4.773256085977304E-066
   109.046700000000         6.814350963964246E-066
   109.286100000000         8.519824980262294E-066
   109.525500000000         9.376863429512126E-066
   109.764900000000         8.786454757076402E-066
   110.004300000000         6.141124018527127E-066
   110.243700000000         9.428468664991663E-067
   110.483100000000        -7.042845597968497E-066
   110.722500000000        -1.760979588930873E-065
   110.961900000000        -2.993546234731956E-065
   111.201300000000        -4.244228095596450E-065
   111.440700000000        -5.274186743101414E-065
   111.680100000000        -5.771332397416570E-065
   111.919500000000        -5.376489361858079E-065
   112.158900000000        -3.731541827563599E-065
   112.398300000000        -5.505934420726023E-066
   112.637700000000         4.288885004397283E-065
   112.877100000000         1.064333109891575E-064
   113.116500000000         1.800347432461555E-064
   113.355900000000         2.541885447092560E-064
   113.595300000000         3.147269797294525E-064
   113.834700000000         3.433587112947100E-064
   114.074100000000         3.192667888054600E-064
   114.313500000000         2.219519712320796E-064
   114.552900000000         3.535349893756177E-065
   114.792300000000        -2.469533855383002E-064
   115.031700000000        -6.159855408280191E-064
   115.271100000000        -1.041851839928900E-063
   115.510500000000        -1.469709979672492E-063
   115.749900000000        -1.818631750440420E-063
   115.989300000000        -1.984938163449987E-063
   116.228700000000        -1.851426731763214E-063
   116.468100000000        -1.303438853483835E-063
   116.707500000000        -2.518444839553586E-064
   116.946900000000         1.338259022597601E-063
   117.186300000000         3.415968061147159E-063
   117.425700000000         5.814778264241618E-063
   117.665100000000         8.231011216435092E-063
   117.904500000000         1.021825405369869E-062
   118.143900000000         1.120609944356279E-062
   118.383300000000         1.055063528731092E-062
   118.622700000000         7.621526543764638E-063
   118.862100000000         1.925860209084313E-063
   119.101500000000        -6.737851860625662E-063
   119.340900000000        -1.811066570768518E-062
   119.580300000000        -3.131385925091685E-062
   119.819700000000        -4.473305109140597E-062
   120.059100000000        -5.598649997009102E-062
   120.298500000000        -6.202074207748441E-062
   120.537900000000        -5.937229837951271E-062
   120.777300000000        -4.462072114069740E-062
   121.016700000000        -1.503429358713396E-062
   121.256100000000         3.062491583792510E-062
   121.495500000000         9.121350836760580E-062
   121.734900000000         1.623620399878040E-061
   121.974300000000         2.358451250281373E-061
   122.213700000000         2.993740165455785E-061
   122.453100000000         3.370328534553368E-061
   122.692500000000         3.305592708579667E-061
   122.931900000000         2.616047370269637E-061
   123.171300000000         1.149924529786226E-061
   123.410700000000        -1.171802030765806E-061
   123.650100000000        -4.309639853542785E-061
   123.889500000000        -8.061165559568970E-061
   124.128900000000        -1.202645959886268E-060
   124.368300000000        -1.559373287695747E-060
   124.607700000000        -1.795630975097607E-060
   124.847100000000        -1.817132700881461E-060
   125.086500000000        -1.526754133814519E-060
   125.325900000000        -8.404126933586553E-061
   125.565300000000         2.925803926947688E-061
   125.804700000000         1.866368359690417E-060
   126.044100000000         3.795460507516902E-060
   126.283500000000         5.895757633959004E-060
   126.522900000000         7.874719025591696E-060
   126.762300000000         9.336209604540850E-060
   127.001700000000         9.805330024280416E-060
   127.241100000000         8.777283913772414E-060
   127.480500000000         5.791874748609782E-060
   127.719900000000         5.314764609309187E-061
   127.959300000000        -7.064595933371129E-060
   128.198700000000        -1.668211190177438E-059
   128.438100000000        -2.752902058282893E-059
   128.677500000000        -3.827138197601686E-059
   128.916900000000        -4.703502483108828E-059
   129.156300000000        -5.149965055682541E-059
   129.395700000000        -4.910733347788810E-059
   129.635100000000        -3.739695463919181E-059
   129.874500000000        -1.445953648144896E-059
   130.113900000000         2.051296075467750E-059
   130.353300000000         6.663963329476540E-059
   130.592700000000         1.208061520423231E-058
   130.832100000000         1.772725792056491E-058
   131.071500000000         2.275605311971491E-058
   131.310900000000         2.607511016533352E-058
   131.550300000000         2.643091713345492E-058
   131.789700000000         2.255084388215194E-058
   132.029100000000         1.334614883489774E-058
   132.268500000000        -1.833924684788522E-059
   132.507900000000        -2.291855570097028E-058
   132.747300000000        -4.883726498635712E-058
   132.986700000000        -7.729527803844274E-058
   133.226100000000        -1.046603719871103E-057
   133.465500000000        -1.260237815569240E-057
   133.704900000000        -1.354937854691797E-057
   133.944300000000        -1.267655037706826E-057
   134.183700000000        -9.398236271835502E-058
   134.423100000000        -3.286319510175143E-058
   134.662500000000         5.798436525412261E-058
   134.901900000000         1.757045305789603E-057
   135.141300000000         3.119900940307915E-057
   135.380700000000         4.522899786850030E-057
   135.620100000000         5.757139868453152E-057
   135.859500000000         6.559186417277957E-057
   136.098900000000         6.632087887387417E-057
   136.338300000000         5.679838983182185E-057
   136.577700000000         3.454914614176152E-057
   136.817100000000        -1.837364757405822E-058
   137.056500000000        -5.207509639464307E-057
   137.295900000000        -1.135786253981381E-056
   137.535300000000        -1.809960506577051E-056
   137.774700000000        -2.460027978381815E-056
   138.014100000000        -2.974869556113606E-056
   138.253500000000        -3.222434724430823E-056
   138.492900000000        -3.062577011000625E-056
   138.732300000000        -2.365955707744308E-056