  -1.79550000000000         0.000000000000000E+000
  -1.55610000000000         0.000000000000000E+000
  -1.31670000000000         0.000000000000000E+000
  -1.07730000000000         0.000000000000000E+000
 -0.837900000000000         0.000000000000000E+000
 -0.598500000000000         0.000000000000000E+000
 -0.359100000000000         0.000000000000000E+000
 -0.119700000000000         0.000000000000000E+000
  0.119700000000000         0.000000000000000E+000
  0.359100000000000         0.000000000000000E+000
  0.598500000000000         0.000000000000000E+000
  0.837900000000000         0.000000000000000E+000
   1.07730000000000         0.000000000000000E+000
   1.31670000000000         0.000000000000000E+000
   1.55610000000000         0.000000000000000E+000
   1.79550000000000         0.000000000000000E+000
   2.03490000000000         0.000000000000000E+000
   2.27430000000000         0.000000000000000E+000
   2.51370000000000         0.000000000000000E+000
   2.75310000000000         0.000000000000000E+000
   2.99250000000000         0.000000000000000E+000
   3.23190000000000         0.000000000000000E+000
   3.47130000000000         0.000000000000000E+000
   3.71070000000000         0.000000000000000E+000
   3.95010000000000         0.000000000000000E+000
   4.18950000000000         0.000000000000000E+000
   4.42890000000000         0.000000000000000E+000
   4.66830000000000         0.000000000000000E+000
   4.90770000000000         0.000000000000000E+000
   5.14710000000000         0.000000000000000E+000
   5.38650000000000         0.000000000000000E+000
   5.62590000000000         0.000000000000000E+000
   5.86530000000000         0.000000000000000E+000
   6.10470000000000         0.000000000000000E+000
   6.34410000000000         0.000000000000000E+000
   6.58350000000000         0.000000000000000E+000
   6.82290000000000         0.000000000000000E+000
   7.06230000000000         0.000000000000000E+000
   7.30170000000000         0.000000000000000E+000
   7.54110000000000         0.000000000000000E+000
   7.78050000000000         0.000000000000000E+000
   8.01990000000000         0.000000000000000E+000
   8.25930000000000         0.000000000000000E+000
   8.49870000000000        -4.485234499744422E-182
   8.73810000000000         4.794040707247703E-174
   8.97750000000000        -8.397460742953167E-171
   9.21690000000000        -7.217204662855377E-171
   9.45630000000000        -2.340224616440152E-166
   9.69570000000000        -1.762935536761182E-164
   9.93510000000000        -6.551418856403301E-163
   10.1745000000000        -1.617689734893226E-161
   10.4139000000000        -2.998427966227101E-160
   10.6533000000000        -4.461725851933924E-159
   10.8927000000000        -5.563112953208030E-158
   11.1321000000000        -5.986464910847821E-157
   11.3715000000000        -5.677584180447407E-156
   11.6109000000000        -4.814044290263217E-155
   11.8503000000000        -3.678931616273275E-154
   12.0897000000000        -2.536733963786508E-153
   12.3291000000000        -1.564724138512704E-152
   12.5685000000000        -8.409173070534167E-152
   12.8079000000000        -3.656677746000650E-151
   13.0473000000000        -9.414753213314383E-151
   13.2867000000000         3.438321464722499E-150
   13.5261000000000         7.663064759320361E-149
   13.7655000000000         7.547293261764610E-148
   14.0049000000000         5.812296737327156E-147
   14.2443000000000         3.889759562299186E-146
   14.4837000000000         2.354201541284070E-145
   14.7231000000000         1.314637688218407E-144
   14.9625000000000         6.854571514696911E-144
   15.2019000000000         3.363743809527281E-143
   15.4413000000000         1.562621234100949E-142
   15.6807000000000         6.902948334263504E-142
   15.9201000000000         2.910532279557127E-141
   16.1595000000000         1.174993901472844E-140
   16.3989000000000         4.554338299727228E-140
   16.6383000000000         1.699102665024929E-139
   16.8777000000000         6.115077423228298E-139
   17.1171000000000         2.127540200324177E-138
   17.3565000000000         7.169408991332642E-138
   17.5959000000000         2.344162865732662E-137
   17.8353000000000         7.448844970199820E-137
   18.0747000000000         2.303583087125910E-136
   18.3141000000000         6.941503889556004E-136
   18.5535000000000         2.040053424369480E-135
   18.7929000000000         5.850942525616186E-135
   19.0323000000000         1.637882415529086E-134
   19.2717000000000         4.473624984449905E-134
   19.5111000000000         1.191000058935093E-133
   19.7505000000000         3.084705936151888E-133
   19.9899000000000         7.748612039056398E-133
   20.2293000000000         1.878713561529359E-132
   20.4687000000000         4.364075980016097E-132
   20.7081000000000         9.596232007923401E-132
   20.9475000000000         1.955766048603917E-131
   21.1869000000000         3.538378275982188E-131
   21.4263000000000         5.054128033180190E-131
   21.6657000000000         2.799839297620454E-131
   21.9051000000000        -1.639596902758717E-130
   22.1445000000000        -9.084702791345980E-130
   22.3839000000000        -3.167664926403577E-129
   22.6233000000000        -9.020071617532020E-129
   22.8627000000000        -2.208750370568172E-128
   23.1021000000000        -4.609443627464169E-128
   23.3415000000000        -7.535756491285498E-128
   23.5809000000000        -5.930071891212605E-128
   23.8203000000000         2.036347332630440E-127
   24.0597000000000         1.339087513901240E-126
   24.2991000000000         5.010024745096647E-126
   24.5385000000000         1.508751763503509E-125
   24.7779000000000         3.935530361933012E-125
   25.0173000000000         9.040837366071683E-125
   25.2567000000000         1.799556629921060E-124
   25.4961000000000         2.884777792573926E-124
   25.7355000000000         2.628785006899175E-124
   25.9749000000000        -4.669086817487806E-124
   26.2143000000000        -3.573662485249331E-123
   26.4537000000000        -1.330669704258962E-122
   26.6931000000000        -3.927797872088576E-122
   26.9325000000000        -1.008795537847557E-121
   27.1719000000000        -2.322003921357611E-121
   27.4113000000000        -4.814904028233040E-121
   27.6507000000000        -8.867145676436353E-121
   27.8901000000000        -1.381038235815019E-120
   28.1295000000000        -1.528690317104457E-120
   28.3689000000000         9.602349896505278E-122
   28.6083000000000         7.185179386580723E-120
   28.8477000000000         2.798914800840442E-119
   29.0871000000000         7.876480709885845E-119
   29.3265000000000         1.874646072417631E-118
   29.5659000000000         3.937197364514837E-118
   29.8053000000000         7.341688178359238E-118
   30.0447000000000         1.188320154418140E-117
   30.2841000000000         1.536500594906755E-117
   30.5235000000000         1.048321996420806E-117
   30.7629000000000        -2.110962537542714E-117
   31.0023000000000        -1.185838541134233E-116
   31.2417000000000        -3.550918447443935E-116
   31.4811000000000        -8.490199097778129E-116
   31.7205000000000        -1.756476740085048E-115
   31.9599000000000        -3.204906291815725E-115
   32.1993000000000        -5.087482951230241E-115
   32.4387000000000        -6.579420798123433E-115
   32.6781000000000        -5.173614656164032E-115
   32.9175000000000         4.987578183901868E-115
   33.1569000000000         3.556669653651722E-114
   33.3963000000000         1.068142089054559E-113
   33.6357000000000         2.488784824980647E-113
   33.8751000000000         4.971093380599961E-113
   34.1145000000000         8.720677095138872E-113
   34.3539000000000         1.327918934507407E-112
   34.5933000000000         1.644689332054431E-112
   34.8327000000000         1.234902229632573E-112
   35.0721000000000        -1.155869443127882E-112
   35.3115000000000        -7.830780065977934E-112
   35.5509000000000        -2.246703479024876E-111
   35.7903000000000        -5.000968494497520E-111
   36.0297000000000        -9.534604050830928E-111
   36.2691000000000        -1.593561942550484E-110
   36.5085000000000        -2.301878658870112E-110
   36.7479000000000        -2.670329181692348E-110
   36.9873000000000        -1.740363409094270E-110
   37.2267000000000         2.352996246395144E-110
   37.4661000000000         1.275341710463965E-109
   37.7055000000000         3.403659493988590E-109
   37.9449000000000         7.163483184951989E-109
   38.1843000000000         1.296097661421645E-108
   38.4237000000000         2.053357555327340E-108
   38.6631000000000         2.792100682490035E-108
   38.9025000000000         2.975394466576031E-108
   39.1419000000000         1.480567857225594E-108
   39.3813000000000        -3.686149496857530E-108
   39.6207000000000        -1.560031378687770E-107
   39.8601000000000        -3.829514771339366E-107
   40.0995000000000        -7.582285825132471E-107
   40.3389000000000        -1.297427149616506E-106
   40.5783000000000        -1.940150057039508E-106
   40.8177000000000        -2.462197398909737E-106
   41.0571000000000        -2.345132793909105E-106
   41.2965000000000        -6.135249112010194E-107
   41.5359000000000         4.314695055669881E-106
   41.7753000000000         1.465672430875089E-105
   42.0147000000000         3.296879156246732E-105
   42.2541000000000         6.119926520326474E-105
   42.4935000000000         9.864362039645360E-105
   42.7329000000000         1.383050230385400E-104
   42.9723000000000         1.613206127543341E-104
   43.2117000000000         1.296862583817965E-104
   43.4511000000000        -2.121395610204273E-105
   43.6905000000000        -3.864872396940555E-104
   43.9299000000000        -1.084757097332874E-103
   44.1693000000000        -2.228584118927992E-103
   44.4087000000000        -3.856029214168614E-103
   44.6481000000000        -5.804956835065590E-103
   44.8875000000000        -7.516262157094807E-103
   45.1269000000000        -7.770333767212476E-103
   45.3663000000000        -4.401656591864967E-103
   45.6057000000000         5.891270416738417E-103
   45.8451000000000         2.741451393941420E-102
   46.0845000000000         6.466106793760747E-102
   46.3239000000000         1.203062931715483E-101
   46.5633000000000         1.914552760818883E-101
   46.8027000000000         2.637259987028846E-101
   47.0421000000000         3.032972206580475E-101
   47.2815000000000         2.482379134783618E-101
   47.5209000000000         2.495862739511504E-103
   47.7603000000000        -5.610607541260679E-101
   47.9997000000000        -1.578479407393349E-100
   48.2391000000000        -3.140040836171806E-100
   48.4785000000000        -5.188801429197454E-100
   48.7179000000000        -7.363269245769847E-100
   48.9573000000000        -8.791345302832898E-100
   49.1967000000000        -7.875754668912741E-100
   49.4361000000000        -2.165799360740318E-100
   49.6755000000000         1.151395268049930E-099
   49.9149000000000         3.642188123845441E-099
   50.1543000000000         7.442356190738037E-099
   50.3937000000000         1.233757249957474E-098
   50.6331000000000         1.732489918355404E-098
   50.8725000000000         2.013448962328592E-098
   51.1119000000000         1.678544542366499E-098
   51.3513000000000         1.438396331924833E-099
   51.5907000000000        -3.301437904068814E-098
   51.8301000000000        -9.300038075481590E-098
   52.0695000000000        -1.802441469042168E-097
   52.3089000000000        -2.850975266668686E-097
   52.5483000000000        -3.772535726905648E-097
   52.7877000000000        -3.952087907778493E-097
   53.0271000000000        -2.381467914819477E-097
   53.2665000000000         2.327352072668986E-097
   53.5059000000000         1.172405909304954E-096
   53.7453000000000         2.695047710963679E-096
   53.9847000000000         4.766464302587532E-096
   54.2241000000000         7.035902287357791E-096
   54.4635000000000         8.614462203538681E-096
   54.7029000000000         7.841747543525832E-096
   54.9423000000000         2.138761470038280E-096
   55.1817000000000        -1.187701467506804E-095
   55.4211000000000        -3.774969569926561E-095
   55.6605000000000        -7.768047128804401E-095
   55.8999000000000        -1.298250680040563E-094
   56.1393000000000        -1.842134791576477E-094
   56.3787000000000        -2.175343974207140E-094
   56.6181000000000        -1.878347214683555E-094
   56.8575000000000        -3.146190527015681E-095
   57.0969000000000         3.337061313234593E-094
   57.3363000000000         9.928015144544725E-094
   57.5757000000000         1.998891292409310E-093
   57.8151000000000         3.311061897844648E-093
   58.0545000000000         4.701955190898030E-093
   58.2939000000000         5.640178775392917E-093
   58.5333000000000         5.170118122741006E-093
   58.7727000000000         1.838323656519113E-093
   59.0121000000000        -6.248930784678795E-093
   59.2515000000000        -2.111343678131034E-092
   59.4909000000000        -4.418494740121494E-092
   59.7303000000000        -7.502178209910808E-092
   59.9697000000000        -1.093878625550065E-091
   60.2091000000000        -1.367772879564396E-091
   60.4485000000000        -1.378057825560236E-091
   60.6879000000000        -8.239904051447724E-092
   60.9273000000000         6.961199755232088E-092
   61.1667000000000         3.631252050091933E-091
   61.4061000000000         8.346655788523660E-091
   61.6455000000000         1.488535603348981E-090
   61.8849000000000         2.260312862871575E-090
   62.1243000000000         2.968817569004207E-090
   62.3637000000000         3.263419144425919E-090
   62.6031000000000         2.582569137705597E-090
   62.8425000000000         1.515766209497699E-091
   63.0819000000000        -4.938654716991233E-090
   63.3213000000000        -1.351863947033953E-089
   63.5607000000000        -2.593698630773387E-089
   63.8001000000000        -4.142657358252802E-089
   64.0395000000000        -5.724748340254187E-089
   64.2789000000000        -6.770641244834144E-089
   64.5183000000000        -6.329970545290059E-089
   64.7577000000000        -3.042856197557001E-089
   64.9971000000000         4.763192036855880E-089
   65.2365000000000         1.876194140742454E-088
   65.4759000000000         4.000536276618536E-088
   65.7153000000000         6.791127199391840E-088
   65.9547000000000         9.885196107170071E-088
   66.1941000000000         1.244716418018291E-087
   66.4335000000000         1.300847614647215E-087
   66.6729000000000         9.381970848680117E-088
   66.9123000000000        -1.245603135250885E-088
   67.1517000000000        -2.190409174891657E-087
   67.3911000000000        -5.495589149901648E-087
   67.6305000000000        -1.005999554793109E-086
   67.8699000000000        -1.547150575790881E-086
   68.1093000000000        -2.061833746715972E-086
   68.3487000000000        -2.341539400252294E-086
   68.5881000000000        -2.061599307291534E-086
   68.8275000000000        -7.856005460040147E-087
   69.0669000000000         1.986688657389728E-086
   69.3063000000000         6.703985688512309E-086
   69.5457000000000         1.355823532954362E-085
   69.7851000000000         2.217740184535014E-085
   70.0245000000000         3.122859097495972E-085
   70.2639000000000         3.798608157346874E-085
   70.5033000000000         3.798091214399398E-085
   70.7427000000000         2.492707837050951E-085
   70.9821000000000        -8.797927175381293E-086
   71.2215000000000        -7.077790735747120E-085
   71.4609000000000        -1.659444784513038E-084
   71.7003000000000        -2.924917680785909E-084
   71.9397000000000        -4.363728081860632E-084
   72.1791000000000        -5.649555810926766E-084
   72.4185000000000        -6.212125465691149E-084
   72.6579000000000        -5.208581743545624E-084
   72.8973000000000        -1.560034235836202E-084
   73.1367000000000         5.901184736925806E-084
   73.3761000000000         1.812456118290135E-083
   73.6155000000000         3.533540577187926E-083
   73.8549000000000         5.632140320516477E-083
   74.0943000000000         7.756367261034972E-083
   74.3337000000000         9.235984742316325E-083
   74.5731000000000         9.021650029547657E-083
   74.8125000000000         5.693967085318280E-083
   75.0519000000000        -2.400499673732497E-083
   75.2913000000000        -1.682099587681261E-082
   75.5307000000000        -3.845272742042626E-082
   75.7701000000000        -6.664564826029274E-082
   76.0095000000000        -9.810615289012674E-082
   76.2489000000000        -1.256827489231937E-081
   76.4883000000000        -1.373383960890754E-081
   76.7277000000000        -1.157882533374404E-081
   76.9671000000000        -3.947248453300120E-082
   77.2065000000000         1.143257594322217E-081
   77.4459000000000         3.634017863024267E-081
   77.6853000000000         7.110166476736965E-081
   77.9247000000000         1.132792133717076E-080
   78.1641000000000         1.561258765371935E-080
   78.4035000000000         1.870850895704519E-080
   78.6429000000000         1.868275137457202E-080
   78.8823000000000         1.295535948217701E-080
   79.1217000000000        -1.450451055726775E-081
   79.3611000000000        -2.733590787141895E-080
   79.6005000000000        -6.634446967009154E-080
   79.8399000000000        -1.175344935278391E-079
   80.0793000000000        -1.755756715207451E-079
   80.3187000000000        -2.288039672495198E-079
   80.5581000000000        -2.575965537977777E-079
   80.7975000000000        -2.337967813730583E-079
   81.0369000000000        -1.221833087626727E-079
   81.2763000000000         1.148431594228580E-079
   81.5157000000000         5.082048846002687E-079
   81.7551000000000         1.067946454958668E-078
   81.9945000000000         1.763994890986245E-078
   82.2339000000000         2.503515983585700E-078
   82.4733000000000         3.108728518177920E-078
   82.7127000000000         3.301853232782073E-078
   82.9521000000000         2.706921241493138E-078
   83.1915000000000         8.807590135510167E-079
   83.4309000000000        -2.613467752567669E-078
   83.6703000000000        -8.078667323704661E-078
   83.9097000000000        -1.549723700049169E-077
   84.1491000000000        -2.429328516602102E-077
   84.3885000000000        -3.307149839163315E-077
   84.6279000000000        -3.938758317963948E-077
   84.8673000000000        -3.963704223921760E-077
   85.1067000000000        -2.918030796320644E-077
   85.3461000000000        -2.843966178483617E-078
   85.5855000000000         4.406288079454076E-077
   85.8249000000000         1.141170944726453E-076
   86.0643000000000         2.055291303105116E-076
   86.3037000000000         3.094277897234915E-076
   86.5431000000000         4.070783940447989E-076
   86.7825000000000         4.677326836681742E-076
   87.0219000000000         4.481386373623136E-076
   87.2613000000000         2.950278266603063E-076
   87.5007000000000        -4.795854840367078E-077
   87.7401000000000        -6.275863639825329E-076
   87.9795000000000        -1.461860079921276E-075
   88.2189000000000        -2.514835845211043E-075
   88.4583000000000        -3.667786788981957E-075
   88.6977000000000        -4.691695416663161E-075
   88.9371000000000        -5.229155736189309E-075
   89.1765000000000        -4.796916154148290E-075
   89.4159000000000        -2.822695445232743E-075
   89.6553000000000         1.269570457097847E-075
   89.8947000000000         7.914651042720264E-075
   90.1341000000000         1.719726620681052E-074
   90.3735000000000         2.858945189340005E-074
   90.6129000000000         4.066419198623748E-074
   90.8523000000000         5.084182202056613E-074
   91.0917000000000         5.525541111153520E-074
   91.3311000000000         4.884908691910877E-074
   91.5705000000000         2.584080951279099E-074
   91.8099000000000        -1.932271770006204E-074
   92.0493000000000        -9.042956971420056E-074
   92.2887000000000        -1.873808329629787E-073
   92.5281000000000        -3.036226396959040E-073
   92.7675000000000        -4.234727354214107E-073
   93.0069000000000        -5.199310672535837E-073
   93.2463000000000        -5.538288770760384E-073
   93.4857000000000        -4.753973631980635E-073
   93.7251000000000        -2.294449947510151E-073
   93.9645000000000         2.347801391482291E-073
   94.2039000000000         9.484131459760399E-073
   94.4433000000000         1.902734510268644E-072
   94.6827000000000         3.025510004563077E-072
   94.9221000000000         4.157412340643824E-072
   95.1615000000000         5.034229309637955E-072
   95.4009000000000         5.282780865680743E-072
   95.6403000000000         4.440182429080712E-072
   95.8797000000000         2.006581958024775E-072
   96.1191000000000        -2.460111375890001E-072
   96.3585000000000        -9.203614061724218E-072
   96.5979000000000        -1.808728061370299E-071
   96.8373000000000        -2.838776860467212E-071
   97.0767000000000        -3.859758857156624E-071
   97.3161000000000        -4.628811302764266E-071
   97.5555000000000        -4.810210962390108E-071
   97.7949000000000        -3.995691317135080E-071
   98.0343000000000        -1.753987978529583E-071
   98.2737000000000         2.284027179397075E-071
   98.5131000000000         8.302618449808735E-071
   98.7525000000000         1.614628827272432E-070
   98.9919000000000         2.514875289744732E-070
   99.2313000000000         3.397511145498425E-070
   99.4707000000000         4.052099532101774E-070
   99.7101000000000         4.192555133293946E-070
   99.9495000000000         3.476299081518081E-070
   100.188900000000         1.547530958246049E-070
   100.428300000000        -1.890869791109020E-070
   100.667700000000        -6.976082688808921E-070
   100.907100000000        -1.356013900704901E-069
   101.146500000000        -2.107467578912203E-069
   101.385900000000        -2.840985682914354E-069
   101.625300000000        -3.384251216013187E-069
   101.864700000000        -3.505784716707961E-069
   102.104100000000        -2.931388894033247E-069
   102.343500000000        -1.379456699867486E-069
   102.582900000000         1.381788142571877E-069
   102.822300000000         5.455101992856242E-069
   103.061700000000         1.071784441121937E-068
   103.301100000000         1.671959799641752E-068
   103.540500000000         2.259256022667218E-068
   103.779900000000         2.700124301618067E-068
   104.019300000000         2.816436186681780E-068
   104.258700000000         2.398458055387987E-068
   104.498100000000         1.231844351169573E-068
   104.737500000000        -8.593258874181921E-069
   104.976900000000        -3.953748000910618E-068
   105.216300000000        -7.962107266915393E-068
   105.455700000000        -1.255269883978950E-067
   105.695100000000        -1.708717130392999E-067
   105.934500000000        -2.058543283486584E-067
   106.173900000000        -2.174294022092788E-067
   106.413300000000        -1.902514735471875E-067
   106.652700000000        -1.086109807156114E-067
   106.892100000000         4.050714899473908E-068
   107.131500000000         2.632740098278562E-067
   107.370900000000         5.540507327147442E-067
   107.610300000000         8.901942921685601E-067
   107.849700000000         1.227580973245511E-066
   108.089100000000         1.498143820924620E-066
   108.328500000000         1.610988107220881E-066
   108.567900000000         1.458736255522459E-066
   108.807300000000         9.305500127824949E-067
   109.046700000000        -6.732504875785650E-068
   109.286100000000        -1.583731281202800E-066
   109.525500000000        -3.589316136277802E-066
   109.764900000000        -5.941658155506556E-066
   110.004300000000        -8.354958462775919E-066
   110.243700000000        -1.038267770822382E-065
   110.483100000000        -1.142317210842664E-065
   110.722500000000        -1.075889788658048E-065
   110.961900000000        -7.638431411962094E-066
   111.201300000000        -1.406742133718467E-066
   111.440700000000         8.317621145565890E-066
   111.680100000000         2.142964008144672E-065
   111.919500000000         3.711298583937757E-065
   112.158900000000         5.364104950785022E-065
   112.398300000000         6.825525658255012E-065
   112.637700000000         7.718231280486681E-065
   112.877100000000         7.585529844622679E-065
   113.116500000000         5.939584651567210E-065
   113.355900000000         2.339223630961918E-065
   113.595300000000        -3.503161710180314E-065
   113.834700000000        -1.159192537482374E-064
   114.074100000000        -2.150933777642865E-064
   114.313500000000        -3.228952282648366E-064
   114.552900000000        -4.233506246393038E-064
   114.792300000000        -4.941227800875269E-064
   115.031700000000        -5.076338110973712E-064
   115.271100000000        -4.336971025237767E-064
   115.510500000000        -2.438802804302126E-064
   115.749900000000         8.240165609109724E-065
   115.989300000000         5.503852349898117E-064
   116.228700000000         1.141781392885986E-063
   116.468100000000         1.807116008341044E-063
   116.707500000000         2.460233458825407E-063
   116.946900000000         2.976962283049539E-063
   117.186300000000         3.200088516694426E-063
   117.425700000000         2.952601817499737E-063
   117.665100000000         2.060559355270757E-063
   117.904500000000         3.857706338161426E-064
   118.143900000000        -2.133179754793593E-063
   118.383300000000        -5.435218351644942E-063
   118.622700000000        -9.292484026742583E-063
   118.862100000000        -1.327598899740626E-062
   119.101500000000        -1.674175488343367E-062
   119.340900000000        -1.884888405407366E-062
   119.580300000000        -1.862033503047997E-062
   119.819700000000        -1.505426416396634E-062
   120.059100000000        -7.288246268854727E-063
   120.298500000000         5.189642730623894E-063
   120.537900000000         2.229970728167527E-062
   120.777300000000         4.312872532211578E-062
   121.016700000000         6.572901820786495E-062
   121.256100000000         8.701071287205785E-062
   121.495500000000         1.027850993568909E-061
   121.734900000000         1.080149442063814E-061
   121.974300000000         9.731501945486820E-062
   122.213700000000         6.572081634253761E-062
   122.453100000000         9.704654519991164E-063
   122.692500000000        -7.163256868553867E-062
   122.931900000000        -1.753250212257431E-061
   123.171300000000        -2.934526823264515E-061
   123.410700000000        -4.124430676258422E-061
   123.650100000000        -5.130390771398270E-061
   123.889500000000        -5.712048076916457E-061
   124.128900000000        -5.601902140991440E-061
   124.368300000000        -4.538668982753401E-061
   124.607700000000        -2.312770997432404E-061
   124.847100000000         1.178887186789605E-061
   125.086500000000         5.874366108818835E-061
   125.325900000000         1.149262924048430E-060
   125.565300000000         1.749465706765525E-060
   125.804700000000         2.307196163222503E-060
   126.044100000000         2.717478652190607E-060
   126.283500000000         2.859029135528824E-060
   126.522900000000         2.607655402476159E-060
   126.762300000000         1.855110836692099E-060
   127.001700000000         5.323191485503232E-061
   127.241100000000        -1.365237349265434E-060
   127.480500000000        -3.753340079279028E-060
   127.719900000000        -6.440466296015022E-060
   127.959300000000        -9.119886139517385E-060
   128.198700000000        -1.137751965827517E-059
   128.438100000000        -1.271984081789447E-059
   128.677500000000        -1.262429036365338E-059
   128.916900000000        -1.061176296008519E-059
   129.156300000000        -6.336879727973782E-060
   129.395700000000         3.127316250715245E-061
   129.635100000000         9.121496812597241E-060
   129.874500000000         1.947252277871632E-059
   130.113900000000         3.031527957310211E-059
   130.353300000000         4.019347580706068E-059
   130.592700000000         4.734843648942329E-059
   130.832100000000         4.990540329597983E-059
   131.071500000000         4.613818073253041E-059
   131.310900000000         3.479212951638114E-059
   131.550300000000         1.542822852223583E-059
   131.789700000000        -1.126570909886909E-059
   132.029100000000        -4.326324036145185E-059
   132.268500000000        -7.715831795827524E-059
   132.507900000000        -1.083596598654466E-058
   132.747300000000        -1.315632531270313E-058
   132.986700000000        -1.415076390671405E-058
   133.226100000000        -1.339630516928247E-058
   133.465500000000        -1.068408149623750E-058
   133.704900000000        -6.124188932277849E-059
   133.944300000000        -2.205247676586166E-060
   134.183700000000         6.111680211678380E-059
   134.423100000000         1.161212488526737E-058
   134.662500000000         1.484544916176753E-058
   134.901900000000         1.448154102926328E-058
   135.141300000000         9.672151126620893E-059
   135.380700000000         4.831854072539619E-060
   135.620100000000        -1.168803411652561E-058
   135.859500000000        -2.381026830584005E-058
   136.098900000000        -3.115203451679167E-058
   136.338300000000        -2.757962813791835E-058
   136.577700000000        -6.331438186691925E-059
   136.817100000000         3.866588644096106E-058
   137.056500000000         1.109549628545770E-057
   137.295900000000         2.093101438689964E-057
   137.535300000000         3.253797265964209E-057
   137.774700000000         4.416389563920013E-057
   138.014100000000         5.302295582569632E-057
   138.253500000000         5.533616096640746E-057
   138.492900000000         4.659696388260224E-057
   138.732300000000         2.212055291314872E-057