  -1.79550000000000         0.000000000000000E+000
  -1.55610000000000         0.000000000000000E+000
  -1.31670000000000         0.000000000000000E+000
  -1.07730000000000         0.000000000000000E+000
 -0.837900000000000         0.000000000000000E+000
 -0.598500000000000         0.000000000000000E+000
 -0.359100000000000         0.000000000000000E+000
 -0.119700000000000         0.000000000000000E+000
  0.119700000000000         0.000000000000000E+000
  0.359100000000000         0.000000000000000E+000
  0.598500000000000         0.000000000000000E+000
  0.837900000000000         0.000000000000000E+000
   1.07730000000000         0.000000000000000E+000
   1.31670000000000         0.000000000000000E+000
   1.55610000000000         0.000000000000000E+000
   1.79550000000000         0.000000000000000E+000
   2.03490000000000         0.000000000000000E+000
   2.27430000000000         0.000000000000000E+000
   2.51370000000000         0.000000000000000E+000
   2.75310000000000         0.000000000000000E+000
   2.99250000000000         0.000000000000000E+000
   3.23190000000000         0.000000000000000E+000
   3.47130000000000         0.000000000000000E+000
   3.71070000000000         0.000000000000000E+000
   3.95010000000000         0.000000000000000E+000
   4.18950000000000         0.000000000000000E+000
   4.42890000000000         0.000000000000000E+000
   4.66830000000000         0.000000000000000E+000
   4.90770000000000         0.000000000000000E+000
   5.14710000000000         0.000000000000000E+000
   5.38650000000000         0.000000000000000E+000
   5.62590000000000         0.000000000000000E+000
   5.86530000000000         0.000000000000000E+000
   6.10470000000000         0.000000000000000E+000
   6.34410000000000         0.000000000000000E+000
   6.58350000000000         0.000000000000000E+000
   6.82290000000000         0.000000000000000E+000
   7.06230000000000         0.000000000000000E+000
   7.30170000000000         0.000000000000000E+000
   7.54110000000000         0.000000000000000E+000
   7.78050000000000         0.000000000000000E+000
   8.01990000000000         0.000000000000000E+000
   8.25930000000000         0.000000000000000E+000
   8.49870000000000         0.000000000000000E+000
   8.73810000000000         0.000000000000000E+000
   8.97750000000000         0.000000000000000E+000
   9.21690000000000         0.000000000000000E+000
   9.45630000000000         5.631727296534703E-182
   9.69570000000000        -2.490893340412491E-176
   9.93510000000000        -3.846294959605018E-175
   10.1745000000000         3.818479426989605E-172
   10.4139000000000         2.335694234971197E-170
   10.6533000000000         3.108472554902230E-169
   10.8927000000000        -1.940043287305361E-167
   11.1321000000000        -1.210030843110101E-165
   11.3715000000000        -3.754375512390676E-164
   11.6109000000000        -8.187025758027225E-163
   11.8503000000000        -1.391960125272129E-161
   12.0897000000000        -1.940324988581042E-160
   12.3291000000000        -2.282859037608537E-159
   12.5685000000000        -2.307000892480142E-158
   12.8079000000000        -2.021394107650241E-157
   13.0473000000000        -1.538035304412802E-156
   13.2867000000000        -1.006966179670410E-155
   13.5261000000000        -5.502583739286014E-155
   13.7655000000000        -2.284165689629069E-154
   14.0049000000000        -4.343610982727626E-154
   14.2443000000000         3.735494419355642E-153
   14.4837000000000         5.563587923371398E-152
   14.7231000000000         4.565043065690507E-151
   14.9625000000000         2.861935721516355E-150
   15.2019000000000         1.431790987172922E-149
   15.4413000000000         5.294066250127269E-149
   15.6807000000000         7.590492112702682E-149
   15.9201000000000        -9.489847670006659E-148
   16.1595000000000        -1.243264032950163E-146
   16.3989000000000        -1.004536102523571E-145
   16.6383000000000        -6.673403952597004E-145
   16.8777000000000        -3.933864312201255E-144
   17.1171000000000        -2.126475616566224E-143
   17.3565000000000        -1.073047929119580E-142
   17.5959000000000        -5.111341494442631E-142
   17.8353000000000        -2.315977496098523E-141
   18.0747000000000        -1.003846550921210E-140
   18.3141000000000        -4.180529854324346E-140
   18.5535000000000        -1.678610950800718E-139
   18.7929000000000        -6.517445731481805E-139
   19.0323000000000        -2.452788487381939E-138
   19.2717000000000        -8.965528334748167E-138
   19.5111000000000        -3.188289661227350E-137
   19.7505000000000        -1.104611034099280E-136
   19.9899000000000        -3.732635990644563E-136
   20.2293000000000        -1.231263653849295E-135
   20.4687000000000        -3.967227155104436E-135
   20.7081000000000        -1.249105854432340E-134
   20.9475000000000        -3.843922164965028E-134
   21.1869000000000        -1.156161627682471E-133
   21.4263000000000        -3.398296489221339E-133
   21.6657000000000        -9.758027389877128E-133
   21.9051000000000        -2.735968620763074E-132
   22.1445000000000        -7.485616004781851E-132
   22.3839000000000        -1.996877413943919E-131
   22.6233000000000        -5.188337665103405E-131
   22.8627000000000        -1.311239736354157E-130
   23.1021000000000        -3.217890519087444E-130
   23.3415000000000        -7.650951465370266E-130
   23.5809000000000        -1.757008166827435E-129
   23.8203000000000        -3.879986479974263E-129
   24.0597000000000        -8.184460365744675E-129
   24.2991000000000        -1.631350766453068E-128
   24.5385000000000        -3.013187558826073E-128
   24.7779000000000        -4.949572371155267E-128
   25.0173000000000        -6.445874441297115E-128
   25.2567000000000        -3.267451386545236E-128
   25.4961000000000         1.796645297003638E-127
   25.7355000000000         9.417225397564690E-127
   25.9749000000000         3.190701619590964E-126
   26.2143000000000         9.170193184130429E-126
   26.4537000000000         2.401746593374998E-125
   26.6931000000000         5.909556949744497E-125
   26.9325000000000         1.388777314714046E-124
   27.1719000000000         3.150531399530906E-124
   27.4113000000000         6.953804936799337E-124
   27.6507000000000         1.502879801786582E-123
   27.8901000000000         3.197790808336033E-123
   28.1295000000000         6.729412282988679E-123
   28.3689000000000         1.405455111514130E-122
   28.6083000000000         2.919374220635686E-122
   28.8477000000000         6.034278436743120E-122
   29.0871000000000         1.239780222691871E-121
   29.3265000000000         2.525438744513464E-121
   29.5659000000000         5.081598333296173E-121
   29.8053000000000         1.005523711480869E-120
   30.0447000000000         1.946830168791634E-120
   30.2841000000000         3.667667227230810E-120
   30.5235000000000         6.680550668741103E-120
   30.7629000000000         1.167316221868831E-119
   31.0023000000000         1.935806541926945E-119
   31.2417000000000         2.996423645634831E-119
   31.4811000000000         4.200191654494906E-119
   31.7205000000000         4.975433351729246E-119
   31.9599000000000         3.889140828274893E-119
   32.1993000000000        -1.997223632103055E-119
   32.4387000000000        -1.782543345856263E-118
   32.6781000000000        -5.109850093193474E-118
   32.9175000000000        -1.097683355742467E-117
   33.1569000000000        -1.950129241996833E-117
   33.3963000000000        -2.828092183701958E-117
   33.6357000000000        -2.851665814171347E-117
   33.8751000000000         2.013544301618269E-118
   34.1145000000000         1.098305073757618E-116
   34.3539000000000         3.790701012960353E-116
   34.5933000000000         9.400437717601537E-116
   34.8327000000000         1.953260140110833E-115
   35.0721000000000         3.525792021531324E-115
   35.3115000000000         5.479811926078795E-115
   35.5509000000000         6.845221258869930E-115
   35.7903000000000         4.908838296778468E-115
   36.0297000000000        -6.323817733311110E-115
   36.2691000000000        -3.819271703632513E-114
   36.5085000000000        -1.093070414105300E-113
   36.7479000000000        -2.453173466744064E-113
   36.9873000000000        -4.720113966651032E-113
   37.2267000000000        -7.931852850511029E-113
   37.4661000000000        -1.139428345901524E-112
   37.7055000000000        -1.269117111581774E-112
   37.9449000000000        -6.035373579712460E-113
   38.1843000000000         2.005140882176722E-112
   38.4237000000000         8.522082037306850E-112
   38.6631000000000         2.182630004088756E-111
   38.9025000000000         4.527004096193670E-111
   39.1419000000000         8.097047267828002E-111
   39.3813000000000         1.256505722119358E-110
   39.6207000000000         1.624287199810654E-110
   39.8601000000000         1.469632995363525E-110
   40.0995000000000        -1.240507257433712E-111
   40.3389000000000        -4.770104285041345E-110
   40.5783000000000        -1.490692572052801E-109
   40.8177000000000        -3.355543584291783E-109
   41.0571000000000        -6.318952696591222E-109
   41.2965000000000        -1.028970498436729E-108
   41.5359000000000        -1.427394084183852E-108
   41.7753000000000        -1.542451567560433E-108
   42.0147000000000        -7.680881493191251E-109
   42.2541000000000         1.977448155727199E-108
   42.4935000000000         8.348605880366545E-108
   42.7329000000000         2.044276736245313E-107
   42.9723000000000         4.013419649596303E-107
   43.2117000000000         6.739154116726073E-107
   43.4511000000000         9.696118580498855E-107
   43.6905000000000         1.128427618509375E-106
   43.9299000000000         8.048445304803223E-107
   44.1693000000000        -6.198453811108555E-107
   44.4087000000000        -4.093301986738790E-106
   44.6481000000000        -1.082629451444885E-105
   44.8875000000000        -2.194645464655783E-105
   45.1269000000000        -3.763307021641994E-105
   45.3663000000000        -5.543744912505497E-105
   45.6057000000000        -6.753140499686350E-105
   45.8451000000000        -5.688545816595474E-105
   46.0845000000000         6.955787523615107E-106
   46.3239000000000         1.705374901868720E-104
   46.5633000000000         4.935249873967916E-104
   46.8027000000000         1.033136383482007E-103
   47.0421000000000         1.805883233955183E-103
   47.2815000000000         2.714660710427617E-103
   47.5209000000000         3.431622321408136E-103
   47.7603000000000         3.238845786667325E-103
   47.9997000000000         8.563408909960732E-104
   48.2391000000000        -5.662072772745422E-103
   48.4785000000000        -1.880528255065634E-102
   48.7179000000000        -4.099103305040601E-102
   48.9573000000000        -7.309632222464163E-102
   49.1967000000000        -1.117227714041890E-101
   49.4361000000000        -1.449102564621185E-101
   49.6755000000000        -1.464670401899171E-101
   49.9149000000000        -7.008513078274611E-102
   50.1543000000000         1.538362746991611E-101
   50.3937000000000         6.131462132221643E-101
   50.6331000000000         1.391996301920372E-100
   50.8725000000000         2.520494273327762E-100
   51.1119000000000         3.883970948287842E-100
   51.3513000000000         5.085134091554315E-100
   51.5907000000000         5.268308414800605E-100
   51.8301000000000         2.947385264909724E-100
   52.0695000000000        -4.067092955123248E-100
   52.3089000000000        -1.847098040831557E-099
   52.5483000000000        -4.274303610094886E-099
   52.7877000000000        -7.757218930595921E-099
   53.0271000000000        -1.191266079614895E-098
   53.2665000000000        -1.550454488427369E-098
   53.5059000000000        -1.595304556935080E-098
   53.7453000000000        -8.885928256952996E-099
   53.9847000000000         1.198673376870464E-098
   54.2241000000000         5.419490551373260E-098
   54.4635000000000         1.243370371611627E-097
   54.7029000000000         2.235870940209700E-097
   54.9423000000000         3.401513841713439E-097
   55.1817000000000         4.385244877995619E-097
   55.4211000000000         4.467631198724035E-097
   55.6605000000000         2.454708301364517E-097
   55.8999000000000        -3.340686007930808E-097
   56.1393000000000        -1.490390516659635E-096
   56.3787000000000        -3.393951459662831E-096
   56.6181000000000        -6.071180084789070E-096
   56.8575000000000        -9.214220298984991E-096
   57.0969000000000        -1.191510321370017E-095
   57.3363000000000        -1.235646623565614E-095
   57.5757000000000        -7.549038421810559E-096
   57.8151000000000         6.708594840326075E-096
   58.0545000000000         3.536685782091754E-095
   58.2939000000000         8.277562397819848E-095
   58.5333000000000         1.500163106198082E-094
   58.7727000000000         2.305700369105282E-094
   59.0121000000000         3.043129108992880E-094
   59.2515000000000         3.305512990151629E-094
   59.4909000000000         2.420346310732981E-094
   59.7303000000000        -5.635782325408407E-095
   59.9697000000000        -6.784300340183199E-094
   60.2091000000000        -1.729155539070022E-093
   60.4485000000000        -3.250128909437310E-093
   60.6879000000000        -5.131100559200590E-093
   60.9273000000000        -6.987410695482086E-093
   61.1667000000000        -8.017154051698982E-093
   61.4061000000000        -6.875255254690752E-093
   61.6455000000000        -1.634605822340494E-093
   61.8849000000000         1.005635636039238E-092
   62.1243000000000         3.047421868698623E-092
   62.3637000000000         6.081913782598143E-092
   62.6031000000000         9.958585436767282E-092
   62.8425000000000         1.403031993883681E-091
   63.0819000000000         1.688874434307263E-091
   63.3213000000000         1.612636693348604E-091
   63.5607000000000         8.247794514126716E-092
   63.8001000000000        -1.108118214811602E-091
   64.0395000000000        -4.619828141543406E-091
   64.2789000000000        -9.975288437462508E-091
   64.5183000000000        -1.699497036631419E-090
   64.7577000000000        -2.467272495256273E-090
   64.9971000000000        -3.072867266588476E-090
   65.2365000000000        -3.120590061530380E-090
   65.4759000000000        -2.031178989384969E-090
   65.7153000000000         9.189410847916755E-091
   65.9547000000000         6.463414418588263E-090
   66.1941000000000         1.507398450971790E-089
   66.4335000000000         2.651889039474482E-089
   66.6729000000000         3.925362993170934E-089
   66.9123000000000         4.971277159288330E-089
   67.1517000000000         5.167755528822621E-089
   67.3911000000000         3.603742269832177E-089
   67.6305000000000        -8.573985419540656E-090
   67.8699000000000        -9.364997981968349E-089
   68.1093000000000        -2.265341347088472E-088
   68.3487000000000        -4.035183519673520E-088
   68.5881000000000        -6.003715780294768E-088
   68.8275000000000        -7.613885675157615E-088
   69.0669000000000        -7.896775839358542E-088
   69.3063000000000        -5.435958346011300E-088
   69.5457000000000         1.532882682724307E-088
   69.7851000000000         1.479230850306236E-087
   70.0245000000000         3.548293971205731E-087
   70.2639000000000         6.303841306836292E-087
   70.5033000000000         9.372040018169265E-087
   70.7427000000000         1.189124626069996E-086
   70.9821000000000         1.235747824922261E-086
   71.2215000000000         8.559062501380795E-087
   71.4609000000000        -2.288891503785986E-087
   71.7003000000000        -2.306649909321206E-086
   71.9397000000000        -5.577168210691485E-086
   72.1791000000000        -9.992010102995828E-086
   72.4185000000000        -1.503073780571215E-085
   72.6579000000000        -1.943344050716003E-085
   72.8973000000000        -2.094440292277241E-085
   73.1367000000000        -1.616961935312392E-085
   73.3761000000000        -7.071776309217086E-087
   73.6155000000000         3.023767836536984E-085
   73.8549000000000         8.051347997939081E-085
   74.0943000000000         1.507507268046869E-084
   74.3337000000000         2.350800347865372E-084
   74.5731000000000         3.170420161867797E-084
   74.8125000000000         3.653560518952505E-084
   75.0519000000000         3.308767786014116E-084
   75.2913000000000         1.468774074872437E-084
   75.5307000000000        -2.643825197197496E-084
   75.7701000000000        -9.752889140893022E-084
   76.0095000000000        -2.023309316268392E-083
   76.2489000000000        -3.366201870199481E-083
   76.4883000000000        -4.823218886598603E-083
   76.7277000000000        -6.009260770740561E-083
   76.9671000000000        -6.277442387134633E-083
   77.2065000000000        -4.696451854740752E-083
   77.4459000000000        -1.009545352759058E-084
   77.6853000000000         8.736897273091671E-083
   77.9247000000000         2.276398843609061E-082
   78.1641000000000         4.209105907638646E-082
   78.4035000000000         6.521945997617761E-082
   78.6429000000000         8.810745675918266E-082
   78.8823000000000         1.032339034669138E-081
   79.1217000000000         9.895254268675836E-082
   79.3611000000000         5.958795404989004E-082
   79.6005000000000        -3.312631210752554E-082
   79.8399000000000        -1.965789085469133E-081
   80.0793000000000        -4.411443640696749E-081
   80.3187000000000        -7.610329508914828E-081
   80.5581000000000        -1.122416548186693E-080
   80.7975000000000        -1.450190068842057E-080
   81.0369000000000        -1.616258935863290E-080
   81.2763000000000        -1.434145336805521E-080
   81.5157000000000        -6.667060214312690E-081
   81.7551000000000         9.446685515858613E-081
   81.9945000000000         3.620657482189198E-080
   82.2339000000000         7.447662585877942E-080
   82.4733000000000         1.224327712920138E-079
   82.7127000000000         1.739257906903969E-079
   82.9521000000000         2.167992175165055E-079
   83.1915000000000         2.316163136209720E-079
   83.4309000000000         1.914873627283029E-079
   83.6703000000000         6.390985978730856E-080
   83.9097000000000        -1.843362716612878E-079
   84.1491000000000        -5.782658663325984E-079
   84.3885000000000        -1.121165909455190E-078
   84.6279000000000        -1.776768817758087E-078
   84.8673000000000        -2.448859329324803E-078
   85.1067000000000        -2.962092961729167E-078
   85.3461000000000        -3.050316001635579E-078
   85.5855000000000        -2.361308483296205E-078
   85.8249000000000        -4.889773960665953E-079
   86.0643000000000         2.955364817403141E-078
   86.3037000000000         8.223158768265856E-078
   86.5431000000000         1.525706383678434E-077
   86.7825000000000         2.347644479767833E-077
   87.0219000000000         3.154667273236607E-077
   87.2613000000000         3.718292040907451E-077
   87.5007000000000         3.706651323617850E-077
   87.7401000000000         2.697786929620406E-077
   87.9795000000000         2.266633841675269E-078
   88.2189000000000        -4.122431218967916E-077
   88.4583000000000        -1.057021088553906E-076
   88.6977000000000        -1.894410030549248E-076
   88.9371000000000        -2.844234599728645E-076
   89.1765000000000        -3.739598725729590E-076
   89.4159000000000        -4.308948278182987E-076
   89.6553000000000        -4.172776234583718E-076
   89.8947000000000        -2.866015562233809E-076
   90.1341000000000         1.018795751032922E-077
   90.3735000000000         5.138662373106825E-076
   90.6129000000000         1.240755799113056E-075
   90.8523000000000         2.161691765245176E-075
   91.0917000000000         3.178183341761134E-075
   91.3311000000000         4.099931236465498E-075
   91.5705000000000         4.630312298897299E-075
   91.8099000000000         4.368851205756600E-075
   92.0493000000000         2.841426523570292E-075
   92.2887000000000        -4.308790353908651E-076
   92.5281000000000        -5.815843132261835E-075
   92.7675000000000        -1.340484013227868E-074
   93.0069000000000        -2.280680840223595E-074
   93.2463000000000        -3.292570337381474E-074
   93.4857000000000        -4.176553823281679E-074
   93.7251000000000        -4.632886649825778E-074
   93.9645000000000        -4.269407106022056E-074
   94.2039000000000        -2.636786672334382E-074
   94.4433000000000         6.996081164927377E-075
   94.6827000000000         6.045268223866869E-074
   94.9221000000000         1.342007310026384E-073
   95.1615000000000         2.237088128942065E-073
   95.4009000000000         3.177869662395991E-073
   95.6403000000000         3.970323065173089E-073
   95.8797000000000         4.332546920859845E-073
   96.1191000000000         3.906314881170030E-073
   96.3585000000000         2.293928708881017E-073
   96.5979000000000        -8.726713130087630E-074
   96.8373000000000        -5.826951378246376E-073
   97.0767000000000        -1.252966666152756E-072
   97.3161000000000        -2.050971440310373E-072
   97.5555000000000        -2.870841424171319E-072
   97.7949000000000        -3.536569635703615E-072
   98.0343000000000        -3.800012881986765E-072
   98.2737000000000        -3.354410016039502E-072
   98.5131000000000        -1.869617658954488E-072
   98.7525000000000         9.460642480138937E-073
   98.9919000000000         5.255853458853924E-072
   99.2313000000000         1.098015578378710E-071
   99.4707000000000         1.766977902855770E-071
   99.7101000000000         2.438836111721408E-071
   99.9495000000000         2.963630380119852E-071
   100.188900000000         3.135792580948894E-071
   100.428300000000         2.707891907865936E-071
   100.667700000000         1.421893743254007E-071
   100.907100000000        -9.389612337899057E-072
   101.146500000000        -4.477425212149083E-071
   101.385900000000        -9.093005054182052E-071
   101.625300000000        -1.438678318694057E-070
   101.864700000000        -1.957825000652949E-070
   102.104100000000        -2.345965116737936E-070
   102.343500000000        -2.441946019807432E-070
   102.582900000000        -2.056906220056038E-070
   102.822300000000        -1.000297810383869E-070
   103.061700000000         8.789686291200092E-071
   103.301100000000         3.636856702516558E-070
   103.540500000000         7.168175010897211E-070
   103.779900000000         1.113897027861196E-069
   104.019300000000         1.493137657820259E-069
   104.258700000000         1.762001233637960E-069
   104.498100000000         1.800265715481309E-069
   104.737500000000         1.470857756695452E-069
   104.976900000000         6.403713432371922E-070
   105.216300000000        -7.898728134243039E-070
   105.455700000000        -2.843211040495675E-069
   105.695100000000        -5.421075887704575E-069
   105.934500000000        -8.257374896647491E-069
   106.173900000000        -1.088424209742252E-068
   106.413300000000        -1.262279621809265E-068
   106.652700000000        -1.261450599375998E-068
   106.892100000000        -9.908400977875568E-069
   107.131500000000        -3.615501704616017E-069
   107.370900000000         6.866565702697859E-069
   107.610300000000         2.156937028811406E-068
   107.849700000000         3.963903408631552E-068
   108.089100000000         5.904245608860020E-068
   108.328500000000         7.636865170520014E-068
   108.567900000000         8.681863909199234E-068
   108.807300000000         8.448660916159993E-068
   109.046700000000         6.302732108943944E-068
   109.286100000000         1.677241188829368E-068
   109.525500000000        -5.770438586810176E-068
   109.764900000000        -1.596688671178940E-067
   110.004300000000        -2.821762698816450E-067
   110.243700000000        -4.102555038811893E-067
   110.483100000000        -5.198362510396576E-067
   110.722500000000        -5.780366638393791E-067
   110.961900000000        -5.454646476970903E-067
   111.201300000000        -3.811011794621703E-067
   111.440700000000        -5.008550158411542E-068
   111.680100000000         4.657231561765124E-067
   111.919500000000         1.155182235068222E-066
   112.158900000000         1.964898514693530E-066
   112.398300000000         2.788366687299786E-066
   112.637700000000         3.460580320041294E-066
   112.877100000000         3.762074750973136E-066
   113.116500000000         3.436432196315537E-066
   113.355900000000         2.224546085046996E-066
   113.595300000000        -8.285302813268986E-068
   113.834700000000        -3.575931081351079E-066
   114.074100000000        -8.145514267063290E-066
   114.313500000000        -1.340287112872417E-065
   114.552900000000        -1.861609882581694E-065
   114.792300000000        -2.268471490452019E-065
   115.031700000000        -2.417716384606491E-065
   115.271100000000        -2.145555037026120E-065
   115.510500000000        -1.290633100056497E-065
   115.749900000000         2.716523175265283E-066
   115.989300000000         2.584906072160866E-065
   116.228700000000         5.561560713988481E-065
   116.468100000000         8.933992052029874E-065
   116.707500000000         1.221749708619016E-064
   116.946900000000         1.469859261307282E-064
   117.186300000000         1.546369487975036E-064
   117.425700000000         1.348260307592241E-064
   117.665100000000         7.757357903299934E-065
   117.904500000000        -2.460825405300755E-065
   118.143900000000        -1.739613806502361E-064
   118.383300000000        -3.644027215498600E-064
   118.622700000000        -5.785730674298209E-064
   118.862100000000        -7.856637842048634E-064
   119.101500000000        -9.408358608469304E-064
   119.340900000000        -9.871295153388619E-064
   119.580300000000        -8.607098923665052E-064
   119.819700000000        -5.000499501520994E-064
   120.059100000000         1.408287777140257E-064
   120.298500000000         1.075672407003166E-063
   120.537900000000         2.267451969612458E-063
   120.777300000000         3.610671486715551E-063
   121.016700000000         4.918374856320365E-063
   121.256100000000         5.918636019160401E-063
   121.495500000000         6.265775332764818E-063
   121.734900000000         5.571211783146151E-063
   121.974300000000         3.457427013692314E-063
   122.213700000000        -3.642587353935504E-064
   122.453100000000        -5.995614943096926E-063
   122.692500000000        -1.324217555374497E-062
   122.931900000000        -2.150809827897727E-062
   123.171300000000        -2.971710497701091E-062
   123.410700000000        -3.628672966604566E-062
   123.650100000000        -3.918577784322985E-062
   123.889500000000        -3.610320135666826E-062
   124.128900000000        -2.474882717757346E-062
   124.368300000000        -3.291220833635146E-063
   124.607700000000         2.908513308560998E-062
   124.847100000000         7.155151209639326E-062
   125.086500000000         1.210189721258068E-061
   125.325900000000         1.716541128655912E-061
   125.565300000000         2.146762636352565E-061
   125.804700000000         2.386022233100861E-061
   126.044100000000         2.300981551450498E-061
   126.283500000000         1.755596254865311E-061
   126.522900000000         6.346282198425187E-062
   126.762300000000        -1.125906285673309E-061
   127.001700000000        -3.503731519345824E-061
   127.241100000000        -6.355015609541666E-061
   127.480500000000        -9.385001695607730E-061
   127.719900000000        -1.213248684497171E-060
   127.959300000000        -1.397710039426473E-060
   128.198700000000        -1.417821988906463E-060
   128.438100000000        -1.195262619276834E-060
   128.677500000000        -6.594244044680490E-061
   128.916900000000         2.366667367172944E-061
   129.156300000000         1.497562057300911E-060
   129.395700000000         3.065777679139615E-060
   129.635100000000         4.804439456448383E-060
   129.874500000000         6.486202393366001E-060
   130.113900000000         7.793099514355926E-060
   130.353300000000         8.332074394182932E-060
   130.592700000000         7.670267520115069E-060
   130.832100000000         5.392447170209955E-060
   131.071500000000         1.180171919384286E-060
   131.310900000000        -5.091644093482416E-060
   131.550300000000        -1.324991242459018E-059
   131.789700000000        -2.272472284248384E-059
   132.029100000000        -3.247630922661109E-059
   132.268500000000        -4.097086741407480E-059
   132.507900000000        -4.622988843708404E-059
   132.747300000000        -4.597550471969145E-059
   132.986700000000        -3.788748134486915E-059
   133.226100000000        -1.997515320629464E-059
   133.465500000000         8.950344380598728E-060
   133.704900000000         4.874105331343795E-059
   133.944300000000         9.737778558673525E-059
   134.183700000000         1.505256079032551E-058
   134.423100000000         2.012900014750194E-058
   134.662500000000         2.402962931522809E-058
   134.901900000000         2.562112229486030E-058
   135.141300000000         2.368006363310933E-058
   135.380700000000         1.705669372549155E-058
   135.620100000000         4.893226630096430E-059
   135.859500000000        -1.311697010168759E-058
   136.098900000000        -3.645520643216592E-058
   136.338300000000        -6.352694602771954E-058
   136.577700000000        -9.148507729141750E-058
   136.817100000000        -1.161850362767680E-057
   137.056500000000        -1.323314443432366E-057
   137.295900000000        -1.338685114619776E-057
   137.535300000000        -1.146477187385147E-057
   137.774700000000        -6.937486145831616E-058
   138.014100000000         5.205445282610611E-059
   138.253500000000         1.089840024667010E-057
   138.492900000000         2.371761181797979E-057
   138.732300000000         3.792397605139009E-057