  -1.79550000000000         0.000000000000000E+000
  -1.55610000000000         0.000000000000000E+000
  -1.31670000000000         0.000000000000000E+000
  -1.07730000000000         0.000000000000000E+000
 -0.837900000000000         0.000000000000000E+000
 -0.598500000000000         0.000000000000000E+000
 -0.359100000000000         0.000000000000000E+000
 -0.119700000000000         0.000000000000000E+000
  0.119700000000000         0.000000000000000E+000
  0.359100000000000         0.000000000000000E+000
  0.598500000000000         0.000000000000000E+000
  0.837900000000000         0.000000000000000E+000
   1.07730000000000         0.000000000000000E+000
   1.31670000000000         0.000000000000000E+000
   1.55610000000000         0.000000000000000E+000
   1.79550000000000         0.000000000000000E+000
   2.03490000000000         0.000000000000000E+000
   2.27430000000000         0.000000000000000E+000
   2.51370000000000         0.000000000000000E+000
   2.75310000000000         0.000000000000000E+000
   2.99250000000000         0.000000000000000E+000
   3.23190000000000         0.000000000000000E+000
   3.47130000000000         0.000000000000000E+000
   3.71070000000000         0.000000000000000E+000
   3.95010000000000         0.000000000000000E+000
   4.18950000000000         0.000000000000000E+000
   4.42890000000000         0.000000000000000E+000
   4.66830000000000         0.000000000000000E+000
   4.90770000000000         0.000000000000000E+000
   5.14710000000000         0.000000000000000E+000
   5.38650000000000         0.000000000000000E+000
   5.62590000000000         0.000000000000000E+000
   5.86530000000000         0.000000000000000E+000
   6.10470000000000         0.000000000000000E+000
   6.34410000000000         0.000000000000000E+000
   6.58350000000000         0.000000000000000E+000
   6.82290000000000         0.000000000000000E+000
   7.06230000000000         0.000000000000000E+000
   7.30170000000000         0.000000000000000E+000
   7.54110000000000         0.000000000000000E+000
   7.78050000000000         0.000000000000000E+000
   8.01990000000000         0.000000000000000E+000
   8.25930000000000         0.000000000000000E+000
   8.49870000000000         0.000000000000000E+000
   8.73810000000000         0.000000000000000E+000
   8.97750000000000         0.000000000000000E+000
   9.21690000000000         0.000000000000000E+000
   9.45630000000000         0.000000000000000E+000
   9.69570000000000        -2.592100761328226E-182
   9.93510000000000         1.691623092149689E-174
   10.1745000000000        -1.378070595543173E-174
   10.4139000000000        -2.237897966017290E-170
   10.6533000000000        -8.347786228051133E-169
   10.8927000000000         1.222952101661146E-167
   11.1321000000000         1.862409389402507E-165
   11.3715000000000         7.650127889470194E-164
   11.6109000000000         2.025985945776479E-162
   11.8503000000000         4.060450172049695E-161
   12.0897000000000         6.602202442638974E-160
   12.3291000000000         9.060684797936947E-159
   12.5685000000000         1.076818885132397E-157
   12.8079000000000         1.128287898699203E-156
   13.0473000000000         1.055950969744088E-155
   13.2867000000000         8.911677969213287E-155
   13.5261000000000         6.828573515416542E-154
   13.7655000000000         4.771565029965883E-153
   14.0049000000000         3.046104880511907E-152
   14.2443000000000         1.774011365193467E-151
   14.4837000000000         9.363907379733062E-151
   14.7231000000000         4.407264012775104E-150
   14.9625000000000         1.777187763334151E-149
   15.2019000000000         5.434386676294342E-149
   15.4413000000000         5.207312827483243E-149
   15.6807000000000        -9.363430726059679E-148
   15.9201000000000        -1.041269519075627E-146
   16.1595000000000        -7.619081424709133E-146
   16.3989000000000        -4.677478528421214E-145
   16.6383000000000        -2.579338505948693E-144
   16.8777000000000        -1.316349110511687E-143
   17.1171000000000        -6.319762239593551E-143
   17.3565000000000        -2.883786695596213E-142
   17.5959000000000        -1.259639795726310E-141
   17.8353000000000        -5.294545965942887E-141
   18.0747000000000        -2.150117666835214E-140
   18.3141000000000        -8.463007560853514E-140
   18.5535000000000        -3.236730312507912E-139
   18.7929000000000        -1.205212644322854E-138
   19.0323000000000        -4.375775488160708E-138
   19.2717000000000        -1.550856709499770E-137
   19.5111000000000        -5.369872032351775E-137
   19.7505000000000        -1.817471609577753E-136
   19.9899000000000        -6.014921502550870E-136
   20.2293000000000        -1.946858905474409E-135
   20.4687000000000        -6.163457098287653E-135
   20.7081000000000        -1.908637352243271E-134
   20.9475000000000        -5.781681284407256E-134
   21.1869000000000        -1.713379226009309E-133
   21.4263000000000        -4.968051636795935E-133
   21.6657000000000        -1.409794488852122E-132
   21.9051000000000        -3.916659971100214E-132
   22.1445000000000        -1.065805805719560E-131
   22.3839000000000        -2.842633178081659E-131
   22.6233000000000        -7.436958597761202E-131
   22.8627000000000        -1.910421724145022E-130
   23.1021000000000        -4.824192961596828E-130
   23.3415000000000        -1.199083163838748E-129
   23.5809000000000        -2.937762488598254E-129
   23.8203000000000        -7.104833216497162E-129
   24.0597000000000        -1.698463409175158E-128
   24.2991000000000        -4.018198125977145E-128
   24.5385000000000        -9.415428646455246E-128
   24.7779000000000        -2.185962389520773E-127
   25.0173000000000        -5.027609396274727E-127
   25.2567000000000        -1.144635919892502E-126
   25.4961000000000        -2.576262438578082E-126
   25.7355000000000        -5.722010036925052E-126
   25.9749000000000        -1.251379460540673E-125
   26.2143000000000        -2.687935487666812E-125
   26.4537000000000        -5.654911193032902E-125
   26.6931000000000        -1.161640358384029E-124
   26.9325000000000        -2.321946820412314E-124
   27.1719000000000        -4.497896278776238E-124
   27.4113000000000        -8.401756633654223E-124
   27.6507000000000        -1.503329070522652E-123
   27.8901000000000        -2.552198387798943E-123
   28.1295000000000        -4.048998560163256E-123
   28.3689000000000        -5.838912373818814E-123
   28.6083000000000        -7.194556436050214E-123
   28.8477000000000        -6.162297631293103E-123
   29.0871000000000         1.463876527010804E-123
   29.3265000000000         2.342152022979136E-122
   29.5659000000000         7.186117407599646E-122
   29.8053000000000         1.620749743749094E-121
   30.0447000000000         3.055030253102856E-121
   30.2841000000000         4.913739317264111E-121
   30.5235000000000         6.512030992802758E-121
   30.7629000000000         6.084530147462149E-121
   31.0023000000000         4.618351507702077E-122
   31.2417000000000        -1.394199337764513E-120
   31.4811000000000        -3.595901727263879E-120
   31.7205000000000        -4.421778726782134E-120
   31.9599000000000         3.968112850526274E-120
   32.1993000000000         4.262266396752108E-119
   32.4387000000000         1.589999769870594E-118
   32.6781000000000         4.462250876911574E-118
   32.9175000000000         1.062680977576758E-117
   33.1569000000000         2.230046728011942E-117
   33.3963000000000         4.152720011481482E-117
   33.6357000000000         6.735623390363211E-117
   33.8751000000000         8.871277839628077E-117
   34.1145000000000         6.929097657073938E-117
   34.3539000000000        -8.028368355800473E-117
   34.5933000000000        -5.467317021139210E-116
   34.8327000000000        -1.671205929932564E-115
   35.0721000000000        -3.993867325700346E-115
   35.3115000000000        -8.211199748387682E-115
   35.5509000000000        -1.487556839663294E-114
   35.7903000000000        -2.350599085482030E-114
   36.0297000000000        -3.055240253051570E-114
   36.2691000000000        -2.541806935553716E-114
   36.5085000000000         1.631596075057951E-114
   36.7479000000000         1.427586768778813E-113
   36.9873000000000         4.369037061095743E-113
   37.2267000000000         1.022351563494801E-112
   37.4661000000000         2.046653091547176E-112
   37.7055000000000         3.607909960137135E-112
   37.9449000000000         5.564520306213764E-112
   38.1843000000000         7.137827255089215E-112
   38.4237000000000         6.198359212397753E-112
   38.6631000000000        -1.843818669387443E-112
   38.9025000000000        -2.547048988602423E-111
   39.1419000000000        -7.833038710269714E-111
   39.3813000000000        -1.790452314115231E-110
   39.6207000000000        -3.467671912616654E-110
   39.8601000000000        -5.875017652186136E-110
   40.0995000000000        -8.635086056215334E-110
   40.3389000000000        -1.035976312125142E-109
   40.5783000000000        -7.723156059809503E-110
   40.8177000000000         5.808867709181062E-110
   41.0571000000000         4.131118520470087E-109
   41.2965000000000         1.149423655841840E-108
   41.5359000000000         2.458371400875539E-108
   41.7753000000000         4.479579165345985E-108
   42.0147000000000         7.106035174657698E-108
   42.2541000000000         9.606298063117298E-108
   42.4935000000000         9.996701514129094E-108
   42.7329000000000         4.148916137757019E-108
   42.9723000000000        -1.522733495097596E-107
   43.2117000000000        -5.925773199998965E-107
   43.4511000000000        -1.421808761741982E-106
   43.6905000000000        -2.772918356782810E-106
   43.9299000000000        -4.664943897581198E-106
   44.1693000000000        -6.793870410945447E-106
   44.4087000000000        -8.177148050402414E-106
   44.6481000000000        -6.634325110344271E-106
   44.8875000000000         1.838818244553973E-106
   45.1269000000000         2.358409531159819E-105
   45.3663000000000         6.717811660757463E-105
   45.6057000000000         1.417741278829011E-104
   45.8451000000000         2.523979428097943E-104
   46.0845000000000         3.901873275773356E-104
   46.3239000000000         5.154378013264749E-104
   46.5633000000000         5.322703135407072E-104
   46.8027000000000         2.568629521418147E-104
   47.0421000000000        -6.120274190088016E-104
   47.2815000000000        -2.499498088664747E-103
   47.5209000000000        -5.898922377539941E-103
   47.7603000000000        -1.119222779728489E-102
   47.9997000000000        -1.826163018203794E-102
   48.2391000000000        -2.580099397102505E-102
   48.4785000000000        -3.026830618939581E-102
   48.7179000000000        -2.453547652511149E-102
   48.9573000000000         3.458216332075412E-103
   49.1967000000000         7.130074755394528E-102
   49.4361000000000         2.005363884014555E-101
   49.6755000000000         4.106724059606622E-101
   49.9149000000000         7.056919164798306E-101
   50.1543000000000         1.049693783877700E-100
   50.3937000000000         1.329352155559149E-100
   50.6331000000000         1.304681542052452E-100
   50.8725000000000         5.578531473289354E-101
   51.1119000000000        -1.535689248813035E-100
   51.3513000000000        -5.767900499903561E-100
   51.5907000000000        -1.291742199904863E-099
   51.8301000000000        -2.332805184852163E-099
   52.0695000000000        -3.613658545140734E-099
   52.3089000000000        -4.807231692236994E-099
   52.5483000000000        -5.186525355090083E-099
   52.7877000000000        -3.454875368548158E-099
   53.0271000000000         2.362425644018496E-099
   53.2665000000000         1.482895691379186E-098
   53.5059000000000         3.659387527792174E-098
   53.7453000000000         6.918053921511525E-098
   53.9847000000000         1.107409694500792E-097
   54.2241000000000         1.525374679824146E-097
   54.4635000000000         1.742302981206881E-097
   54.7029000000000         1.387373739264315E-097
   54.9423000000000        -1.137496594464890E-098
   55.1817000000000        -3.522470078912308E-097
   55.4211000000000        -9.658963070605988E-097
   55.6605000000000        -1.908122505459772E-096
   55.8999000000000        -3.148063409665826E-096
   56.1393000000000        -4.472373825738109E-096
   56.3787000000000        -5.354931514950026E-096
   56.6181000000000        -4.810329076015677E-096
   56.8575000000000        -1.279685020452481E-096
   57.0969000000000         7.357709666384094E-096
   57.3363000000000         2.349650059960520E-095
   57.5757000000000         4.903353285215395E-095
   57.8151000000000         8.387284281620468E-095
   58.0545000000000         1.235063676267995E-094
   58.2939000000000         1.556446682791291E-094
   58.5333000000000         1.562685738954557E-094
   58.7727000000000         8.617616218491760E-095
   59.0121000000000        -1.098395862644648E-094
   59.2515000000000        -4.976760452407972E-094
   59.4909000000000        -1.137518661350358E-093
   59.7303000000000        -2.050426172711403E-093
   59.9697000000000        -3.162436550961393E-093
   60.2091000000000        -4.224068072784512E-093
   60.4485000000000        -4.711186339723456E-093
   60.6879000000000        -3.728038162693756E-093
   60.9273000000000         4.380945640690788E-095
   61.1667000000000         8.276319968301444E-093
   61.4061000000000         2.269730583228026E-092
   61.6455000000000         4.442866736823404E-092
   61.8849000000000         7.282331497521126E-092
   62.1243000000000         1.037162775081308E-091
   62.3637000000000         1.271510146284512E-091
   62.6031000000000         1.249228049710159E-091
   62.8425000000000         6.873154161375865E-092
   63.0819000000000        -7.964021381293536E-092
   63.3213000000000        -3.639729868435818E-091
   63.5607000000000        -8.222533710514918E-091
   63.8001000000000        -1.465200257247002E-090
   64.0395000000000        -2.242185262962248E-090
   64.2789000000000        -2.994315510901353E-090
   64.5183000000000        -3.399178245954994E-090
   64.7577000000000        -2.919719602906680E-090
   64.9971000000000        -7.812681903435493E-091
   65.2365000000000         3.984877000483695E-090
   65.4759000000000         1.237808433821644E-089
   65.7153000000000         2.508203636788618E-089
   65.9547000000000         4.187555997099631E-089
   66.1941000000000         6.076992644450952E-089
   66.4335000000000         7.691193336615643E-089
   66.6729000000000         8.141835158532303E-089
   66.9123000000000         6.049985862302483E-089
   67.1517000000000        -4.512767957545942E-090
   67.3911000000000        -1.353413464766065E-088
   67.6305000000000        -3.519875607133471E-088
   67.8699000000000        -6.637933335908565E-088
   68.1093000000000        -1.055395613343198E-087
   68.3487000000000        -1.467528673527164E-087
   68.5881000000000        -1.774401563541881E-087
   68.8275000000000        -1.762261508929852E-087
   69.0669000000000        -1.117799845352142E-087
   69.3063000000000         5.600330837605920E-088
   69.5457000000000         3.706342318719468E-087
   69.7851000000000         8.673087444359716E-087
   70.0245000000000         1.552794964926879E-086
   70.2639000000000         2.375819173175485E-086
   70.5033000000000         3.189027296053559E-086
   70.7427000000000         3.707451242778433E-086
   70.9821000000000         3.474176497241742E-086
   71.2215000000000         1.851415860101353E-086
   71.4609000000000        -1.936464605063905E-086
   71.7003000000000        -8.674254407039918E-086
   71.9397000000000        -1.890526365864422E-085
   72.1791000000000        -3.252949083822616E-085
   72.4185000000000        -4.824426333596665E-085
   72.6579000000000        -6.286658135327836E-085
   72.8973000000000        -7.064995755607538E-085
   73.1367000000000        -6.281116143774810E-085
   73.3761000000000        -2.760658896357987E-085
   73.6155000000000         4.857674508519693E-085
   73.8549000000000         1.785634160621981E-084
   74.0943000000000         3.696245383536871E-084
   74.3337000000000         6.162575523888679E-084
   74.5731000000000         8.906317299728272E-084
   74.8125000000000         1.131655593867339E-083
   75.0519000000000         1.234877034832250E-083
   75.2913000000000         1.047067823436793E-083
   75.5307000000000         3.711910579639532E-084
   75.7701000000000        -1.010892638456006E-083
   76.0095000000000        -3.289824815303390E-083
   76.2489000000000        -6.547119894105420E-083
   76.4883000000000        -1.063741810761657E-082
   76.7277000000000        -1.503988636869166E-082
   76.9671000000000        -1.869772970811488E-082
   77.2065000000000        -1.988408624729409E-082
   77.4459000000000        -1.615630841911373E-082
   77.6853000000000        -4.485296124620486E-083
   77.9247000000000         1.833444092972772E-082
   78.1641000000000         5.488516514873648E-082
   78.4035000000000         1.058543322116329E-081
   78.6429000000000         1.682805810268709E-081
   78.8823000000000         2.334395247966171E-081
   79.1217000000000         2.846946006642648E-081
   79.3611000000000         2.959081648871258E-081
   79.6005000000000         2.313193067603176E-081
   79.8399000000000         4.808998428686342E-082
   80.0793000000000        -2.970976065129251E-081
   80.3187000000000        -8.360827448236055E-081
   80.5581000000000        -1.571101572797567E-080
   80.7975000000000        -2.450815319661640E-080
   81.0369000000000        -3.342713133645391E-080
   81.2763000000000        -4.006849415775381E-080
   81.5157000000000        -4.079314189918005E-080
   81.7551000000000        -3.077539719203197E-080
   81.9945000000000        -4.426806601872956E-081
   82.2339000000000         4.364436402973039E-080
   82.4733000000000         1.169967252306415E-079
   82.7127000000000         2.149818654155867E-079
   82.9521000000000         3.297299305521140E-079
   83.1915000000000         4.428397357794855E-079
   83.4309000000000         5.224557522047749E-079
   83.6703000000000         5.218140638283070E-079
   83.9097000000000         3.807382848992703E-079
   84.1491000000000         3.185541187779103E-080
   84.3885000000000        -5.866773935676474E-079
   84.6279000000000        -1.510590336699318E-078
   84.8673000000000        -2.720847703698284E-078
   85.1067000000000        -4.108708225037611E-078
   85.3461000000000        -5.439239152034988E-078
   85.5855000000000        -6.321827096551942E-078
   85.8249000000000        -6.200468077105605E-078
   86.0643000000000        -4.380479492881228E-078
   86.3037000000000        -1.104724318408196E-079
   86.5431000000000         7.262787544135067E-078
   86.7825000000000         1.805567200199933E-077
   87.0219000000000         3.192834076348391E-077
   87.2613000000000         4.751110290843527E-077
   87.5007000000000         6.203511045097785E-077
   87.7401000000000         7.106529165046395E-077
   87.9795000000000         6.847435295761516E-077
   88.2189000000000         4.682980517380964E-077
   88.4583000000000        -1.622480591117662E-078
   88.6977000000000        -8.322219340493279E-077
   88.9371000000000        -2.003357225162988E-076
   89.1765000000000        -3.480652645560604E-076
   89.4159000000000        -5.105620827572352E-076
   89.6553000000000        -6.576037372093654E-076
   89.8947000000000        -7.424667881021400E-076
   90.1341000000000        -7.024841705426725E-076
   90.3735000000000        -4.639211706996340E-076
   90.6129000000000         4.719920217436895E-077
   90.8523000000000         8.871017318049675E-076
   91.0917000000000         2.068855984940216E-075
   91.3311000000000         3.530997783204841E-075
   91.5705000000000         5.104002058395530E-075
   91.8099000000000         6.481418411820934E-075
   92.0493000000000         7.205695443627059E-075
   92.2887000000000         6.681520211005172E-075
   92.5281000000000         4.230936249687290E-075
   92.7675000000000        -7.966315796746685E-076
   93.0069000000000        -8.851358665504633E-075
   93.2463000000000        -1.994907898989235E-074
   93.4857000000000        -3.339447415199388E-074
   93.7251000000000        -4.750098810976876E-074
   93.9645000000000        -5.937237600649027E-074
   94.2039000000000        -6.483608469931628E-074
   94.4433000000000        -5.863781538451589E-074
   94.6827000000000        -3.501127972499203E-074
   94.9221000000000         1.128260541302737E-074
   95.1615000000000         8.340710290934687E-074
   95.4009000000000         1.804482541741768E-073
   95.6403000000000         2.951587126666528E-073
   95.8797000000000         4.118241344396984E-073
   96.1191000000000         5.048266412956524E-073
   96.3585000000000         5.386587296487997E-073
   96.5979000000000         4.702481399929893E-073
   96.8373000000000         2.544217029814723E-073
   97.0767000000000        -1.469108017975890E-073
   97.3161000000000        -7.518011814872033E-073
   97.5555000000000        -1.542336979097078E-072
   97.7949000000000        -2.447710868598476E-072
   98.0343000000000        -3.329634511534609E-072
   98.2737000000000        -3.974850644241418E-072
   98.5131000000000        -4.100604175448321E-072
   98.7525000000000        -3.379309308751386E-072
   98.9919000000000        -1.487783273645441E-072
   99.2313000000000         1.816206828826059E-072
   99.4707000000000         6.592117448535363E-072
   99.7101000000000         1.259861135979281E-071
   99.9495000000000         1.917742383484878E-071
   100.188900000000         2.516710105464518E-071
   100.428300000000         2.888365275752290E-071
   100.667700000000         2.821073723488052E-071
   100.907100000000         2.084080032167468E-071
   101.146500000000         4.697031619235049E-072
   101.385900000000        -2.145912671690797E-071
   101.625300000000        -5.727073536658068E-071
   101.864700000000        -9.996946607131264E-071
   102.104100000000        -1.436575881055764E-070
   102.343500000000        -1.789104313635593E-070
   102.582900000000        -1.929735358132376E-070
   102.822300000000        -1.708455495706021E-070
   103.061700000000        -9.749632919039861E-071
   103.301100000000         3.865387548422203E-071
   103.540500000000         2.410915046314061E-070
   103.779900000000         4.998277782282960E-070
   104.019300000000         7.861168103382500E-070
   104.258700000000         1.048566649366753E-069
   104.498100000000         1.212346310204420E-069
   104.737500000000         1.183437926185146E-069
   104.976900000000         8.598146327854307E-070
   105.216300000000         1.508789784208386E-070
   105.455700000000        -9.946707214505657E-070
   105.695100000000        -2.554249701138935E-069
   105.934500000000        -4.394315981663685E-069
   106.173900000000        -6.238066254292861E-069
   106.413300000000        -7.648177921611234E-069
   106.652700000000        -8.037257667550750E-069
   106.892100000000        -6.719468154510081E-069
   107.131500000000        -3.014970182780389E-069
   107.370900000000         3.586739693057760E-069
   107.610300000000         1.320863185559567E-068
   107.849700000000         2.533206466989535E-068
   108.089100000000         3.854489394046823E-068
   108.328500000000         5.035108629366576E-068
   108.567900000000         5.712094914705334E-068
   108.807300000000         5.427414686973426E-068
   109.046700000000         3.678725348519251E-068
   109.286100000000         9.622020213160633E-071
   109.525500000000        -5.858515076076979E-068
   109.764900000000        -1.385914522844597E-067
   110.004300000000        -2.339516662374747E-067
   110.243700000000        -3.316694500434623E-067
   110.483100000000        -4.106001335873643E-067
   110.722500000000        -4.415150608701856E-067
   110.961900000000        -3.890133338497341E-067
   111.201300000000        -2.159038444218221E-067
   111.440700000000         1.095140715581598E-067
   111.680100000000         6.032393362585698E-067
   111.919500000000         1.253018137976857E-066
   112.158900000000         2.004883337626974E-066
   112.398300000000         2.751206942173036E-066
   112.637700000000         3.323704639427415E-066
   112.877100000000         3.495666552237512E-066
   113.116500000000         2.998065533335509E-066
   113.355900000000         1.553785010539080E-066
   113.595300000000        -1.067325569019019E-066
   113.834700000000        -4.972800012838923E-066
   114.074100000000        -1.005602470850194E-065
   114.313500000000        -1.589945431088640E-065
   114.552900000000        -2.169006512836650E-065
   114.792300000000        -2.617143335217946E-065
   115.031700000000        -2.766233529572400E-065
   115.271100000000        -2.417401635186579E-065
   115.510500000000        -1.365507929284068E-065
   115.749900000000         5.617907181317614E-066
   115.989300000000         3.450627283981691E-065
   116.228700000000         7.236430778059315E-065
   116.468100000000         1.163561352922728E-064
   116.707500000000         1.608530250123862E-064
   116.946900000000         1.970757869219644E-064
   117.186300000000         2.131836194706537E-064
   117.425700000000         1.950260888473912E-064
   117.665100000000         1.277547398532402E-064
   117.904500000000        -1.578925601206838E-066
   118.143900000000        -2.004431053691735E-064
   118.383300000000        -4.664637506994589E-064
   118.622700000000        -7.827390936063892E-064
   118.862100000000        -1.113586473206712E-063
   119.101500000000        -1.401777356089289E-063
   119.340900000000        -1.568561304362937E-063
   119.580300000000        -1.517893991761152E-063
   119.819700000000        -1.146181055404408E-063
   120.059100000000        -3.584407053364871E-064
   120.298500000000         9.089984121193221E-064
   120.537900000000         2.660346103805682E-063
   120.777300000000         4.809411075597278E-063
   121.016700000000         7.150389976220936E-063
   121.256100000000         9.336801851905331E-063
   121.495500000000         1.087659405888598E-062
   121.734900000000         1.115231878063578E-062
   121.974300000000         9.474896241239599E-063
   122.213700000000         5.177309843984699E-063
   122.453100000000        -2.249828953429310E-063
   122.692500000000        -1.298579473427581E-062
   122.931900000000        -2.668454954144893E-062
   123.171300000000        -4.228207471330285E-062
   123.410700000000        -5.784307741539262E-062
   123.650100000000        -7.049420443686125E-062
   123.889500000000        -7.649735758160718E-062
   124.128900000000        -7.151636248480818E-062
   124.368300000000        -5.111998767302056E-062
   124.607700000000        -1.154141420771878E-062
   124.847100000000         4.932295898901883E-062
   125.086500000000         1.307438633619087E-061
   125.325900000000         2.279498826241151E-061
   125.565300000000         3.310777212262351E-061
   125.804700000000         4.245445045437268E-061
   126.044100000000         4.871497777410817E-061
   126.283500000000         4.932256019691868E-061
   126.522900000000         4.151119391313105E-061
   126.762300000000         2.271253168056349E-061
   127.001700000000        -8.899954493146438E-062
   127.241100000000        -5.374849054060016E-061
   127.480500000000        -1.101330865855518E-060
   127.719900000000        -1.735590828790355E-060
   127.959300000000        -2.362482662632713E-060
   128.198700000000        -2.870012364122189E-060
   128.438100000000        -3.115920802666281E-060
   128.677500000000        -2.938641693349727E-060
   128.916900000000        -2.176489566290524E-060
   129.156300000000        -6.954104429672718E-061
   129.395700000000         1.575702446230314E-060
   129.635100000000         4.604862996538891E-060
   129.874500000000         8.216772738759788E-060
   130.113900000000         1.205936324944733E-059
   130.353300000000         1.558574333373759E-059
   130.592700000000         1.806130345967173E-059
   130.832100000000         1.860565588760295E-059
   131.071500000000         1.627734143145194E-059
   131.310900000000         1.020540103488565E-059
   131.550300000000        -2.342389024046318E-061
   131.789700000000        -1.520802070403314E-059
   132.029100000000        -3.420028760241069E-059
   132.268500000000        -5.580673567717586E-059
   132.507900000000        -7.758774646740670E-059
   132.747300000000        -9.603118844742553E-059
   132.986700000000        -1.066768261077845E-058
   133.226100000000        -1.044494315694541E-058
   133.465500000000        -8.423277018132926E-059
   133.704900000000        -4.169024940928150E-059
   133.944300000000         2.570014577018445E-059
   134.183700000000         1.174774700679635E-058
   134.423100000000         2.290318012144718E-058
   134.662500000000         3.506315118836380E-058
   134.901900000000         4.668810362375558E-058
   135.141300000000         5.568726934069273E-058
   135.380700000000         5.952902800369135E-058
   135.620100000000         5.546721683614314E-058
   135.859500000000         4.089380686989923E-058
   136.098900000000         1.381219020064307E-058
   136.338300000000        -2.659635389732793E-058
   136.577700000000        -7.936631061752670E-058
   136.817100000000        -1.411825400608861E-057
   137.056500000000        -2.059621552131169E-057
   137.295900000000        -2.647084816829498E-057
   137.535300000000        -3.057677896399244E-057
   137.774700000000        -3.156068926592361E-057
   138.014100000000        -2.801934875433528E-057
   138.253500000000        -1.869978852131354E-057
   138.492900000000        -2.754416543582570E-058
   138.732300000000         1.996754259567426E-057