  -1.79550000000000         0.000000000000000E+000
  -1.55610000000000         0.000000000000000E+000
  -1.31670000000000         0.000000000000000E+000
  -1.07730000000000         0.000000000000000E+000
 -0.837900000000000         0.000000000000000E+000
 -0.598500000000000         0.000000000000000E+000
 -0.359100000000000         0.000000000000000E+000
 -0.119700000000000         0.000000000000000E+000
  0.119700000000000         0.000000000000000E+000
  0.359100000000000         0.000000000000000E+000
  0.598500000000000         0.000000000000000E+000
  0.837900000000000         0.000000000000000E+000
   1.07730000000000         0.000000000000000E+000
   1.31670000000000         0.000000000000000E+000
   1.55610000000000         0.000000000000000E+000
   1.79550000000000         0.000000000000000E+000
   2.03490000000000         0.000000000000000E+000
   2.27430000000000         0.000000000000000E+000
   2.51370000000000         0.000000000000000E+000
   2.75310000000000         0.000000000000000E+000
   2.99250000000000         0.000000000000000E+000
   3.23190000000000         0.000000000000000E+000
   3.47130000000000         0.000000000000000E+000
   3.71070000000000         0.000000000000000E+000
   3.95010000000000         0.000000000000000E+000
   4.18950000000000         0.000000000000000E+000
   4.42890000000000         0.000000000000000E+000
   4.66830000000000         0.000000000000000E+000
   4.90770000000000         0.000000000000000E+000
   5.14710000000000         0.000000000000000E+000
   5.38650000000000         0.000000000000000E+000
   5.62590000000000         0.000000000000000E+000
   5.86530000000000         0.000000000000000E+000
   6.10470000000000         0.000000000000000E+000
   6.34410000000000         0.000000000000000E+000
   6.58350000000000         0.000000000000000E+000
   6.82290000000000         0.000000000000000E+000
   7.06230000000000         0.000000000000000E+000
   7.30170000000000         0.000000000000000E+000
   7.54110000000000         0.000000000000000E+000
   7.78050000000000         0.000000000000000E+000
   8.01990000000000         0.000000000000000E+000
   8.25930000000000         0.000000000000000E+000
   8.49870000000000         0.000000000000000E+000
   8.73810000000000         0.000000000000000E+000
   8.97750000000000         0.000000000000000E+000
   9.21690000000000         0.000000000000000E+000
   9.45630000000000        -5.413744280134143E-182
   9.69570000000000         3.533047393796344E-174
   9.93510000000000        -2.878175792861665E-174
   10.1745000000000        -4.674325664842325E-170
   10.4139000000000        -1.743477954750455E-168
   10.6533000000000         2.558876356781878E-167
   10.8927000000000         3.891487401890793E-165
   11.1321000000000         1.597515651079476E-163
   11.3715000000000         4.227492766054880E-162
   11.6109000000000         8.464494661988773E-161
   11.8503000000000         1.374674724975190E-159
   12.0897000000000         1.883893127864756E-158
   12.3291000000000         2.235206104197488E-157
   12.5685000000000         2.337567280495542E-156
   12.8079000000000         2.182921430436015E-155
   13.0473000000000         1.837687798526184E-154
   13.2867000000000         1.404130830919410E-153
   13.5261000000000         9.779549394890874E-153
   13.7655000000000         6.219338231741315E-152
   14.0049000000000         3.605463063687988E-151
   14.2443000000000         1.892083728421444E-150
   14.4837000000000         8.834300075722131E-150
   14.7231000000000         3.516183562106978E-149
   14.9625000000000         1.042953273813039E-148
   15.2019000000000         7.164003893377389E-149
   15.4413000000000        -2.069103883393717E-147
   15.6807000000000        -2.185624126781768E-146
   15.9201000000000        -1.571730809826344E-145
   16.1595000000000        -9.551695021958335E-145
   16.3989000000000        -5.227960926695072E-144
   16.6383000000000        -2.651575449514359E-143
   16.8777000000000        -1.266046029448346E-142
   17.1171000000000        -5.748019600135848E-142
   17.3565000000000        -2.498834948476138E-141
   17.5959000000000        -1.045565433664007E-140
   17.8353000000000        -4.227555737808234E-140
   18.0747000000000        -1.656965949093406E-139
   18.3141000000000        -6.311024531796973E-139
   18.5535000000000        -2.340398013187800E-138
   18.7929000000000        -8.463037712844437E-138
   19.0323000000000        -2.987333845170185E-137
   19.2717000000000        -1.030136692467774E-136
   19.5111000000000        -3.471983998804879E-136
   19.7505000000000        -1.144096553741790E-135
   19.9899000000000        -3.686532465573586E-135
   20.2293000000000        -1.161646814543142E-134
   20.4687000000000        -3.579681415404825E-134
   20.7081000000000        -1.078808599536026E-133
   20.9475000000000        -3.179856914755602E-133
   21.1869000000000        -9.168511922212218E-133
   21.4263000000000        -2.586584307124459E-132
   21.6657000000000        -7.142553900210152E-132
   21.9051000000000        -1.931550452870400E-131
   22.1445000000000        -5.118979074711023E-131
   22.3839000000000        -1.330650123651137E-130
   22.6233000000000        -3.396320815239883E-130
   22.8627000000000        -8.522341482499388E-130
   23.1021000000000        -2.105348770727329E-129
   23.3415000000000        -5.128118614115646E-129
   23.5809000000000        -1.233448214840938E-128
   23.8203000000000        -2.933765998987745E-128
   24.0597000000000        -6.908343367434064E-128
   24.2991000000000        -1.611730417142876E-127
   24.5385000000000        -3.726279400424097E-127
   24.7779000000000        -8.533973541414366E-127
   25.0173000000000        -1.934084546659201E-126
   25.2567000000000        -4.330621342837530E-126
   25.4961000000000        -9.560096317946006E-126
   25.7355000000000        -2.075507971351012E-125
   25.9749000000000        -4.418827243054108E-125
   26.2143000000000        -9.197016985155030E-125
   26.4537000000000        -1.864759418582598E-124
   26.6931000000000        -3.668453845256942E-124
   26.9325000000000        -6.967953050109042E-124
   27.1719000000000        -1.269801548296137E-123
   27.4113000000000        -2.200374775783268E-123
   27.6507000000000        -3.575653142091729E-123
   27.8901000000000        -5.316770028489154E-123
   28.1295000000000        -6.864482009231148E-123
   28.3689000000000        -6.569669749137340E-123
   28.6083000000000        -6.754078059195599E-124
   28.8477000000000         1.808361103396200E-122
   29.0871000000000         6.178742243334258E-122
   29.3265000000000         1.470286080805883E-121
   29.5659000000000         2.895853261176233E-121
   29.8053000000000         4.879737912161424E-121
   30.0447000000000         6.877588917115748E-121
   30.2841000000000         7.220135212405814E-121
   30.5235000000000         2.445260714699333E-121
   30.7629000000000        -1.263616508361016E-120
   31.0023000000000        -4.182649023623074E-120
   31.2417000000000        -7.606694324020259E-120
   31.4811000000000        -6.323265223512150E-120
   31.7205000000000         1.579785834960352E-119
   31.9599000000000         9.825489284524480E-119
   32.1993000000000         3.237925316134778E-118
   32.4387000000000         8.429457471253891E-118
   32.6781000000000         1.887387219276731E-117
   32.9175000000000         3.725609106768556E-117
   33.1569000000000         6.453715609658988E-117
   33.3963000000000         9.410143405077842E-117
   33.6357000000000         9.854966224199241E-117
   33.8751000000000         4.040815929630894E-118
   34.1145000000000        -3.529583583005127E-116
   34.3539000000000        -1.286597073276234E-115
   34.5933000000000        -3.322728167031242E-115
   34.8327000000000        -7.199531377582342E-115
   35.0721000000000        -1.365913495917944E-114
   35.3115000000000        -2.272702813477985E-114
   35.5509000000000        -3.194400815879830E-114
   35.7903000000000        -3.274192592707346E-114
   36.0297000000000        -3.993480577938297E-115
   36.2691000000000         9.788714135567084E-114
   36.5085000000000         3.512463371625281E-113
   36.7479000000000         8.784205207999055E-113
   36.9873000000000         1.837077875139766E-112
   37.2267000000000         3.362049677187974E-112
   37.4661000000000         5.400080193488581E-112
   37.7055000000000         7.347258175995379E-112
   37.9449000000000         7.372425428053631E-112
   38.1843000000000         1.323807239314932E-112
   38.4237000000000        -1.875865899013503E-111
   38.6631000000000        -6.614212426571006E-111
   38.9025000000000        -1.597463835282158E-110
   39.1419000000000        -3.207492513063886E-110
   39.3813000000000        -5.606449543838101E-110
   39.6207000000000        -8.530838216522361E-110
   39.8601000000000        -1.079242720049849E-109
   40.0995000000000        -9.366636318014379E-110
   40.3389000000000         1.904615698424873E-110
   40.5783000000000         3.376907023899852E-109
   40.8177000000000         1.024109048966382E-108
   41.0571000000000         2.279312821115349E-108
   41.2965000000000         4.271636484604281E-108
   41.5359000000000         6.955212008154020E-108
   41.7753000000000         9.706900112326982E-108
   42.0147000000000         1.070743295273875E-107
   42.2541000000000         6.037314827634491E-108
   42.4935000000000        -1.139804077978338E-107
   42.7329000000000        -5.268178042001891E-107
   42.9723000000000        -1.324282542559454E-106
   43.2117000000000        -2.651494177594447E-106
   43.4511000000000        -4.553761563874087E-106
   43.6905000000000        -6.773465195988336E-106
   43.9299000000000        -8.397978392152540E-106
   44.1693000000000        -7.335430561447821E-106
   44.4087000000000         3.332190906457304E-107
   44.6481000000000         2.091889368203089E-105
   44.8875000000000         6.311282460723153E-105
   45.1269000000000         1.364647000063088E-104
   45.3663000000000         2.468463503995467E-104
   45.6057000000000         3.868417422769834E-104
   45.8451000000000         5.188245607653184E-104
   46.0845000000000         5.493731380883052E-104
   46.3239000000000         2.967480909844855E-104
   46.5633000000000        -5.400477217724731E-104
   46.8027000000000        -2.389928430554531E-103
   47.0421000000000        -5.756810862169092E-103
   47.2815000000000        -1.104196942049110E-102
   47.5209000000000        -1.815524166378475E-102
   47.7603000000000        -2.582019173871762E-102
   47.9997000000000        -3.051120754749408E-102
   48.2391000000000        -2.507659984828293E-102
   48.4785000000000         2.643102435074281E-103
   48.7179000000000         7.043968780591313E-102
   48.9573000000000         2.001591981601018E-101
   49.1967000000000         4.116085465108189E-101
   49.4361000000000         7.087962790449395E-101
   49.6755000000000         1.055044962569705E-100
   49.9149000000000         1.334631115114950E-100
   50.1543000000000         1.302548536088802E-100
   50.3937000000000         5.325558859121787E-101
   50.6331000000000        -1.611317895217655E-100
   50.8725000000000        -5.932269822191910E-100
   51.1119000000000        -1.321168263833019E-099
   51.3513000000000        -2.377137165880451E-099
   51.5907000000000        -3.667533698541786E-099
   51.8301000000000        -4.849449342597894E-099
   52.0695000000000        -5.167975161622453E-099
   52.3089000000000        -3.285018400061295E-099
   52.5483000000000         2.824470183142931E-099
   52.7877000000000         1.576639724124599E-098
   53.0271000000000         3.818678421541357E-098
   53.2665000000000         7.149425570990650E-098
   53.5059000000000         1.135162537621625E-097
   53.7453000000000         1.548602635174550E-097
   53.9847000000000         1.740955070327889E-097
   54.2241000000000         1.326009370731181E-097
   54.4635000000000        -2.882225157891198E-098
   54.7029000000000        -3.876467503453153E-097
   54.9423000000000        -1.025447748157190E-096
   55.1817000000000        -1.993570052456035E-096
   55.4211000000000        -3.249531114387094E-096
   55.6605000000000        -4.557575402266557E-096
   55.8999000000000        -5.355579198576311E-096
   56.1393000000000        -4.609164798003757E-096
   56.3787000000000        -7.058380331611696E-097
   56.6181000000000         8.511375301791026E-096
   56.8575000000000         2.541361475020838E-095
   57.0969000000000         5.174641942367937E-095
   57.3363000000000         8.704223723009577E-095
   57.5757000000000         1.260992945208845E-094
   57.8151000000000         1.555405905903207E-094
   58.0545000000000         1.498993848432005E-094
   58.2939000000000         6.842566054439462E-095
   58.5333000000000        -1.450887763036999E-094
   58.7727000000000        -5.557814539680878E-094
   59.0121000000000        -1.219407283679438E-093
   59.2515000000000        -2.146363983053244E-093
   59.4909000000000        -3.243003607916887E-093
   59.7303000000000        -4.229151816230231E-093
   59.9697000000000        -4.539770050278005E-093
   60.2091000000000        -3.234648681625032E-093
   60.4485000000000         1.035985610047530E-093
   60.6879000000000         9.931068914223823E-093
   60.9273000000000         2.507175883666499E-092
   61.1667000000000         4.731306678336121E-092
   61.4061000000000         7.550615580604136E-092
   61.6455000000000         1.046909129969320E-091
   61.8849000000000         1.238254180031261E-091
   62.1243000000000         1.134663735447785E-091
   62.3637000000000         4.429099303025295E-092
   62.6031000000000        -1.220122661125575E-091
   62.8425000000000        -4.272410584460135E-091
   63.0819000000000        -9.037270853327914E-091
   63.3213000000000        -1.550988214783952E-090
   63.5607000000000        -2.299973413540978E-090
   63.8001000000000        -2.965605455118540E-090
   64.0395000000000        -3.193640880648184E-090
   64.2789000000000        -2.416443155791030E-090
   64.5183000000000         1.557976357449318E-091
   64.7577000000000         5.467648403532674E-090
   64.9971000000000         1.442062782662985E-089
   65.2365000000000         2.748402783742689E-089
   65.4759000000000         4.406257177820068E-089
   65.7153000000000         6.160709196487024E-089
   65.9547000000000         7.453611127114314E-089
   66.1941000000000         7.317538303082733E-089
   66.4335000000000         4.312536579117278E-089
   66.6729000000000        -3.427751617195408E-089
   66.9123000000000        -1.794718453276295E-088
   67.1517000000000        -4.090250733075008E-088
   67.3911000000000        -7.257201185375961E-088
   67.6305000000000        -1.103700892051483E-087
   67.8699000000000        -1.469106208500108E-087
   68.1093000000000        -1.678645237962213E-087
   68.3487000000000        -1.501683271091649E-087
   68.5881000000000        -6.155656545586632E-088
   68.8275000000000         1.371348617773054E-087
   69.0669000000000         4.850239333104520E-087
   69.3063000000000         1.007548488736761E-086
   69.5457000000000         1.694455797953033E-086
   69.7851000000000         2.469007378978555E-086
   70.0245000000000         3.150606576314772E-086
   70.2639000000000         3.417360758409941E-086
   70.5033000000000         2.781186444450603E-086
   70.7427000000000         5.955497100839241E-087
   70.9821000000000        -3.876431459225313E-086
   71.2215000000000        -1.130042001316969E-085
   71.4609000000000        -2.198343831900851E-085
   71.7003000000000        -3.544026535835487E-085
   71.9397000000000        -4.982296664825864E-085
   72.1791000000000        -6.127610626007193E-085
   72.4185000000000        -6.336067359033457E-085
   72.6579000000000        -4.679551842127968E-085
   72.8973000000000         1.157475261701739E-087
   73.1367000000000         8.989843064430976E-085
   73.3761000000000         2.326397379343046E-084
   73.6155000000000         4.305973371465705E-084
   73.8549000000000         6.705258840194031E-084
   74.0943000000000         9.141481543998953E-084
   74.3337000000000         1.088152029279741E-083
   74.5731000000000         1.076437012277509E-083
   74.8125000000000         7.189751563480014E-084
   75.0519000000000        -1.766661871983016E-084
   75.2913000000000        -1.803855423701539E-083
   75.5307000000000        -4.298163036534666E-083
   75.7701000000000        -7.646231982596790E-083
   76.0095000000000        -1.156271356651925E-082
   76.2489000000000        -1.534585065228316E-082
   76.4883000000000        -1.773760750749007E-082
   76.7277000000000        -1.683440183896891E-082
   76.9671000000000        -1.011737652172604E-082
   77.2065000000000         5.307897428991548E-083
   77.4459000000000         3.216121579505766E-082
   77.6853000000000         7.203581735347003E-082
   77.9247000000000         1.239984571289828E-081
   78.1641000000000         1.827900820424086E-081
   78.4035000000000         2.368325310737977E-081
   78.6429000000000         2.664686561925317E-081
   78.8823000000000         2.431370502034127E-081
   79.1217000000000         1.304691731213632E-081
   79.3611000000000        -1.114772220216109E-081
   79.6005000000000        -5.175818308276156E-081
   79.8399000000000        -1.103627638415294E-080
   80.0793000000000        -1.846643126797136E-080
   80.3187000000000        -2.660826997252804E-080
   80.5581000000000        -3.372457340931568E-080
   80.7975000000000        -3.700107687652093E-080
   81.0369000000000        -3.249862356127278E-080
   81.2763000000000        -1.538431612933614E-080
   81.5157000000000         1.940914153241820E-080
   81.7551000000000         7.595308123915430E-080
   81.9945000000000         1.554297435709323E-079
   82.2339000000000         2.535996905440986E-079
   82.4733000000000         3.578477472553389E-079
   82.7127000000000         4.443049401033261E-079
   82.9521000000000         4.758936306681260E-079
   83.1915000000000         4.025184245043044E-079
   83.4309000000000         1.649422056157514E-079
   83.6703000000000        -2.959846852663005E-079
   83.9097000000000        -1.023305455201579E-078
   84.1491000000000        -2.020500581593395E-078
   84.3885000000000        -3.221482348740829E-078
   84.6279000000000        -4.457331474792473E-078
   84.8673000000000        -5.426311379152656E-078
   85.1067000000000        -5.677509290594618E-078
   85.3461000000000        -4.622219865318152E-078
   85.5855000000000        -1.589868264558516E-078
   85.8249000000000         4.054610701066655E-078
   86.0643000000000         1.271928915051125E-077
   86.3037000000000         2.431760032793712E-077
   86.5431000000000         3.794098670392680E-077
   86.7825000000000         5.151535760097919E-077
   87.0219000000000         6.151927925320789E-077
   87.2613000000000         6.287963593879272E-077
   87.5007000000000         4.919421207608331E-077
   87.7401000000000         1.344871033132271E-077
   87.9795000000000        -5.061713967555203E-077
   88.2189000000000        -1.464010725746300E-076
   88.4583000000000        -2.716207154944495E-076
   88.6977000000000        -4.150234793759004E-076
   88.9371000000000        -5.531392463473843E-076
   89.1765000000000        -6.479247289910956E-076
   89.4159000000000        -6.464880381230267E-076
   89.6553000000000        -4.843456669693079E-076
   89.8947000000000        -9.373524087992270E-077
   90.1341000000000         5.817577639985503E-076
   90.3735000000000         1.565754746693904E-075
   90.6129000000000         2.821685260034672E-075
   90.8523000000000         4.222340816135853E-075
   91.0917000000000         5.521921577693971E-075
   91.3311000000000         6.339068658010265E-075
   91.5705000000000         6.162114930275885E-075
   91.8099000000000         4.389501639999013E-075
   92.0493000000000         4.179235571934810E-076
   92.2887000000000        -6.212947355763928E-075
   92.5281000000000        -1.561852922030042E-074
   92.7675000000000        -2.732308879530477E-074
   93.0069000000000        -4.000093444072197E-074
   93.2463000000000        -5.125963969609283E-074
   93.4857000000000        -5.754366984101171E-074
   93.7251000000000        -5.425626953737758E-074
   93.9645000000000        -3.620529780607253E-074
   94.2039000000000         1.534170054248882E-075
   94.4433000000000         6.229073720619099E-074
   94.6827000000000         1.460326248904413E-073
   94.9221000000000         2.473232720015432E-073
   95.1615000000000         3.533117142045726E-073
   95.4009000000000         4.422548240545236E-073
   95.6403000000000         4.832411868536372E-073
   95.8797000000000         4.379029419987460E-073
   96.1191000000000         2.649009925002119E-073
   96.3585000000000        -7.221909211082528E-074
   96.5979000000000        -5.936445836828056E-073
   96.8373000000000        -1.288970220949412E-072
   97.0767000000000        -2.101551554863567E-072
   97.3161000000000        -2.914423929196927E-072
   97.5555000000000        -3.542000181936662E-072
   97.7949000000000        -3.732868697655661E-072
   98.0343000000000        -3.189514986722935E-072
   98.2737000000000        -1.610212330646850E-072
   98.5131000000000         1.243820667272416E-072
   98.7525000000000         5.457019427324310E-072
   98.9919000000000         1.085111975266801E-071
   99.2313000000000         1.687531479152214E-071
   99.4707000000000         2.251964187754125E-071
   99.7101000000000         2.628510105746327E-071
   99.9495000000000         2.624997847713528E-071
   100.188900000000         2.027199023114898E-071
   100.428300000000         6.356800710600144E-072
   100.667700000000        -1.679793741822938E-071
   100.907100000000        -4.910966085138989E-071
   101.146500000000        -8.834571227774156E-071
   101.385900000000        -1.294230722343687E-070
   101.625300000000        -1.639731398379379E-070
   101.864700000000        -1.804236690455216E-070
   102.104100000000        -1.648725256730298E-070
   102.343500000000        -1.029990553627010E-070
   102.582900000000         1.684394693600090E-071
   102.822300000000         1.994093705573080E-070
   103.061700000000         4.375510130635424E-070
   103.301100000000         7.071592185083640E-070
   103.540500000000         9.631869313786007E-070
   103.779900000000         1.138315174826324E-069
   104.019300000000         1.146071159437045E-069
   104.258700000000         8.902036338057025E-070
   104.498100000000         2.816860418095079E-070
   104.737500000000        -7.362816988700696E-070
   104.976900000000        -2.156555864169396E-069
   105.216300000000        -3.873194140008348E-069
   105.455700000000        -5.649809272263522E-069
   105.695100000000        -7.100345154998160E-069
   105.934500000000        -7.693852450196166E-069
   106.173900000000        -6.795868713340751E-069
   106.413300000000        -3.757709718583726E-069
   106.652700000000         1.939661167713358E-069
   106.892100000000         1.048932223218538E-068
   107.131500000000         2.152507904671645E-068
   107.370900000000         3.388388061482051E-068
   107.610300000000         4.541630112121469E-068
   107.849700000000         5.291616976790424E-068
   108.089100000000         5.225359570545198E-068
   108.328500000000         3.879710778317695E-068
   108.567900000000         8.193526683518150E-069
   108.807300000000        -4.246803605234094E-068
   109.046700000000        -1.131535644686772E-067
   109.286100000000        -1.991904850584008E-067
   109.525500000000        -2.896567929962225E-067
   109.764900000000        -3.662625636522658E-067
   110.004300000000        -4.032539635735225E-067
   110.243700000000        -3.689399902879899E-067
   110.483100000000        -2.294185689781187E-067
   110.722500000000         4.508521248460756E-068
   110.961900000000         4.712013710283276E-067
   111.201300000000         1.041201765680647E-066
   111.440700000000         1.710825356475338E-066
   111.680100000000         2.388270815410813E-066
   111.919500000000         2.927410195005022E-066
   112.158900000000         3.129049298655345E-066
   112.398300000000         2.754430454888137E-066
   112.637700000000         1.554844632549030E-066
   112.877100000000        -6.801150920883574E-067
   113.116500000000        -4.055725859854704E-066
   113.355900000000        -8.490791776011965E-066
   113.595300000000        -1.363112995692983E-065
   113.834700000000        -1.877339001562850E-065
   114.074100000000        -2.282091540945588E-065
   114.313500000000        -2.429833003313399E-065
   114.552900000000        -2.145359031180673E-065
   114.792300000000        -1.247341304794799E-065
   115.031700000000         4.171714704080353E-066
   115.271100000000         2.925492064094262E-065
   115.510500000000         6.222206251709151E-065
   115.749900000000         1.005876193246817E-064
   115.989300000000         1.394035100235495E-064
   116.228700000000         1.709479165673682E-064
   116.468100000000         1.848135280530347E-064
   116.707500000000         1.685874094187378E-064
   116.946900000000         1.092953100632153E-064
   117.186300000000        -4.280906588498915E-066
   117.425700000000        -1.784228897606797E-064
   117.665100000000        -4.106203309285673E-064
   117.904500000000        -6.854591587769710E-064
   118.143900000000        -9.709373957774687E-064
   118.383300000000        -1.216157034747736E-063
   118.622700000000        -1.351551216598274E-063
   118.862100000000        -1.292895285052004E-063
   119.101500000000        -9.502398311533505E-064
   119.340900000000        -2.425159475185116E-064
   119.580300000000         8.821642626535684E-064
   119.819700000000         2.421581634136728E-063
   120.059100000000         4.292354777618484E-063
   120.298500000000         6.304901439311128E-063
   120.537900000000         8.146225278776016E-063
   120.777300000000         9.377702323340133E-063
   121.016700000000         9.455703375747809E-063
   121.256100000000         7.782381125031419E-063
   121.495500000000         3.791806450982567E-063
   121.734900000000        -2.927522593246417E-063
   121.974300000000        -1.247913311748347E-062
   122.213700000000        -2.448773014759588E-062
   122.453100000000        -3.793463779920741E-062
   122.692500000000        -5.103325101925569E-062
   122.931900000000        -6.118688383255439E-062
   123.171300000000        -6.507629046354153E-062
   123.410700000000        -5.892257669916116E-062
   123.650100000000        -3.896048489184327E-062
   123.889500000000        -2.134833015762281E-063
   124.128900000000         5.300202570715662E-062
   124.368300000000         1.252609613138876E-061
   124.607700000000         2.097805903551366E-061
   124.847100000000         2.971705880735746E-061
   125.086500000000         3.730721045010365E-061
   125.325900000000         4.184082244451259E-061
   125.565300000000         4.105986255630991E-061
   125.804700000000         3.259650303150519E-061
   126.044100000000         1.434442302119046E-061
   126.283500000000        -1.504549678566652E-061
   126.522900000000        -5.557650066072513E-061
   126.762300000000        -1.052864419512896E-060
   127.001700000000        -1.596930288662566E-060
   127.241100000000        -2.114309358655084E-060
   127.480500000000        -2.502309781504499E-060
   127.719900000000        -2.633984537964064E-060
   127.959300000000        -2.369301452238583E-060
   128.198700000000        -1.573596783695841E-060
   128.438100000000        -1.433361094977818E-061
   128.677500000000         1.962053542973593E-060
   128.916900000000         4.685111216337626E-060
   129.156300000000         7.836658338598242E-060
   129.395700000000         1.106991111007971E-059
   129.635100000000         1.387023870620191E-059
   129.874500000000         1.556913168944954E-059
   130.113900000000         1.539049831866709E-059
   130.353300000000         1.253538055602423E-059
   130.592700000000         6.307252618766426E-060
   130.832100000000        -3.725902314577665E-060
   131.071500000000        -1.754439192296849E-059
   131.310900000000        -3.448533904314239E-059
   131.550300000000        -5.307732192756636E-059
   131.789700000000        -7.093995133668766E-059
   132.029100000000        -8.479263778851866E-059
   132.268500000000        -9.061708200709279E-059
   132.507900000000        -8.401097069809875E-059
   132.747300000000        -6.075413458725525E-059
   132.986700000000        -1.758196140774547E-059
   133.226100000000         4.687563894414214E-059
   133.465500000000         1.310759861323570E-058
   133.704900000000         2.296009105085917E-058
   133.944300000000         3.324304918071116E-058
   134.183700000000         4.246692887307589E-058
   134.423100000000         4.869549745523696E-058
   134.662500000000         4.967611424876438E-058
   134.901900000000         4.307459931564103E-058
   135.141300000000         2.681897322459439E-058
   135.380700000000        -4.595916970542861E-060
   135.620100000000        -3.892067905971621E-058
   135.859500000000        -8.699880249686731E-058
   136.098900000000        -1.409568938329724E-057
   136.338300000000        -1.946083976987673E-057
   136.577700000000        -2.393195199740147E-057
   136.817100000000        -2.644023487794281E-057
   137.056500000000        -2.579906884337169E-057
   137.295900000000        -2.084495288780440E-057
   137.535300000000        -1.063041164918260E-057
   137.774700000000         5.341332935791874E-058
   138.014100000000         2.686069495532596E-057
   138.253500000000         5.276719342262473E-057
   138.492900000000         8.075883691935630E-057
   138.732300000000         1.073061875552721E-056