  -1.79550000000000         0.000000000000000E+000
  -1.55610000000000         0.000000000000000E+000
  -1.31670000000000         0.000000000000000E+000
  -1.07730000000000         0.000000000000000E+000
 -0.837900000000000         0.000000000000000E+000
 -0.598500000000000         0.000000000000000E+000
 -0.359100000000000         0.000000000000000E+000
 -0.119700000000000         0.000000000000000E+000
  0.119700000000000         0.000000000000000E+000
  0.359100000000000         0.000000000000000E+000
  0.598500000000000         0.000000000000000E+000
  0.837900000000000         0.000000000000000E+000
   1.07730000000000         0.000000000000000E+000
   1.31670000000000         0.000000000000000E+000
   1.55610000000000         0.000000000000000E+000
   1.79550000000000         0.000000000000000E+000
   2.03490000000000         0.000000000000000E+000
   2.27430000000000         0.000000000000000E+000
   2.51370000000000         0.000000000000000E+000
   2.75310000000000         0.000000000000000E+000
   2.99250000000000         0.000000000000000E+000
   3.23190000000000         0.000000000000000E+000
   3.47130000000000         0.000000000000000E+000
   3.71070000000000         0.000000000000000E+000
   3.95010000000000         0.000000000000000E+000
   4.18950000000000         0.000000000000000E+000
   4.42890000000000         0.000000000000000E+000
   4.66830000000000         0.000000000000000E+000
   4.90770000000000         0.000000000000000E+000
   5.14710000000000         0.000000000000000E+000
   5.38650000000000         0.000000000000000E+000
   5.62590000000000         0.000000000000000E+000
   5.86530000000000         0.000000000000000E+000
   6.10470000000000         0.000000000000000E+000
   6.34410000000000         0.000000000000000E+000
   6.58350000000000         0.000000000000000E+000
   6.82290000000000         0.000000000000000E+000
   7.06230000000000         0.000000000000000E+000
   7.30170000000000         0.000000000000000E+000
   7.54110000000000         0.000000000000000E+000
   7.78050000000000         0.000000000000000E+000
   8.01990000000000         0.000000000000000E+000
   8.25930000000000         0.000000000000000E+000
   8.49870000000000         0.000000000000000E+000
   8.73810000000000         5.255914696832249E-187
   8.97750000000000         1.408095512064324E-179
   9.21690000000000        -5.310922227549402E-177
   9.45630000000000         8.158706952469148E-173
   9.69570000000000         5.061514037636014E-171
   9.93510000000000         1.567666805883659E-169
   10.1745000000000         3.282638252850246E-168
   10.4139000000000         5.336705351552951E-167
   10.6533000000000         7.308658182260561E-166
   10.8927000000000         8.733888189806211E-165
   11.1321000000000         8.911906954665605E-164
   11.3715000000000         6.932990314345772E-163
   11.6109000000000         2.224339173034467E-162
   11.8503000000000        -4.787425748238994E-161
   12.0897000000000        -1.256800611282879E-159
   12.3291000000000        -1.910934570971706E-158
   12.5685000000000        -2.285415644616221E-157
   12.8079000000000        -2.329499044996942E-156
   13.0473000000000        -2.096976766472877E-155
   13.2867000000000        -1.701110475446652E-154
   13.5261000000000        -1.260139514838476E-153
   13.7655000000000        -8.604887642610633E-153
   14.0049000000000        -5.454971201831559E-152
   14.2443000000000        -3.228161110493234E-151
   14.4837000000000        -1.791134258567460E-150
   14.7231000000000        -9.350112751531353E-150
   14.9625000000000        -4.604741352668941E-149
   15.2019000000000        -2.143850618826203E-148
   15.4413000000000        -9.449748672262597E-148
   15.6807000000000        -3.946837672778851E-147
   15.9201000000000        -1.562260398530590E-146
   16.1595000000000        -5.856684242751532E-146
   16.3989000000000        -2.075880298945306E-145
   16.6383000000000        -6.934305770181297E-145
   16.8777000000000        -2.170773738841622E-144
   17.1171000000000        -6.306454462754967E-144
   17.3565000000000        -1.669766354696081E-143
   17.5959000000000        -3.879252967800002E-143
   17.8353000000000        -7.139894135064579E-143
   18.0747000000000        -6.063405971437600E-143
   18.3141000000000         2.790512197010917E-142
   18.5535000000000         2.047346384167379E-141
   18.7929000000000         8.809438126554092E-141
   19.0323000000000         3.067694051032427E-140
   19.2717000000000         9.278643863430955E-140
   19.5111000000000         2.482304327690388E-139
   19.7505000000000         5.821386559193380E-139
   19.9899000000000         1.143176545682437E-138
   20.2293000000000         1.591050513634738E-138
   20.4687000000000        -5.709728754978093E-141
   20.7081000000000        -1.045670071837280E-137
   20.9475000000000        -4.881867652236310E-137
   21.1869000000000        -1.589604070637504E-136
   21.4263000000000        -4.193346593864257E-136
   21.6657000000000        -9.056715153027606E-136
   21.9051000000000        -1.453926354398071E-135
   22.1445000000000        -8.054039714002127E-136
   22.3839000000000         5.812833151786937E-135
   22.6233000000000         3.237263953370118E-134
   22.8627000000000         1.128671427300979E-133
   23.1021000000000         3.154096869202145E-133
   23.3415000000000         7.402150222301270E-133
   23.5809000000000         1.426659932373832E-132
   23.8203000000000         1.952901196944474E-132
   24.0597000000000         2.089234916031973E-133
   24.2991000000000        -1.069314346690576E-131
   24.5385000000000        -4.896396002428984E-131
   24.7779000000000        -1.553008743330377E-130
   25.0173000000000        -4.050374051904855E-130
   25.2567000000000        -8.996538478863521E-130
   25.4961000000000        -1.665441621397201E-129
   25.7355000000000        -2.268154282525355E-129
   25.9749000000000        -7.139883156873189E-130
   26.2143000000000         9.186330097738364E-129
   26.4537000000000         4.326547831937222E-128
   26.6931000000000         1.365014605442765E-127
   26.9325000000000         3.556110036525933E-127
   27.1719000000000         8.052722591275351E-127
   27.4113000000000         1.595231031822439E-126
   27.6507000000000         2.682840520547562E-126
   27.8901000000000         3.404063556407025E-126
   28.1295000000000         1.344030445705293E-126
   28.3689000000000        -9.987036872547237E-126
   28.6083000000000        -4.522976169869166E-125
   28.8477000000000        -1.328846588019419E-124
   29.0871000000000        -3.199283387915286E-124
   29.3265000000000        -6.656880861472986E-124
   29.5659000000000        -1.200231847599932E-123
   29.8053000000000        -1.794533056984936E-123
   30.0447000000000        -1.846473877462597E-123
   30.2841000000000         3.619967315932269E-124
   30.5235000000000         8.792701503269944E-123
   30.7629000000000         3.127865418877052E-122
   31.0023000000000         8.112050573895969E-122
   31.2417000000000         1.767148068674639E-121
   31.4811000000000         3.343111807805564E-121
   31.7205000000000         5.436768455181191E-121
   31.9599000000000         7.084844449051028E-121
   32.1993000000000         5.243900167884071E-121
   32.4387000000000        -7.349740423451306E-121
   32.6781000000000        -4.532733441617459E-120
   32.9175000000000        -1.341139528308434E-119
   33.1569000000000        -3.108532263649170E-119
   33.3963000000000        -6.158457272863726E-119
   33.6357000000000        -1.060185402366641E-118
   33.8751000000000        -1.544564871437537E-118
   34.1145000000000        -1.692414469734020E-118
   34.3539000000000        -5.560056166799441E-119
   34.5933000000000         3.822942283073774E-118
   34.8327000000000         1.492666322508192E-117
   35.0721000000000         3.805433703345764E-117
   35.3115000000000         7.965311866149719E-117
   35.5509000000000         1.441821290008208E-116
   35.7903000000000         2.259057544457198E-116
   36.0297000000000         2.917977306094610E-116
   36.2691000000000         2.511609664440371E-116
   36.5085000000000        -9.062004654784388E-117
   36.7479000000000        -1.089258249382437E-115
   36.9873000000000        -3.306159976282828E-115
   37.2267000000000        -7.480100745602218E-115
   37.4661000000000        -1.430351230299957E-114
   37.7055000000000        -2.379201936845310E-114
   37.9449000000000        -3.393585091506295E-114
   38.1843000000000        -3.826336933361778E-114
   38.4237000000000        -2.204965310447132E-114
   38.6631000000000         4.261176596610485E-114
   38.9025000000000         2.014384659537953E-113
   39.1419000000000         5.184423539642970E-113
   39.3813000000000         1.064357262632752E-112
   39.6207000000000         1.879264400477850E-112
   39.8601000000000         2.888908000872454E-112
   40.0995000000000         3.749436847908292E-112
   40.3389000000000         3.599140926453488E-112
   40.5783000000000         7.202581835913683E-113
   40.8177000000000        -7.821970801593352E-112
   41.0571000000000        -2.636714437998568E-111
   41.2965000000000        -6.026015761943187E-111
   41.5359000000000        -1.141318411740200E-110
   41.7753000000000        -1.877451676956795E-110
   42.0147000000000        -2.679784363973050E-110
   42.2541000000000        -3.155719892067256E-110
   42.4935000000000        -2.462423184384589E-110
   42.7329000000000         9.146528986146624E-111
   42.9723000000000         9.335011268595092E-110
   43.2117000000000         2.594859457711448E-109
   43.4511000000000         5.408732760353073E-109
   43.6905000000000         9.559344797876764E-109
   43.9299000000000         1.474056301614080E-108
   44.1693000000000         1.956843902786388E-108
   44.4087000000000         2.070663053720364E-108
   44.6481000000000         1.176364119125820E-108
   44.8875000000000        -1.776347391944772E-108
   45.1269000000000        -8.284220865192461E-108
   45.3663000000000        -2.013164026296513E-107
   45.6057000000000        -3.883860160373740E-107
   45.8451000000000        -6.444011893744330E-107
   46.0845000000000        -9.328390303308428E-107
   46.3239000000000        -1.146088458311172E-106
   46.5633000000000        -1.059762479877737E-106
   46.8027000000000        -2.833403713376749E-107
   47.0421000000000         1.772127464764220E-106
   47.2815000000000         5.868361897772124E-106
   47.5209000000000         1.278843951596191E-105
   47.7603000000000         2.296273708826457E-105
   47.9997000000000         3.575607544158709E-105
   48.2391000000000         4.831357225613890E-105
   48.4785000000000         5.394693009899612E-105
   48.7179000000000         4.024998049125940E-105
   48.9573000000000        -1.247741059337455E-105
   49.1967000000000        -1.312958453773529E-104
   49.4361000000000        -3.471307051485656E-104
   49.6755000000000        -6.847006995468270E-104
   49.9149000000000        -1.142116636541816E-103
   50.1543000000000        -1.656527746476561E-103
   50.3937000000000        -2.054264292520443E-103
   50.6331000000000        -1.989437116871192E-103
   50.8725000000000        -8.856647836735229E-104
   51.1119000000000         2.086999882327973E-103
   51.3513000000000         7.943604846930443E-103
   51.5907000000000         1.763971375193024E-102
   51.8301000000000         3.154233038371028E-102
   52.0695000000000         4.850552473572312E-102
   52.3089000000000         6.448678721533125E-102
   52.5483000000000         7.077572038677632E-102
   52.7877000000000         5.217780328692822E-102
   53.0271000000000        -1.405610006055777E-102
   53.2665000000000        -1.571292816295624E-101
   53.5059000000000        -4.072460682807362E-101
   53.7453000000000        -7.829455084034808E-101
   53.9847000000000        -1.268166632831421E-100
   54.2241000000000        -1.776956104373399E-100
   54.4635000000000        -2.106819152018557E-100
   54.7029000000000        -1.888085048823939E-100
   54.9423000000000        -5.473666516544498E-101
   55.1817000000000         2.681392810932939E-100
   55.4211000000000         8.645974579006457E-100
   55.6605000000000         1.799485976344498E-099
   55.8999000000000         3.064807027918363E-099
   56.1393000000000         4.495917293463865E-099
   56.3787000000000         5.657223485601433E-099
   56.6181000000000         5.711589908634708E-099
   56.8575000000000         3.311456791285576E-099
   57.0969000000000        -3.415413651731812E-099
   57.3363000000000        -1.666882850460549E-098
   57.5757000000000        -3.840684381207649E-098
   57.8151000000000        -6.921748218095228E-098
   58.0545000000000        -1.064687748139572E-097
   58.2939000000000        -1.416947773307121E-097
   58.5333000000000        -1.574498568311506E-097
   58.7727000000000        -1.243506869583814E-097
   59.0121000000000         2.404161437905882E-100
   59.2515000000000         2.694853051563732E-097
   59.4909000000000         7.368692012419190E-097
   59.7303000000000         1.434365331983331E-096
   59.9697000000000         2.334946081018502E-096
   60.2091000000000         3.297360192296115E-096
   60.4485000000000         3.995995160387145E-096
   60.6879000000000         3.847742083972377E-096
   60.9273000000000         1.961965757737230E-096
   61.1667000000000        -2.841225899362626E-096
   61.4061000000000        -1.187753139160093E-095
   61.6455000000000        -2.622442513487864E-095
   61.8849000000000        -4.603638733756231E-095
   62.1243000000000        -6.948454221946570E-095
   62.3637000000000        -9.133289162204359E-095
   62.6031000000000        -1.013163114619852E-094
   62.8425000000000        -8.273451925871181E-095
   63.0819000000000        -1.202554091448344E-095
   63.3213000000000         1.394975891867960E-094
   63.5607000000000         4.001579222881272E-094
   63.8001000000000         7.868610949743812E-094
   64.0395000000000         1.286889883674579E-093
   64.2789000000000         1.831999755076043E-093
   64.5183000000000         2.266554758739389E-093
   64.7577000000000         2.315375669053972E-093
   64.9971000000000         1.562744338811949E-093
   65.2365000000000        -5.386646066875628E-094
   65.4759000000000        -4.602392747661386E-093
   65.7153000000000        -1.115398196219399E-092
   65.9547000000000        -2.035560498056719E-092
   66.1941000000000        -3.158875089112980E-092
   66.4335000000000        -4.290413361435442E-092
   66.6729000000000        -5.040336944977637E-092
   66.9123000000000        -4.770245780378435E-092
   67.1517000000000        -2.574130555210122E-092
   67.3911000000000         2.666616080934336E-092
   67.6305000000000         1.210301816392637E-091
   67.8699000000000         2.655702547540140E-091
   68.1093000000000         4.593197490846478E-091
   68.3487000000000         6.838209432978055E-091
   68.5881000000000         8.929718390550813E-091
   68.8275000000000         1.002715291735454E-090
   69.0669000000000         8.838462437832447E-091
   69.3063000000000         3.631351417453749E-091
   69.5457000000000        -7.601106408419212E-091
   69.7851000000000        -2.673630993795777E-090
   70.0245000000000        -5.479835631563005E-090
   70.2639000000000        -9.086566881118735E-090
   70.5033000000000        -1.306368517283935E-089
   70.7427000000000        -1.648143048463987E-089
   70.9821000000000        -1.776608334314858E-089
   71.2215000000000        -1.463342438756014E-089
   71.4609000000000        -4.187498760611357E-090
   71.7003000000000         1.670561036778769E-089
   71.9397000000000         5.065291228995801E-089
   72.1791000000000         9.848700284969622E-089
   72.4185000000000         1.575176663932385E-088
   72.6579000000000         2.194034436164390E-088
   72.8973000000000         2.679793898599282E-088
   73.1367000000000         2.776639907102489E-088
   73.3761000000000         2.133954104882980E-088
   73.6155000000000         3.334687272899388E-089
   73.8549000000000        -3.041704676587236E-088
   74.0943000000000        -8.283508288754683E-088
   74.3337000000000        -1.537451891762082E-087
   74.5731000000000        -2.374955452321960E-087
   74.8125000000000        -3.203152372565679E-087
   75.0519000000000        -3.779905017190500E-087
   75.2913000000000        -3.747795899634255E-087
   75.5307000000000        -2.648209521354225E-087
   75.7701000000000         2.497703848541404E-089
   76.0095000000000         4.718050162016493E-087
   76.2489000000000         1.164768447956089E-086
   76.4883000000000         2.057173214337573E-086
   76.7277000000000         3.052313788101337E-086
   76.9671000000000         3.955676140296005E-086
   77.2065000000000         4.459118247771032E-086
   77.4459000000000         4.145888044048552E-086
   77.6853000000000         2.529829138068012E-086
   77.9247000000000        -8.584176594250216E-087
   78.1641000000000        -6.330205098971514E-086
   78.4035000000000        -1.384533370596338E-085
   78.6429000000000        -2.278641041863948E-085
   78.8823000000000        -3.174538418115978E-085
   79.1217000000000        -3.839423916408923E-085
   79.3611000000000        -3.953717726825152E-085
   79.6005000000000        -3.145481293545433E-085
   79.8399000000000        -1.063866120876397E-085
   80.0793000000000         2.503857517137064E-085
   80.3187000000000         7.477814889948324E-085
   80.5581000000000         1.331638708422630E-084
   80.7975000000000         1.887702160982170E-084
   81.0369000000000         2.237527076610881E-084
   81.2763000000000         2.152948886453536E-084
   81.5157000000000         1.398335920049210E-084
   81.7551000000000        -1.924160903832270E-085
   81.9945000000000        -2.603587113261954E-084
   82.2339000000000        -5.501169574907632E-084
   82.4733000000000        -8.100706527213352E-084
   82.7127000000000        -9.089624247412702E-084
   82.9521000000000        -6.676707264316863E-084
   83.1915000000000         1.142271273257238E-084
   83.4309000000000         1.601375931163560E-083
   83.6703000000000         3.829105608631998E-083
   83.9097000000000         6.574834767249232E-083
   84.1491000000000         9.208697488582977E-083
   84.3885000000000         1.055643452891640E-082
   84.6279000000000         8.830970042659193E-083
   84.8673000000000         1.713414169172822E-083
   85.1067000000000        -1.331737699874369E-082
   85.3461000000000        -3.830551214716890E-082
   85.5855000000000        -7.371574629161612E-082
   85.8249000000000        -1.169076486306838E-081
   86.0643000000000        -1.603166646100948E-081
   86.3037000000000        -1.896673485301313E-081
   86.5431000000000        -1.827943398408355E-081
   86.7825000000000        -1.099210106376682E-081
   87.0219000000000         6.351805210640535E-082
   87.2613000000000         3.703244411600065E-081
   87.5007000000000         8.302351641685534E-081
   87.7401000000000         1.433446448517521E-080
   87.9795000000000         2.119696551438921E-080
   88.2189000000000         2.755471476764461E-080
   88.4583000000000         3.114375450312231E-080
   88.6977000000000         2.868620686590213E-080
   88.9371000000000         1.602449651777920E-080
   89.1765000000000        -1.139718101315286E-080
   89.4159000000000        -5.757700122233761E-080
   89.6553000000000        -1.244340233707942E-079
   89.8947000000000        -2.097162614907867E-079
   90.1341000000000        -3.044831333889159E-079
   90.3735000000000        -3.905246640962147E-079
   90.6129000000000        -4.383553244122855E-079
   90.8523000000000        -4.067217358810766E-079
   91.0917000000000        -2.448298041178158E-079
   91.3311000000000         1.013650737671241E-079
   91.5705000000000         6.775744244490451E-079
   91.8099000000000         1.503575594976368E-078
   92.0493000000000         2.549903416284383E-078
   92.2887000000000         3.710798640247659E-078
   92.5281000000000         4.777644566334555E-078
   92.7675000000000         5.419840604811959E-078
   93.0069000000000         5.182845643199894E-078
   93.2463000000000         3.515327268486097E-078
   93.4857000000000        -1.619449241766025E-079
   93.7251000000000        -6.334759740734995E-078
   93.9645000000000        -1.521676109864640E-077
   94.2039000000000        -2.651912928582857E-077
   94.4433000000000        -3.919043140077297E-077
   94.6827000000000        -5.116932510279116E-077
   94.9221000000000        -5.921656742150456E-077
   95.1615000000000        -5.891550831783068E-077
   95.4009000000000        -4.494589869808938E-077
   95.6403000000000        -1.173641422836832E-077
   95.8797000000000         4.542242922333245E-077
   96.1191000000000         1.287802723312702E-076
   96.3585000000000         2.361157619594125E-076
   96.5979000000000         3.585213135463823E-076
   96.8373000000000         4.783622428402841E-076
   97.0767000000000         5.679698742190176E-076
   97.3161000000000         5.897860574473769E-076
   97.5555000000000         4.987613538559177E-076
   97.7949000000000         2.477601716370247E-076
   98.0343000000000        -2.035205451775692E-076
   98.2737000000000        -8.761104005873900E-076
   98.5131000000000        -1.756567693650779E-075
   98.7525000000000        -2.780813995309990E-075
   98.9919000000000        -3.819966144048869E-075
   99.2313000000000        -4.672269982638158E-075
   99.4707000000000        -5.066061904663160E-075
   99.7101000000000        -4.678829966823809E-075
   99.9495000000000        -3.176524592884055E-075
   100.188900000000        -2.749325703657500E-076
   100.428300000000         4.179016797233208E-075
   100.667700000000         1.011360677746211E-074
   100.907100000000         1.714041256504660E-074
   101.146500000000         2.448461277071101E-074
   101.385900000000         3.096287833798560E-074
   101.625300000000         3.503537842505353E-074
   101.864700000000         3.495377540213885E-074
   102.104100000000         2.901462573244188E-074
   102.343500000000         1.590640062124490E-074
   102.582900000000        -4.890786827416802E-075
   102.822300000000        -3.272728111567523E-074
   103.061700000000        -6.553379484192965E-074
   103.301100000000        -9.982437667837342E-074
   103.540500000000        -1.310720779953076E-073
   103.779900000000        -1.545330026206490E-073
   104.019300000000        -1.665010523806230E-073
   104.258700000000        -1.658288419720010E-073
   104.498100000000        -1.553585007490763E-073
   104.737500000000        -1.426962906553740E-073
   104.976900000000        -1.395868100067817E-073
   105.216300000000        -1.590696252084077E-073
   105.455700000000        -2.097265251956559E-073
   105.695100000000        -2.867511444669963E-073
   105.934500000000        -3.603787231249124E-073
   106.173900000000        -3.634379535933887E-073
   106.413300000000        -1.813747911483197E-073
   106.652700000000         3.501396445016872E-073
   106.892100000000         1.433331862404550E-072
   107.131500000000         3.274667526223229E-072
   107.370900000000         6.022553233303821E-072
   107.610300000000         9.672511997912466E-072
   107.849700000000         1.394203412506751E-071
   108.089100000000         1.812704052022184E-071
   108.328500000000         2.096523723576601E-071
   108.567900000000         2.054761902221505E-071
   108.807300000000         1.433574231130393E-071
   109.046700000000        -6.446725635147400E-073
   109.286100000000        -2.735915961665705E-071
   109.525500000000        -6.800581941359277E-071
   109.764900000000        -1.229138747576328E-070
   110.004300000000        -1.891347855277306E-070
   110.243700000000        -2.588584056559394E-070
   110.483100000000        -3.179153109691323E-070
   110.722500000000        -3.447764549451035E-070
   110.961900000000        -3.106114502904342E-070
   111.201300000000        -1.810826348996425E-070
   111.440700000000         7.941400872985709E-071
   111.680100000000         5.004562698072731E-070
   111.919500000000         1.094955152169830E-069
   112.158900000000         1.845435222735361E-069
   112.398300000000         2.688356889695053E-069
   112.637700000000         3.498725941665908E-069
   112.877100000000         4.078549076809142E-069
   113.116500000000         4.154023465745741E-069
   113.355900000000         3.387415386494848E-069
   113.595300000000         1.410003346470747E-069
   113.834700000000        -2.118234424089100E-069
   114.074100000000        -7.418822878621807E-069
   114.313500000000        -1.447590208440868E-068
   114.552900000000        -2.289599192209740E-068
   114.792300000000        -3.176315628825609E-068
   115.031700000000        -3.951702017557519E-068
   115.271100000000        -4.389225161860235E-068
   115.510500000000        -4.196768310728640E-068
   115.749900000000        -3.037834896081444E-068
   115.989300000000        -5.740810364566134E-069
   116.228700000000         3.467265060187218E-068
   116.468100000000         9.200566946884438E-068
   116.707500000000         1.646782050839116E-067
   116.946900000000         2.471450214707767E-067
   117.186300000000         3.287427313399044E-067
   117.425700000000         3.929037651317557E-067
   117.665100000000         4.170964080605021E-067
   117.904500000000         3.739039164061202E-067
   118.143900000000         2.336575819888294E-067
   118.383300000000        -3.103979751158905E-068
   118.622700000000        -4.387498091148881E-067
   118.862100000000        -9.907585627537797E-067
   119.101500000000        -1.661377126262087E-066
   119.340900000000        -2.388170084580826E-066
   119.580300000000        -3.063945721418757E-066
   119.819700000000        -3.532975689758083E-066
   120.059100000000        -3.594407977062605E-066
   120.298500000000        -3.016028222525671E-066
   120.537900000000        -1.561217289349668E-066
   120.777300000000         9.690509523791605E-067
   121.016700000000         4.679196329884663E-066
   121.256100000000         9.509852037746028E-066
   121.495500000000         1.516310166502395E-065
   121.734900000000         2.103313085169855E-065
   121.974300000000         2.615790140730155E-065
   122.213700000000         2.921150840889277E-065
   122.453100000000         2.855934713902177E-065
   122.692500000000         2.239785090398571E-065
   122.931900000000         8.996022438210902E-066
   123.171300000000        -1.295396407961048E-065
   123.410700000000        -4.388601796974194E-065
   123.650100000000        -8.284076146473909E-065
   123.889500000000        -1.269370534006557E-064
   124.128900000000        -1.709249153526276E-064
   124.368300000000        -2.069402036815360E-064
   124.607700000000        -2.246041279131386E-064
   124.847100000000        -2.116188970911081E-064
   125.086500000000        -1.549959099732508E-064
   125.325900000000        -4.300660222342471E-065
   125.565300000000         1.321384478754673E-064
   125.804700000000         3.710024602661417E-064
   126.044100000000         6.633123987501653E-064
   126.283500000000         9.845035370575867E-064
   126.522900000000         1.293096212175261E-063
   126.762300000000         1.529757917238545E-063
   127.001700000000         1.619012993279843E-063
   127.241100000000         1.474554800638118E-063
   127.480500000000         1.008938598834041E-063
   127.719900000000         1.480398000516479E-064
   127.959300000000        -1.149980064120267E-063
   128.198700000000        -2.872351760038418E-063
   128.438100000000        -4.928281138940282E-063
   128.677500000000        -7.127924626247031E-063
   128.916900000000        -9.168438757074231E-063
   129.156300000000        -1.063272273116340E-062
   129.395700000000        -1.100687985709422E-062
   129.635100000000        -9.721991658430897E-063
   129.874500000000        -6.224224092340394E-063
   130.113900000000        -7.432441508910506E-065
   130.353300000000         8.926898281936612E-063
   130.592700000000         2.059640191104666E-062
   130.832100000000         3.422628866106895E-062
   131.071500000000         4.846427823390195E-062
   131.310900000000         6.124743143600298E-062
   131.550300000000         6.982377222249748E-062
   131.789700000000         7.089716349093524E-062
   132.029100000000         6.092594387129081E-062
   132.268500000000         3.659381912532410E-062
   132.507900000000        -4.548793361700687E-063
   132.747300000000        -6.330356951734234E-062
   132.986700000000        -1.379700571553779E-061
   133.226100000000        -2.235261216665103E-061
   133.465500000000        -3.109915488803887E-061
   133.704900000000        -3.871573042863755E-061
   133.944300000000        -4.348817215477607E-061
   134.183700000000        -4.341489060674778E-061
   134.423100000000        -3.640443945315917E-061
   134.662500000000        -2.057207038008856E-061
   134.901900000000         5.370352871603833E-062
   135.141300000000         4.165411989466271E-061
   135.380700000000         8.696715649808425E-061
   135.620100000000         1.380079639045244E-060
   135.859500000000         1.891682087947617E-060
   136.098900000000         2.324484070249700E-060
   136.338300000000         2.577174277605379E-060
   136.577700000000         2.534177526459070E-060
   136.817100000000         2.077897658685754E-060
   137.056500000000         1.106362543140548E-060
   137.295900000000        -4.442852338019907E-061
   137.535300000000        -2.574002541046395E-060
   137.774700000000        -5.192469511485986E-060
   138.014100000000        -8.096024181806208E-060
   138.253500000000        -1.095287571278205E-059
   138.492900000000        -1.330227993313257E-059
   138.732300000000        -1.457347257421077E-059