  -1.79550000000000         0.000000000000000E+000
  -1.55610000000000         0.000000000000000E+000
  -1.31670000000000         0.000000000000000E+000
  -1.07730000000000         0.000000000000000E+000
 -0.837900000000000         0.000000000000000E+000
 -0.598500000000000         0.000000000000000E+000
 -0.359100000000000         0.000000000000000E+000
 -0.119700000000000         0.000000000000000E+000
  0.119700000000000         0.000000000000000E+000
  0.359100000000000         0.000000000000000E+000
  0.598500000000000         0.000000000000000E+000
  0.837900000000000         0.000000000000000E+000
   1.07730000000000         0.000000000000000E+000
   1.31670000000000         0.000000000000000E+000
   1.55610000000000         0.000000000000000E+000
   1.79550000000000         0.000000000000000E+000
   2.03490000000000         0.000000000000000E+000
   2.27430000000000         0.000000000000000E+000
   2.51370000000000         0.000000000000000E+000
   2.75310000000000         0.000000000000000E+000
   2.99250000000000         0.000000000000000E+000
   3.23190000000000         0.000000000000000E+000
   3.47130000000000         0.000000000000000E+000
   3.71070000000000         0.000000000000000E+000
   3.95010000000000         0.000000000000000E+000
   4.18950000000000         0.000000000000000E+000
   4.42890000000000         0.000000000000000E+000
   4.66830000000000         0.000000000000000E+000
   4.90770000000000         0.000000000000000E+000
   5.14710000000000         0.000000000000000E+000
   5.38650000000000         0.000000000000000E+000
   5.62590000000000         0.000000000000000E+000
   5.86530000000000         0.000000000000000E+000
   6.10470000000000         0.000000000000000E+000
   6.34410000000000         0.000000000000000E+000
   6.58350000000000         0.000000000000000E+000
   6.82290000000000         0.000000000000000E+000
   7.06230000000000         0.000000000000000E+000
   7.30170000000000         0.000000000000000E+000
   7.54110000000000         0.000000000000000E+000
   7.78050000000000         0.000000000000000E+000
   8.01990000000000         0.000000000000000E+000
   8.25930000000000         0.000000000000000E+000
   8.49870000000000         0.000000000000000E+000
   8.73810000000000         2.654906620830950E-186
   8.97750000000000        -3.324357835338644E-180
   9.21690000000000         4.240057718403127E-177
   9.45630000000000        -3.101777546185326E-173
   9.69570000000000        -1.814984490197634E-171
   9.93510000000000        -5.345159706631826E-170
   10.1745000000000        -1.107073692538399E-168
   10.4139000000000        -1.931495462230659E-167
   10.6533000000000        -3.132628962524813E-166
   10.8927000000000        -4.741695009337899E-165
   11.1321000000000        -6.366700321536988E-164
   11.3715000000000        -7.166609720832846E-163
   11.6109000000000        -6.317316049367186E-162
   11.8503000000000        -3.615405290325467E-161
   12.0897000000000         3.000213856552184E-161
   12.3291000000000         4.273220670970976E-159
   12.5685000000000         7.224144173240612E-158
   12.8079000000000         8.595948102789209E-157
   13.0473000000000         8.446152772988710E-156
   13.2867000000000         7.244303409634750E-155
   13.5261000000000         5.574846183813414E-154
   13.7655000000000         3.912563587555212E-153
   14.0049000000000         2.531600424765571E-152
   14.2443000000000         1.521909337330485E-151
   14.4837000000000         8.549320726815028E-151
   14.7231000000000         4.507228349390356E-150
   14.9625000000000         2.237443503351647E-149
   15.2019000000000         1.048369657151660E-148
   15.4413000000000         4.644276542663173E-148
   15.6807000000000         1.946962307804018E-147
   15.9201000000000         7.724561910851652E-147
   16.1595000000000         2.897902155354399E-146
   16.3989000000000         1.025744201852359E-145
   16.6383000000000         3.411605103906107E-145
   16.8777000000000         1.058509414797173E-144
   17.1171000000000         3.023912423373036E-144
   17.3565000000000         7.752476684782202E-144
   17.5959000000000         1.679947603401947E-143
   17.8353000000000         2.507353980132381E-143
   18.0747000000000        -1.049734114259557E-143
   18.3141000000000        -2.866010908192545E-142
   18.5535000000000        -1.520127185558779E-141
   18.7929000000000        -5.968593362037099E-141
   19.0323000000000        -1.990084241640253E-140
   19.2717000000000        -5.853594030112535E-140
   19.5111000000000        -1.526789425177553E-139
   19.7505000000000        -3.458226810150996E-139
   19.9899000000000        -6.320021152510520E-139
   20.2293000000000        -6.714810227955381E-139
   20.4687000000000         1.156047168433823E-138
   20.7081000000000         1.034731177938421E-137
   20.9475000000000         4.220540250233508E-137
   21.1869000000000         1.323685053326779E-136
   21.4263000000000         3.464202990368680E-136
   21.6657000000000         7.536430517503967E-136
   21.9051000000000         1.235930849946415E-135
   22.1445000000000         7.535580949839127E-136
   22.3839000000000        -4.868661928424718E-135
   22.6233000000000        -2.858044301710803E-134
   22.8627000000000        -1.042918211603366E-133
   23.1021000000000        -3.079586591386058E-133
   23.3415000000000        -7.795083992580186E-133
   23.5809000000000        -1.695736688238175E-132
   23.8203000000000        -3.019618252154918E-132
   24.0597000000000        -3.541805502240703E-132
   24.2991000000000         1.921860886305412E-132
   24.5385000000000         2.942821099611452E-131
   24.7779000000000         1.204067617642402E-130
   25.0173000000000         3.666696512491470E-130
   25.2567000000000         9.397081213079189E-130
   25.4961000000000         2.082786037381212E-129
   25.7355000000000         3.923756838694217E-129
   25.9749000000000         5.726935536615556E-129
   26.2143000000000         3.714345399922559E-129
   26.4537000000000        -1.423905805068618E-128
   26.6931000000000        -7.973756942964014E-128
   26.9325000000000        -2.636711550500741E-127
   27.1719000000000        -7.034350139663426E-127
   27.4113000000000        -1.619316489325343E-126
   27.6507000000000        -3.253406887156888E-126
   27.8901000000000        -5.550606150259145E-126
   28.1295000000000        -7.171483117339616E-126
   28.3689000000000        -3.032232015302655E-126
   28.6083000000000         2.096471622718981E-125
   28.8477000000000         9.771006483877280E-125
   29.0871000000000         2.940491262642092E-124
   29.3265000000000         7.275983043389803E-124
   29.5659000000000         1.567688037884323E-123
   29.8053000000000         2.970114113893504E-123
   30.0447000000000         4.829016442404211E-123
   30.2841000000000         6.113944626834124E-123
   30.5235000000000         3.396054387467894E-123
   30.7629000000000        -1.198817156245798E-122
   31.0023000000000        -5.863031711811218E-122
   31.2417000000000        -1.713146395288430E-121
   31.4811000000000        -4.060047140276436E-121
   31.7205000000000        -8.344817483382224E-121
   31.9599000000000        -1.506912611796206E-120
   32.1993000000000        -2.338521446300114E-120
   32.4387000000000        -2.844196188635281E-120
   32.6781000000000        -1.609972206611257E-120
   32.9175000000000         4.618200683916107E-120
   33.1569000000000         2.225804062342333E-119
   33.3963000000000         6.232086618468994E-119
   33.6357000000000         1.408044288393422E-118
   33.8751000000000         2.751910613896128E-118
   34.1145000000000         4.711857269862055E-118
   34.3539000000000         6.893502686391688E-118
   34.5933000000000         7.760874786574255E-118
   34.8327000000000         3.405118638492259E-118
   35.0721000000000        -1.434373844497513E-117
   35.3115000000000        -6.025967294318386E-117
   35.5509000000000        -1.574890376677153E-116
   35.7903000000000        -3.360031831439458E-116
   36.0297000000000        -6.219714090763106E-116
   36.2691000000000        -1.007724314074308E-115
   36.5085000000000        -1.386392668827171E-115
   36.7479000000000        -1.431057577075669E-115
   36.9873000000000        -4.012515543017835E-116
   37.2267000000000         3.118276642276634E-115
   37.4661000000000         1.148043057252177E-114
   37.7055000000000         2.804494735496018E-114
   37.9449000000000         5.662814541602671E-114
   38.1843000000000         9.955432085626730E-114
   38.4237000000000         1.530801674618860E-113
   38.6631000000000         1.985580259298330E-113
   38.9025000000000         1.877022905915411E-113
   39.1419000000000         2.144283296825407E-114
   39.3813000000000        -4.747013957700716E-113
   39.6207000000000        -1.568276383802820E-112
   39.8601000000000        -3.606501645695567E-112
   40.0995000000000        -6.926532842411932E-112
   40.3389000000000        -1.161608686426972E-111
   40.5783000000000        -1.702286317573096E-111
   40.8177000000000        -2.089981212072464E-111
   41.0571000000000        -1.811320667664345E-111
   41.2965000000000         1.010350140065264E-112
   41.5359000000000         5.227965248858112E-111
   41.7753000000000         1.581238497988760E-110
   42.0147000000000         3.449022029642726E-110
   42.2541000000000         6.335953200514423E-110
   42.4935000000000         1.018916791991323E-109
   42.7329000000000         1.430876245380432E-109
   42.9723000000000         1.673649258025272E-109
   43.2117000000000         1.341513584086876E-109
   43.4511000000000        -2.761241281444099E-110
   43.6905000000000        -4.264933923244630E-109
   43.9299000000000        -1.205668708955047E-108
   44.1693000000000        -2.517189485094173E-108
   44.4087000000000        -4.454000541478561E-108
   44.6481000000000        -6.914758944477230E-108
   44.8875000000000        -9.375986084066487E-108
   45.1269000000000        -1.055775285962368E-107
   45.3663000000000        -8.003571047102912E-108
   45.6057000000000         2.333998859429649E-108
   45.8451000000000         2.628957524262232E-107
   46.0845000000000         7.107192733452160E-107
   46.3239000000000         1.436241980259491E-106
   46.5633000000000         2.469108055197930E-106
   46.8027000000000         3.731562474178421E-106
   47.0421000000000         4.932212753191357E-106
   47.2815000000000         5.420412921052012E-106
   47.5209000000000         4.017605739019774E-106
   47.7603000000000        -1.126879854224986E-106
   47.9997000000000        -1.255933578196432E-105
   48.2391000000000        -3.326186519845951E-105
   48.4785000000000        -6.587018683038791E-105
   48.7179000000000        -1.110645281455740E-104
   48.9573000000000        -1.648162470626995E-104
   49.1967000000000        -2.142815672378155E-104
   49.4361000000000        -2.324637020132073E-104
   49.6755000000000        -1.724401953575722E-104
   49.9149000000000         3.689969483953446E-105
   50.1543000000000         4.899636567352655E-104
   50.3937000000000         1.292576386638269E-103
   50.6331000000000         2.530930837898174E-103
   50.8725000000000         4.211493553265332E-103
   51.1119000000000         6.162429773728807E-103
   51.3513000000000         7.892072098089772E-103
   51.5907000000000         8.412751448370687E-103
   51.8301000000000         6.062941692865610E-103
   52.0695000000000        -1.599066348071901E-103
   52.3089000000000        -1.769915061956616E-102
   52.5483000000000        -4.554698000580008E-102
   52.7877000000000        -8.745862107819779E-102
   53.0271000000000        -1.425909068873488E-101
   53.2665000000000        -2.035261899225847E-101
   53.5059000000000        -2.515716240249226E-101
   53.7453000000000        -2.512561269563330E-101
   53.9847000000000        -1.454542361423441E-101
   54.2241000000000         1.459523740130940E-101
   54.4635000000000         7.189461487401939E-101
   54.7029000000000         1.662533502545214E-100
   54.9423000000000         3.011021245344106E-100
   55.1817000000000         4.662065903836021E-100
   55.4211000000000         6.255031600448130E-100
   55.6605000000000         7.015453088126855E-100
   55.8999000000000         5.594175081086678E-100
   56.1393000000000        -3.194783002528703E-102
   56.3787000000000        -1.247514978488263E-099
   56.6181000000000        -3.447559892057010E-099
   56.8575000000000        -6.780378786921839E-099
   57.0969000000000        -1.112325162204788E-098
   57.3363000000000        -1.573440482015899E-098
   57.5757000000000        -1.881805231364860E-098
   57.8151000000000        -1.702886654612983E-098
   58.0545000000000        -5.067925971075686E-099
   58.2939000000000         2.432950902901784E-098
   58.5333000000000         7.951830182067589E-098
   58.7727000000000         1.674709166894056E-097
   59.0121000000000         2.888446421206841E-097
   59.2515000000000         4.297702904764326E-097
   59.4909000000000         5.500129660091058E-097
   59.7303000000000         5.683546769704508E-097
   59.9697000000000         3.483304683344753E-097
   60.2091000000000        -3.088882427946006E-097
   60.4485000000000        -1.652580942545735E-096
   60.6879000000000        -3.933660670827053E-096
   60.9273000000000        -7.295712215817770E-096
   61.1667000000000        -1.158097657400229E-095
   61.4061000000000        -1.603346948838605E-095
   61.6455000000000        -1.890452124668507E-095
   61.8849000000000        -1.701395254069389E-095
   62.1243000000000        -5.401375184693428E-096
   62.3637000000000         2.267898337419145E-095
   62.6031000000000         7.501650495354899E-095
   62.8425000000000         1.583976925915048E-094
   63.0819000000000         2.745973743968895E-094
   63.3213000000000         4.138070887135835E-094
   63.5607000000000         5.452668336069582E-094
   63.8001000000000         6.057393105569822E-094
   64.0395000000000         4.880547263265296E-094
   64.2789000000000         3.441244030980807E-095
   64.5183000000000        -9.575718842241799E-094
   64.7577000000000        -2.704324323879794E-093
   64.9971000000000        -5.366289267089436E-093
   65.2365000000000        -8.922552423140290E-093
   65.4759000000000        -1.297856825787625E-092
   65.7153000000000        -1.650887938814142E-092
   65.9547000000000        -1.756372818205121E-092
   66.1941000000000        -1.301305561731699E-092
   66.4335000000000         1.534943627774085E-093
   66.6729000000000         3.142493156000894E-092
   66.9123000000000         8.195988419656298E-092
   67.1517000000000         1.563737883035637E-091
   67.3911000000000         2.524480189899411E-091
   67.6305000000000         3.576147097559474E-091
   67.8699000000000         4.427845022480204E-091
   68.1093000000000         4.558423935571670E-091
   68.3487000000000         3.168305440109818E-091
   68.5881000000000        -8.173946130130027E-092
   68.8275000000000        -8.643954312233167E-091
   69.0669000000000        -2.145586651487484E-090
   69.3063000000000        -3.979000952079626E-090
   69.5457000000000        -6.277851538553656E-090
   69.7851000000000        -8.705487692115489E-090
   70.0245000000000        -1.054538775294680E-089
   70.2639000000000        -1.057549047820233E-089
   70.5033000000000        -6.994321699129637E-090
   70.7427000000000         2.525993009610606E-090
   70.9821000000000         2.055656940184508E-089
   71.2215000000000         4.927554937368825E-089
   71.4609000000000         8.935934470703910E-089
   71.7003000000000         1.383285474381272E-088
   71.9397000000000         1.883898773942782E-088
   72.1791000000000         2.240209554957033E-088
   72.4185000000000         2.198564737773905E-088
   72.6579000000000         1.398461618847601E-088
   72.8973000000000        -6.087793210825387E-089
   73.1367000000000        -4.295675583679941E-088
   73.3761000000000        -1.002806237616215E-087
   73.6155000000000        -1.785081096171805E-087
   73.8549000000000        -2.718337243477051E-087
   74.0943000000000        -3.644177448095022E-087
   74.3337000000000        -4.264163427585801E-087
   74.5731000000000        -4.109048767722016E-087
   74.8125000000000        -2.534397498323281E-087
   75.0519000000000         1.233086887634772E-087
   75.2913000000000         7.969011800894107E-087
   75.5307000000000         1.821455379454807E-086
   75.7701000000000         3.190794313626608E-086
   76.0095000000000         4.788468067931490E-086
   76.2489000000000         6.328744758291873E-086
   76.4883000000000         7.298840809543593E-086
   76.7277000000000         6.920847373342669E-086
   76.9671000000000         4.161189591992016E-086
   77.2065000000000        -2.175818147711506E-086
   77.4459000000000        -1.322882966942877E-085
   77.6853000000000        -2.969665749099125E-085
   77.9247000000000        -5.127116449513321E-085
   78.1641000000000        -7.590278317982491E-085
   78.4035000000000        -9.897820862102710E-085
   78.6429000000000        -1.125789772371701E-084
   78.8823000000000        -1.051002270442256E-084
   79.1217000000000        -6.162555041647209E-085
   79.3611000000000         3.445259963880127E-085
   79.6005000000000         1.980519200323052E-084
   79.8399000000000         4.368459254718072E-084
   80.0793000000000         7.434225515419716E-084
   80.3187000000000         1.085602843623353E-083
   80.5581000000000         1.396229235350328E-083
   80.7975000000000         1.564880528593375E-083
   81.0369000000000         1.435294242291460E-083
   81.2763000000000         8.135357509763906E-084
   81.5157000000000        -5.072540210524699E-084
   81.7551000000000        -2.699942663737454E-083
   81.9945000000000        -5.830706008871975E-083
   82.2339000000000        -9.761357764821988E-083
   82.4733000000000        -1.403498157649418E-082
   82.7127000000000        -1.776377040287892E-082
   82.9521000000000        -1.955115799312055E-082
   83.1915000000000        -1.749427304290924E-082
   83.4309000000000        -9.324186799671405E-083
   83.6703000000000         7.254562723679768E-083
   83.9097000000000         3.397349358675835E-082
   84.1491000000000         7.113784532962528E-082
   84.3885000000000         1.165296937161269E-081
   84.6279000000000         1.642030328784144E-081
   84.8673000000000         2.034151893585109E-081
   85.1067000000000         2.180736330694079E-081
   85.3461000000000         1.872042627686967E-081
   85.5855000000000         8.702708125023291E-082
   85.8249000000000        -1.047962202854248E-081
   86.0643000000000        -4.023649209527816E-081
   86.3037000000000        -8.022298578553222E-081
   86.5431000000000        -1.272299692621323E-080
   86.7825000000000        -1.740658421402709E-080
   87.0219000000000        -2.087166260928170E-080
   87.2613000000000        -2.141929635059772E-080
   87.5007000000000        -1.695678608983738E-080
   87.7401000000000        -5.273520176034371E-081
   87.9795000000000         1.546773647337148E-080
   88.2189000000000         4.600834702100403E-080
   88.4583000000000         8.507460443936197E-080
   88.6977000000000         1.283711550731029E-079
   88.9371000000000         1.676923306103114E-079
   89.1765000000000         1.904624758595554E-079
   89.4159000000000         1.801105447221922E-079
   89.6553000000000         1.177341346783032E-079
   89.8947000000000        -1.452893836500594E-080
   90.1341000000000        -2.281754833169901E-079
   90.3735000000000        -5.211634150753648E-079
   90.6129000000000        -8.695517404179605E-079
   90.8523000000000        -1.219367278509828E-078
   91.0917000000000        -1.480988371549023E-078
   91.3311000000000        -1.529190742431595E-078
   91.5705000000000        -1.212593851460222E-078
   91.8099000000000        -3.762486183829073E-079
   92.0493000000000         1.099871828979743E-078
   92.2887000000000         3.246069368150426E-078
   92.5281000000000         5.935413929369018E-078
   92.7675000000000         8.812869543307950E-078
   93.0069000000000         1.123746675318211E-077
   93.2463000000000         1.226140323832334E-077
   93.4857000000000         1.067613400650368E-077
   93.7251000000000         5.157955122772192E-078
   93.9645000000000        -5.458793615736197E-078
   94.2039000000000        -2.176732527427019E-077
   94.4433000000000        -4.324684695850549E-077
   94.6827000000000        -6.765007730009921E-077
   94.9221000000000        -9.043154690311571E-077
   95.1615000000000        -1.043916886832405E-076
   95.4009000000000        -9.977187974011741E-077
   95.6403000000000        -6.507535230486374E-077
   95.8797000000000         1.111498767523912E-077
   96.1191000000000         1.371255541954748E-076
   96.3585000000000         3.139642861890919E-076
   96.5979000000000         5.301430885602385E-076
   96.8373000000000         7.562297501287401E-076
   97.0767000000000         9.403184273362997E-076
   97.3161000000000         1.006152199834154E-075
   97.5555000000000         8.560988543118929E-076
   97.7949000000000         3.814091308952831E-076
   98.0343000000000        -5.180318897938583E-076
   98.2737000000000        -1.903143830763579E-075
   98.5131000000000        -3.754743890065103E-075
   98.7525000000000        -5.925551215815763E-075
   98.9919000000000        -8.092136719735489E-075
   99.2313000000000        -9.718325479580392E-075
   99.4707000000000        -1.004610432980676E-074
   99.7101000000000        -8.133680106765868E-075
   99.9495000000000        -2.961545773179873E-075
   100.188900000000         6.375502194829547E-075
   100.428300000000         2.038133864807318E-074
   100.667700000000         3.878386722580827E-074
   100.907100000000         6.010496522580650E-074
   101.146500000000         8.123978251727447E-074
   101.385900000000         9.714771773204954E-074
   101.625300000000         1.007944244592778E-073
   101.864700000000         8.351202649428404E-074
   102.104100000000         3.595161182830074E-074
   102.343500000000        -5.022592292305260E-074
   102.582900000000        -1.798518545042785E-073
   102.822300000000        -3.510139460145220E-073
   103.061700000000        -5.513572303312500E-073
   103.301100000000        -7.544600355159578E-073
   103.540500000000        -9.171255880977699E-073
   103.779900000000        -9.787236854102488E-073
   104.019300000000        -8.639356020266090E-073
   104.258700000000        -4.903080750527831E-073
   104.498100000000         2.181972196785276E-073
   104.737500000000         1.311071581453908E-072
   104.976900000000         2.785023938265259E-072
   105.216300000000         4.553692230063259E-072
   105.455700000000         6.417377344619339E-072
   105.695100000000         8.039184465292230E-072
   105.934500000000         8.936222542077147E-072
   106.173900000000         8.496238349314735E-072
   106.413300000000         6.030590472266739E-072
   106.652700000000         8.730335087351470E-073
   106.892100000000        -7.470394669962040E-072
   107.131500000000        -1.912264544771417E-071
   107.370900000000        -3.360157537237329E-071
   107.610300000000        -4.957856821502603E-071
   107.849700000000        -6.467471136059595E-071
   108.089100000000        -7.535615559705895E-071
   108.328500000000        -7.700368415641936E-071
   108.567900000000        -6.423704876248553E-071
   108.807300000000        -3.156703884340904E-071
   109.046700000000         2.557785613468261E-071
   109.286100000000         1.094524729178923E-070
   109.525500000000         2.183004564121482E-070
   109.764900000000         3.445393015414910E-070
   110.004300000000         4.731153120574656E-070
   110.243700000000         5.804372177390619E-070
   110.483100000000         6.343973043749318E-070
   110.722500000000         5.960420584578608E-070
   110.961900000000         4.234264314869298E-070
   111.201300000000         7.804131355309857E-071
   111.440700000000        -4.660882987853295E-070
   111.680100000000        -1.210994812932118E-069
   111.919500000000        -2.122028803744067E-069
   112.158900000000        -3.115511961659601E-069
   112.398300000000        -4.049293772403522E-069
   112.637700000000        -4.719431417129069E-069
   112.877100000000        -4.866667670636928E-069
   113.116500000000        -4.196376301906880E-069
   113.355900000000        -2.414956467739431E-069
   113.595300000000         7.159150369738903E-070
   113.834700000000         5.308356545784094E-069
   114.074100000000         1.126548350337167E-068
   114.313500000000         1.819602110901319E-068
   114.552900000000         2.534053029058015E-068
   114.792300000000         3.152812929883879E-068
   115.031700000000         3.518607043164418E-068
   115.271100000000         3.442561812261215E-068
   115.510500000000         2.722506649934962E-068
   115.749900000000         1.172319329629700E-068
   115.989300000000        -1.337694677003408E-068
   116.228700000000        -4.831352452417307E-068
   116.468100000000        -9.172538438171749E-068
   116.707500000000        -1.401386377172667E-067
   116.946900000000        -1.875822560983213E-067
   117.186300000000        -2.254583032626349E-067
   117.425700000000        -2.428050378999223E-067
   117.665100000000        -2.270853763335528E-067
   117.904500000000        -1.656020473600365E-067
   118.143900000000        -4.757845310685657E-068
   118.383300000000         1.331520779937022E-067
   118.622700000000         3.750345133033892E-067
   118.862100000000         6.655963842425960E-067
   119.101500000000         9.786678922473567E-067
   119.340900000000         1.272663693141977E-066
   119.580300000000         1.490672020854069E-066
   119.819700000000         1.563114201753057E-066
   120.059100000000         1.413635243301394E-066
   120.298500000000         9.686314405301647E-067
   120.537900000000         1.703933313916365E-067
   120.777300000000        -1.006758212230965E-066
   121.016700000000        -2.538709864446355E-066
   121.256100000000        -4.334360177702135E-066
   121.495500000000        -6.221986199961017E-066
   121.734900000000        -7.942810168728117E-066
   121.974300000000        -9.155716995029957E-066
   122.213700000000        -9.456877757413779E-066
   122.453100000000        -8.417164196258628E-066
   122.692500000000        -5.638572945994329E-066
   122.931900000000        -8.283762854570271E-067
   123.171300000000         6.113542750503661E-066
   123.410700000000         1.500250078107539E-065
   123.650100000000         2.528422061801738E-065
   123.889500000000         3.597317726458526E-065
   124.128900000000         4.563219504365073E-065
   124.368300000000         5.241188168254645E-065
   124.607700000000         5.416631722427208E-065
   124.847100000000         4.865600393315138E-065
   125.086500000000         3.384011600719093E-065
   125.325900000000         8.247688214111569E-066
   125.565300000000        -2.859776609149755E-065
   125.804700000000        -7.574229396046733E-065
   126.044100000000        -1.304123298845175E-064
   126.283500000000        -1.877434512261553E-064
   126.522900000000        -2.407053415853482E-064
   126.762300000000        -2.802996701164341E-064
   127.001700000000        -2.960948885529246E-064
   127.241100000000        -2.771365780603364E-064
   127.480500000000        -2.132337853058747E-064
   127.719900000000        -9.657237032523046E-065
   127.959300000000         7.645067516872716E-065
   128.198700000000         3.033371694748820E-064
   128.438100000000         5.737613648436472E-064
   128.677500000000         8.682678235358442E-064
   128.916900000000         1.157674218864173E-063
   129.156300000000         1.403452002281116E-063
   129.395700000000         1.559317918922235E-063
   129.635100000000         1.574196165290998E-063
   129.874500000000         1.396607498921810E-063
   130.113900000000         9.804145898673552E-064
   130.353300000000         2.917120112516237E-064
   130.592700000000        -6.834946558168630E-064
   130.832100000000        -1.931313388732964E-063
   131.071500000000        -3.402311323609225E-063
   131.310900000000        -5.004910330035897E-063
   131.550300000000        -6.600666236690054E-063
   131.789700000000        -8.002374521033978E-063
   132.029100000000        -8.976070930213870E-063
   132.268500000000        -9.248143294406908E-063
   132.507900000000        -8.518929708344320E-063
   132.747300000000        -6.484308952612358E-063
   132.986700000000        -2.866812970024099E-063
   133.226100000000         2.542416019003805E-063
   133.465500000000         9.830108215443314E-063
   133.704900000000         1.889627836042464E-062
   133.944300000000         2.938105685715689E-062
   134.183700000000         4.058836920054506E-062
   134.423100000000         5.141579736888846E-062
   134.662500000000         6.030464965504865E-062
   134.901900000000         6.522928646969382E-062
   135.141300000000         6.374928620187238E-062
   135.380700000000         5.315089037916323E-062
   135.620100000000         3.070379088222743E-062
   135.859500000000        -5.946070545774780E-063
   136.098900000000        -5.823921849844042E-062
   136.338300000000        -1.260328544225044E-061
   136.577700000000        -2.068398870276135E-061
   136.817100000000        -2.950556559613081E-061
   137.056500000000        -3.812943860574627E-061
   137.295900000000        -4.520012509333673E-061
   137.535300000000        -4.895428986370496E-061
   137.774700000000        -4.729993538581685E-061
   138.014100000000        -3.798714324085728E-061
   138.253500000000        -1.888676206352026E-061
   138.492900000000         1.161684648834367E-061
   138.732300000000         5.412917305436684E-061