  -1.79550000000000         0.000000000000000E+000
  -1.55610000000000         0.000000000000000E+000
  -1.31670000000000         0.000000000000000E+000
  -1.07730000000000         0.000000000000000E+000
 -0.837900000000000         0.000000000000000E+000
 -0.598500000000000         0.000000000000000E+000
 -0.359100000000000         0.000000000000000E+000
 -0.119700000000000         0.000000000000000E+000
  0.119700000000000         0.000000000000000E+000
  0.359100000000000         0.000000000000000E+000
  0.598500000000000         0.000000000000000E+000
  0.837900000000000         0.000000000000000E+000
   1.07730000000000         0.000000000000000E+000
   1.31670000000000         0.000000000000000E+000
   1.55610000000000         0.000000000000000E+000
   1.79550000000000         0.000000000000000E+000
   2.03490000000000         0.000000000000000E+000
   2.27430000000000         0.000000000000000E+000
   2.51370000000000         0.000000000000000E+000
   2.75310000000000         0.000000000000000E+000
   2.99250000000000         0.000000000000000E+000
   3.23190000000000         0.000000000000000E+000
   3.47130000000000         0.000000000000000E+000
   3.71070000000000         0.000000000000000E+000
   3.95010000000000         0.000000000000000E+000
   4.18950000000000         0.000000000000000E+000
   4.42890000000000         0.000000000000000E+000
   4.66830000000000         0.000000000000000E+000
   4.90770000000000         0.000000000000000E+000
   5.14710000000000         0.000000000000000E+000
   5.38650000000000         0.000000000000000E+000
   5.62590000000000         0.000000000000000E+000
   5.86530000000000         0.000000000000000E+000
   6.10470000000000         0.000000000000000E+000
   6.34410000000000         0.000000000000000E+000
   6.58350000000000         0.000000000000000E+000
   6.82290000000000         0.000000000000000E+000
   7.06230000000000         0.000000000000000E+000
   7.30170000000000         0.000000000000000E+000
   7.54110000000000         0.000000000000000E+000
   7.78050000000000         0.000000000000000E+000
   8.01990000000000         0.000000000000000E+000
   8.25930000000000         0.000000000000000E+000
   8.49870000000000         0.000000000000000E+000
   8.73810000000000        -3.752323959661998E-187
   8.97750000000000         3.217509879167612E-180
   9.21690000000000         1.173711450548373E-177
   9.45630000000000        -2.806954844363869E-173
   9.69570000000000        -1.606063224470327E-171
   9.93510000000000        -4.383354960190362E-170
   10.1745000000000        -7.597745262558617E-169
   10.4139000000000        -9.634197776281005E-168
   10.6533000000000        -1.049210961857588E-166
   10.8927000000000        -1.215601934804973E-165
   11.1321000000000        -1.595185311278982E-164
   11.3715000000000        -1.990723733024896E-163
   11.6109000000000        -1.946927120865715E-162
   11.8503000000000        -1.112400421567946E-161
   12.0897000000000         4.550038674339321E-161
   12.3291000000000         2.297470022084746E-159
   12.5685000000000         3.833088061623271E-158
   12.8079000000000         4.659626021687008E-157
   13.0473000000000         4.693779404837267E-156
   13.2867000000000         4.118362984036522E-155
   13.5261000000000         3.230981976931399E-154
   13.7655000000000         2.303420890402150E-153
   14.0049000000000         1.508714319930873E-152
   14.2443000000000         9.150905387133730E-152
   14.4837000000000         5.170024172078372E-151
   14.7231000000000         2.732804230040875E-150
   14.9625000000000         1.355923100396917E-149
   15.2019000000000         6.329607631867965E-149
   15.4413000000000         2.783861269033835E-148
   15.6807000000000         1.154133788079847E-147
   15.9201000000000         4.507553429986346E-147
   16.1595000000000         1.655113680472449E-146
   16.3989000000000         5.690488798074160E-146
   16.6383000000000         1.818338689455869E-145
   16.8777000000000         5.326526989079437E-145
   17.1171000000000         1.391596770174588E-144
   17.3565000000000         3.034991271421813E-144
   17.5959000000000         4.338639834183741E-144
   17.8353000000000        -3.867292651976637E-144
   18.0747000000000        -6.373423583252650E-143
   18.3141000000000        -3.306468290831039E-142
   18.5535000000000        -1.299444082733244E-141
   18.7929000000000        -4.356971492617517E-141
   19.0323000000000        -1.288734512187237E-140
   19.2717000000000        -3.370932941458692E-140
   19.5111000000000        -7.603872248791850E-140
   19.7505000000000        -1.355905186040487E-139
   19.9899000000000        -1.229248186264896E-139
   20.2293000000000         3.760652716844806E-139
   20.4687000000000         2.765324104418539E-138
   20.7081000000000         1.099855662804418E-137
   20.9475000000000         3.453054835086494E-137
   21.1869000000000         9.191049407901986E-137
   21.4263000000000         2.083615655019987E-136
   21.6657000000000         3.816368323355261E-136
   21.9051000000000         4.411282191600058E-136
   22.1445000000000        -3.785430309786880E-136
   22.3839000000000        -4.489054145149814E-135
   22.6233000000000        -1.804581258318048E-134
   22.8627000000000        -5.388665654170478E-134
   23.1021000000000        -1.318074127792471E-133
   23.3415000000000        -2.617013873547912E-133
   23.5809000000000        -3.659590702242580E-133
   23.8203000000000        -3.302663754641165E-134
   24.0597000000000         2.121332024538921E-132
   24.2991000000000         9.846217070212708E-132
   24.5385000000000         3.171673548423805E-131
   24.7779000000000         8.403326870465727E-131
   25.0173000000000         1.897508761848154E-130
   25.2567000000000         3.580936599486770E-130
   25.4961000000000         5.033399238121013E-130
   25.7355000000000         2.084470853157708E-130
   25.9749000000000        -1.846890177019912E-129
   26.2143000000000        -9.064489733580030E-129
   26.4537000000000        -2.892863488713011E-128
   26.6931000000000        -7.538754160965962E-128
   26.9325000000000        -1.687763995288326E-127
   27.1719000000000        -3.239384123555265E-127
   27.4113000000000        -5.024172351723803E-127
   27.6507000000000        -4.758292692524006E-127
   27.8901000000000         4.990374004704103E-127
   28.1295000000000         4.347377788897728E-126
   28.3689000000000         1.534898802854605E-125
   28.6083000000000         4.178422974360321E-125
   28.8477000000000         9.724544795992461E-125
   29.0871000000000         1.987008375779020E-124
   29.3265000000000         3.537072381488184E-124
   29.5659000000000         5.202514014740988E-124
   29.8053000000000         5.084863113918200E-124
   30.0447000000000        -2.234174804080505E-124
   30.2841000000000        -2.934021996489658E-123
   30.5235000000000        -1.013848097410519E-122
   30.7629000000000        -2.616713666796895E-122
   31.0023000000000        -5.712592897568042E-122
   31.2417000000000        -1.086364921044620E-121
   31.4811000000000        -1.778651740005516E-121
   31.7205000000000        -2.334184627009015E-121
   31.9599000000000        -1.731225874929025E-121
   32.1993000000000         2.522832334670128E-121
   32.4387000000000         1.555888056285694E-120
   32.6781000000000         4.651823250825142E-120
   32.9175000000000         1.092206778569745E-119
   33.1569000000000         2.196952083200698E-119
   33.3963000000000         3.853551365840098E-119
   33.6357000000000         5.762798407159689E-119
   33.8751000000000         6.637548215456548E-119
   34.1145000000000         3.076119497997725E-119
   34.3539000000000        -1.220843966455371E-118
   34.5933000000000        -5.264462477353967E-118
   34.8327000000000        -1.395916159470874E-117
   35.0721000000000        -3.010148176786085E-117
   35.3115000000000        -5.613418996112957E-117
   35.5509000000000        -9.120801959751776E-117
   35.7903000000000        -1.246902513445096E-116
   36.0297000000000        -1.240331337123451E-116
   36.2691000000000        -1.522515824610680E-117
   36.5085000000000         3.435729621410495E-116
   36.7479000000000         1.187914328303173E-115
   36.9873000000000         2.850898586698320E-115
   37.2267000000000         5.697710988275513E-115
   37.4661000000000         9.904154363896905E-115
   37.7055000000000         1.494248997579680E-114
   37.9449000000000         1.859469111294069E-114
   38.1843000000000         1.532105065950163E-114
   38.4237000000000        -6.040310009762038E-115
   38.6631000000000        -6.482984733739846E-114
   38.9025000000000        -1.900217811344816E-113
   39.1419000000000        -4.175214612630997E-113
   39.3813000000000        -7.776241105621455E-113
   39.6207000000000        -1.263568600833331E-112
   39.8601000000000        -1.768929910946628E-112
   40.0995000000000        -1.981064268595157E-112
   40.3389000000000        -1.224849351570277E-112
   40.5783000000000         1.726234491263709E-112
   40.8177000000000         8.804297732086011E-112
   41.0571000000000         2.260760368074000E-111
   41.2965000000000         4.586585048628036E-111
   41.5359000000000         7.992020251918810E-111
   41.7753000000000         1.215371090731187E-110
   42.0147000000000         1.572943934649436E-110
   42.2541000000000         1.550333443970261E-110
   42.4935000000000         5.283944666616404E-111
   42.7329000000000        -2.517609079511225E-110
   42.9723000000000        -9.055801632077526E-110
   43.2117000000000        -2.083190067426772E-109
   43.4511000000000        -3.927816355873315E-109
   43.6905000000000        -6.418001254601459E-109
   43.9299000000000        -9.122478396488409E-109
   44.1693000000000        -1.081243325039570E-108
   44.4087000000000        -8.934631564310404E-109
   44.6481000000000         9.674918766508187E-110
   44.8875000000000         2.563859659335913E-108
   45.1269000000000         7.379858897056566E-108
   45.3663000000000         1.542715056968639E-107
   45.6057000000000         2.712885631919739E-107
   45.8451000000000         4.153902631897880E-107
   46.0845000000000         5.484522343610164E-107
   46.3239000000000         5.823929672783413E-107
   46.5633000000000         3.538601068670160E-107
   46.8027000000000        -3.974139184325507E-107
   47.0421000000000        -2.029967306954574E-106
   47.2815000000000        -4.952342470413454E-106
   47.5209000000000        -9.480741311766606E-106
   47.7603000000000        -1.554511759153905E-105
   47.9997000000000        -2.218486725100901E-105
   48.2391000000000        -2.680220707526867E-105
   48.4785000000000        -2.422119734569040E-105
   48.7179000000000        -5.764139857286878E-106
   48.9573000000000         4.116512145787272E-105
   49.1967000000000         1.320966647704054E-104
   49.4361000000000         2.817157947133824E-104
   49.6755000000000         4.954285330074909E-104
   49.9149000000000         7.542419607373900E-104
   50.1543000000000         9.915407114115343E-104
   50.3937000000000         1.062446355307475E-103
   50.6331000000000         7.109614503575002E-104
   50.8725000000000        -4.520517910961456E-104
   51.1119000000000        -2.935329652926859E-103
   51.3513000000000        -7.278574308522062E-103
   51.5907000000000        -1.383438906796975E-102
   51.8301000000000        -2.235865078348682E-102
   52.0695000000000        -3.135899150010943E-102
   52.3089000000000        -3.720152045309891E-102
   52.5483000000000        -3.308970882527230E-102
   52.7877000000000        -8.232173858441262E-103
   53.0271000000000         5.217606435989501E-102
   53.2665000000000         1.651343930350296E-101
   53.5059000000000         3.447343770520015E-101
   53.7453000000000         5.920556646538122E-101
   53.9847000000000         8.785183912692059E-101
   54.2241000000000         1.122244574216758E-100
   54.4635000000000         1.159603385803886E-100
   54.7029000000000         7.189204460124294E-101
   54.9423000000000        -5.892245798800238E-101
   55.1817000000000        -3.240784861502961E-100
   55.4211000000000        -7.690912437332139E-100
   55.6605000000000        -1.414710118574769E-099
   55.8999000000000        -2.218064063508119E-099
   56.1393000000000        -3.015536523890694E-099
   56.3787000000000        -3.450770155980491E-099
   56.6181000000000        -2.901626782418648E-099
   56.8575000000000        -4.364544826826877E-100
   57.0969000000000         5.147452488583800E-099
   57.3363000000000         1.512453869662994E-098
   57.5757000000000         3.038040532106816E-098
   57.8151000000000         5.058557885959309E-098
   58.0545000000000         7.293474892297298E-098
   58.2939000000000         9.048692889434542E-098
   58.5333000000000         9.034846443489570E-098
   58.7727000000000         5.227718784390089E-098
   59.0121000000000        -5.124298440008013E-098
   59.2515000000000        -2.518474551381456E-097
   59.4909000000000        -5.769285446926406E-097
   59.7303000000000        -1.033717791147519E-096
   59.9697000000000        -1.583957042417276E-096
   60.2091000000000        -2.109074994266174E-096
   60.4485000000000        -2.369504975430525E-096
   60.6879000000000        -1.968043169514993E-096
   60.9273000000000        -3.361749615653844E-097
   61.1667000000000         3.226547929968881E-096
   61.4061000000000         9.418860318078734E-096
   61.6455000000000         1.866190683779094E-095
   61.8849000000000         3.063804791283580E-095
   62.1243000000000         4.362792397726706E-095
   62.3637000000000         5.369005988150848E-095
   62.6031000000000         5.383377157989843E-095
   62.8425000000000         3.349458598514977E-095
   63.0819000000000        -2.117549249530548E-095
   63.3213000000000        -1.254743277275585E-094
   63.5607000000000        -2.918830638236560E-094
   63.8001000000000        -5.224871585795981E-094
   64.0395000000000        -7.975542049207154E-094
   64.2789000000000        -1.060632242985619E-093
   64.5183000000000        -1.202182583665119E-093
   64.7577000000000        -1.046304511521374E-093
   64.9971000000000        -3.484891594235003E-094
   65.2365000000000         1.183860764047970E-093
   65.4759000000000         3.833163394560552E-093
   65.7153000000000         7.759679794034504E-093
   65.9547000000000         1.282368179486524E-092
   66.1941000000000         1.834146850409901E-092
   66.4335000000000         2.279823458199036E-092
   66.6729000000000         2.357813166961038E-092
   66.9123000000000         1.682327926468636E-092
   67.1517000000000        -2.405922839538518E-093
   67.3911000000000        -3.943973890641822E-092
   67.6305000000000        -9.851750246236055E-092
   67.8699000000000        -1.802874209804479E-091
   68.1093000000000        -2.781998227361788E-091
   68.3487000000000        -3.740054936859307E-091
   68.5881000000000        -4.330725985314284E-091
   68.8275000000000        -4.009518532145562E-091
   69.0669000000000        -2.034998657208414E-091
   69.3063000000000         2.462363185545099E-091
   69.5457000000000         1.030555133214763E-090
   69.7851000000000         2.195356507641713E-090
   70.0245000000000         3.701880922298803E-090
   70.2639000000000         5.363203781555965E-090
   70.5033000000000         6.772945279979477E-090
   70.7427000000000         7.242816601043915E-090
   70.9821000000000         5.777321866384594E-090
   71.2215000000000         1.126522866337854E-090
   71.4609000000000        -8.032111726975001E-090
   71.7003000000000        -2.272954486894939E-089
   71.9397000000000        -4.311866789927243E-089
   72.1791000000000        -6.766288696654657E-089
   72.4185000000000        -9.216744626594643E-089
   72.6579000000000        -1.088291755546589E-088
   72.8973000000000        -1.056233630842303E-088
   73.1367000000000        -6.650798866294343E-089
   73.3761000000000         2.693046103610878E-089
   73.6155000000000         1.916992924011794E-088
   73.8549000000000         4.368969712346114E-088
   74.0943000000000         7.542570195429779E-088
   74.3337000000000         1.106246327615348E-087
   74.5731000000000         1.413407064771981E-087
   74.8125000000000         1.544250261790540E-087
   75.0519000000000         1.312915642939051E-087
   75.2913000000000         4.916459665548926E-088
   75.5307000000000        -1.153742090683948E-087
   75.7701000000000        -3.797686208635893E-087
   76.0095000000000        -7.453530757231207E-087
   76.2489000000000        -1.183970587797407E-086
   76.4883000000000        -1.622819335666292E-086
   76.7277000000000        -1.930714615812520E-086
   76.9671000000000        -1.911044558996639E-086
   77.2065000000000        -1.308833744748131E-086
   77.4459000000000         1.591046509286822E-087
   77.6853000000000         2.741867884152387E-086
   77.9247000000000         6.553540131758570E-086
   78.1641000000000         1.143371228741408E-085
   78.4035000000000         1.678109254244339E-085
   78.6429000000000         2.138889170669456E-085
   78.8823000000000         2.333225476297870E-085
   79.1217000000000         1.998119567407256E-085
   79.3611000000000         8.231597346919871E-086
   79.6005000000000        -1.494691737551161E-085
   79.8399000000000        -5.156567570113439E-085
   80.0793000000000        -1.012495212606041E-084
   80.3187000000000        -1.595280815546894E-084
   80.5581000000000        -2.160280774571599E-084
   80.7975000000000        -2.530212553210134E-084
   81.0369000000000        -2.450213732734741E-084
   81.2763000000000        -1.603392135562441E-084
   81.5157000000000         3.438354655225301E-085
   81.7551000000000         3.657426241817481E-084
   81.9945000000000         8.407679026855364E-084
   82.2339000000000         1.430190223740083E-083
   82.4733000000000         2.049689115826405E-083
   82.7127000000000         2.543042590985883E-083
   82.9521000000000         2.673472364336663E-083
   83.1915000000000         2.131797466259900E-083
   83.4309000000000         5.715714809013328E-084
   83.6703000000000        -2.318822788804795E-083
   83.9097000000000        -6.700354838017372E-083
   84.1491000000000        -1.242454933809052E-082
   84.3885000000000        -1.884529910182171E-082
   84.6279000000000        -2.463332332939244E-082
   84.8673000000000        -2.764824369109374E-082
   85.1067000000000        -2.494749231783248E-082
   85.3461000000000        -1.303093734520076E-082
   85.5855000000000         1.157365577955348E-082
   85.8249000000000         5.129797954094147E-082
   86.0643000000000         1.060637825535188E-081
   86.3037000000000         1.714337961038293E-081
   86.5431000000000         2.366233025147789E-081
   86.7825000000000         2.828283700921011E-081
   87.0219000000000         2.825734994029108E-081
   87.2613000000000         2.010136744043722E-081
   87.5007000000000         2.692712273142502E-084
   87.7401000000000        -3.521767006651619E-081
   87.9795000000000        -8.703568970998302E-081
   88.2189000000000        -1.532127261506364E-080
   88.4583000000000        -2.258424762246620E-080
   88.6977000000000        -2.892941837219825E-080
   88.9371000000000        -3.188100941589255E-080
   89.1765000000000        -2.805789477980465E-080
   89.4159000000000        -1.343476520090207E-080
   89.6553000000000         1.602798260321431E-080
   89.8947000000000         6.328655034414361E-080
   90.1341000000000         1.286028482515304E-079
   90.3735000000000         2.074794952537360E-079
   90.6129000000000         2.883637753354660E-079
   90.8523000000000         3.505664603815962E-079
   91.0917000000000         3.631066496527159E-079
   91.3311000000000         2.854622550518876E-079
   91.5705000000000         7.140979443807078E-080
   91.8099000000000        -3.228220758206881E-079
   92.0493000000000        -9.251097685357754E-079
   92.2887000000000        -1.728406763551993E-078
   92.5281000000000        -2.667074419540781E-078
   92.7675000000000        -3.591393627836672E-078
   93.0069000000000        -4.245564810952999E-078
   93.2463000000000        -4.257390321132736E-078
   93.4857000000000        -3.150668475091190E-078
   93.7251000000000        -3.933567501979301E-079
   93.9645000000000         4.505296003311556E-078
   94.2039000000000         1.183854848977040E-077
   94.4433000000000         2.148462603449736E-077
   94.6827000000000         3.263946230016211E-077
   94.9221000000000         4.353205333987230E-077
   95.1615000000000         5.118184672100137E-077
   95.4009000000000         5.128875965124463E-077
   95.6403000000000         3.837676131021761E-077
   95.8797000000000         6.333384869075867E-078
   96.1191000000000        -5.051138442265985E-077
   96.3585000000000        -1.356569509073308E-076
   96.5979000000000        -2.480285459530497E-076
   96.8373000000000        -3.790200400724324E-076
   97.0767000000000        -5.093247892992509E-076
   97.3161000000000        -6.061836607063398E-076
   97.5555000000000        -6.220107575080067E-076
   97.7949000000000        -4.956822439914800E-076
   98.0343000000000        -1.580091938413498E-076
   98.2737000000000         4.570556641863024E-076
   98.5131000000000         1.394251524565852E-075
   98.7525000000000         2.651495008439517E-075
   98.9919000000000         4.148124802454637E-075
   99.2313000000000         5.690251462517671E-075
   99.4707000000000         6.939505510590144E-075
   99.7101000000000         7.394906431791787E-075
   99.9495000000000         6.400997525077304E-075
   100.188900000000         3.197995496696403E-075
   100.428300000000        -2.969664358209246E-075
   100.667700000000        -1.267279608344995E-074
   100.907100000000        -2.603916361679155E-074
   101.146500000000        -4.242594042131294E-074
   101.385900000000        -6.005318351941476E-074
   101.625300000000        -7.565753489002871E-074
   101.864700000000        -8.425955994955956E-074
   102.104100000000        -7.917308576718670E-074
   102.343500000000        -5.241306632317361E-074
   102.582900000000         4.330954636546443E-075
   102.822300000000         9.800953113088986E-074
   103.061700000000         2.317374419467021E-073
   103.301100000000         4.015773231893224E-073
   103.540500000000         5.928327229981965E-073
   103.779900000000         7.763714108943936E-073
   104.019300000000         9.058257218745211E-073
   104.258700000000         9.168592143300911E-073
   104.498100000000         7.299816731455203E-073
   104.737500000000         2.585409119012124E-073
   104.976900000000        -5.766041757953792E-073
   105.216300000000        -1.824760305466274E-072
   105.455700000000        -3.475541162349981E-072
   105.695100000000        -5.423321201452068E-072
   105.934500000000        -7.430250539895417E-072
   106.173900000000        -9.095032686954774E-072
   106.413300000000        -9.837864674278576E-072
   106.652700000000        -8.914833678867018E-072
   106.892100000000        -5.476841139968828E-072
   107.131500000000         1.312279313157353E-072
   107.370900000000         1.208760289742501E-071
   107.610300000000         2.702253622235203E-071
   107.849700000000         4.550753985552988E-071
   108.089100000000         6.579994198810871E-071
   108.328500000000         8.470196383006679E-071
   108.567900000000         9.735239671715908E-071
   108.807300000000         9.724443827284740E-071
   109.046700000000         7.660153737870257E-071
   109.286100000000         2.724607811455123E-071
   109.525500000000        -5.792788679147137E-071
   109.764900000000        -1.828274756625300E-070
   110.004300000000        -3.454360397964591E-070
   110.243700000000        -5.347048424440988E-070
   110.483100000000        -7.274807862334316E-070
   110.722500000000        -8.861267252863896E-070
   110.961900000000        -9.577294844680338E-070
   111.201300000000        -8.759824140460530E-070
   111.440700000000        -5.669078963438715E-070
   111.680100000000         4.052989941714945E-071
   111.919500000000         9.982670523555354E-070
   112.158900000000         2.317535359841436E-069
   112.398300000000         3.943070745414320E-069
   112.637700000000         5.725955967909112E-069
   112.877100000000         7.399790966658997E-069
   113.116500000000         8.566862249466544E-069
   113.355900000000         8.702728463235962E-069
   113.595300000000         7.188673892339984E-069
   113.834700000000         3.381204965610136E-069
   114.074100000000        -3.274490972103961E-069
   114.313500000000        -1.308507983205931E-068
   114.552900000000        -2.590952482344177E-068
   114.792300000000        -4.093651876381157E-068
   115.031700000000        -5.646988646383057E-068
   115.271100000000        -6.976833991180015E-068
   115.510500000000        -7.700065956173272E-068
   115.749900000000        -7.338810218407718E-068
   115.989300000000        -5.360838054516514E-068
   116.228700000000        -1.252504761289872E-068
   116.468100000000         5.372238267208246E-068
   116.707500000000         1.462827949977065E-067
   116.946900000000         2.619020746654789E-067
   117.186300000000         3.911626089398430E-067
   117.425700000000         5.169527900799611E-067
   117.665100000000         6.135802877488302E-067
   117.904500000000         6.470390448085921E-067
   118.143900000000         5.769897280351711E-067
   118.383300000000         3.609831600145296E-067
   118.622700000000        -3.868967802679688E-068
   118.862100000000        -6.454314228028096E-067
   119.101500000000        -1.456429110611757E-066
   119.340900000000        -2.429406880811428E-066
   119.580300000000        -3.469814199482820E-066
   119.819700000000        -4.421055270944575E-066
   120.059100000000        -5.061138072256589E-066
   120.298500000000        -5.109661329453823E-066
   120.537900000000        -4.249147046350331E-066
   120.777300000000        -2.164121387898307E-066
   121.016700000000         1.400189317559675E-066
   121.256100000000         6.560331800801560E-066
   121.495500000000         1.320288919006442E-065
   121.734900000000         2.088806536217797E-065
   121.974300000000         2.876374118502485E-065
   122.213700000000         3.551081161516660E-065
   122.453100000000         3.934530026113383E-065
   122.692500000000         3.810513931549670E-065
   122.931900000000         2.944804068286861E-065
   123.171300000000         1.117995031440192E-065
   123.410700000000        -1.828024510877027E-065
   123.650100000000        -5.931566626151897E-065
   123.889500000000        -1.104511716302764E-064
   124.128900000000        -1.676983338467933E-064
   124.368300000000        -2.240242245960871E-064
   124.607700000000        -2.690979886527709E-064
   124.847100000000        -2.894943639222652E-064
   125.086500000000        -2.695389055802399E-064
   125.325900000000        -1.929554090950550E-064
   125.565300000000        -4.541202304117207E-065
   125.804700000000         1.820487295757128E-064
   126.044100000000         4.888721017321929E-064
   126.283500000000         8.605281348255188E-064
   126.522900000000         1.264343310520618E-063
   126.762300000000         1.646487139777483E-063
   127.001700000000         1.931177767192060E-063
   127.241100000000         2.023285353729153E-063
   127.480500000000         1.815476552535255E-063
   127.719900000000         1.200794691641620E-063
   127.959300000000         9.105308482742072E-065
   128.198700000000        -1.559401039226808E-063
   128.438100000000        -3.726115008535182E-063
   128.677500000000        -6.286081025143866E-063
   128.916900000000        -8.992828649197666E-063
   129.156300000000        -1.146089756275374E-062
   129.395700000000        -1.316659944550965E-062
   129.635100000000        -1.347236348695382E-062
   129.874500000000        -1.168128773884381E-062
   130.113900000000        -7.126427861252013E-063
   130.353300000000         7.044351960881945E-064
   130.592700000000         1.201341562282459E-062
   130.832100000000         2.651869146775513E-062
   131.071500000000         4.328288348149808E-062
   131.310900000000         6.057312809796923E-062
   131.550300000000         7.579014013143757E-062
   131.789700000000         8.550861691464698E-062
   132.029100000000         8.567158946462773E-062
   132.268500000000         7.197463906442240E-062
   132.507900000000         4.046035477822518E-062
   132.747300000000        -1.168226704120052E-062
   132.986700000000        -8.515473739022181E-062
   133.226100000000        -1.775083185503713E-061
   133.465500000000        -2.821616069024940E-061
   133.704900000000        -3.876617404731872E-061
   133.944300000000        -4.774146985298213E-061
   134.183700000000        -5.301307951038549E-061
   134.423100000000        -5.212208637395642E-061
   134.662500000000        -4.253252445956985E-061
   134.901900000000        -2.200520731753553E-061
   135.141300000000         1.091613924182463E-061
   135.380700000000         5.633682933679051E-061
   135.620100000000         1.124176773576564E-060
   135.859500000000         1.748402831616271E-060
   136.098900000000         2.364414921161473E-060
   136.338300000000         2.871465879764284E-060
   136.577700000000         3.143372345383492E-060
   136.817100000000         3.037775648552330E-060
   137.056500000000         2.411842522218384E-060
   137.295900000000         1.144595947221795E-060
   137.535300000000        -8.349076788138441E-061
   137.774700000000        -3.515589538787175E-060
   138.014100000000        -6.772023523975165E-060
   138.253500000000        -1.033673264785485E-059
   138.492900000000        -1.378336600039199E-059
   138.732300000000        -1.652785941204760E-059