  -1.79550000000000         0.000000000000000E+000
  -1.55610000000000         0.000000000000000E+000
  -1.31670000000000         0.000000000000000E+000
  -1.07730000000000         0.000000000000000E+000
 -0.837900000000000         0.000000000000000E+000
 -0.598500000000000         0.000000000000000E+000
 -0.359100000000000         0.000000000000000E+000
 -0.119700000000000         0.000000000000000E+000
  0.119700000000000         0.000000000000000E+000
  0.359100000000000         0.000000000000000E+000
  0.598500000000000         0.000000000000000E+000
  0.837900000000000         0.000000000000000E+000
   1.07730000000000         0.000000000000000E+000
   1.31670000000000         0.000000000000000E+000
   1.55610000000000         0.000000000000000E+000
   1.79550000000000         0.000000000000000E+000
   2.03490000000000         0.000000000000000E+000
   2.27430000000000         0.000000000000000E+000
   2.51370000000000         0.000000000000000E+000
   2.75310000000000         0.000000000000000E+000
   2.99250000000000         0.000000000000000E+000
   3.23190000000000         0.000000000000000E+000
   3.47130000000000         0.000000000000000E+000
   3.71070000000000         0.000000000000000E+000
   3.95010000000000         0.000000000000000E+000
   4.18950000000000         0.000000000000000E+000
   4.42890000000000         0.000000000000000E+000
   4.66830000000000         0.000000000000000E+000
   4.90770000000000         0.000000000000000E+000
   5.14710000000000         0.000000000000000E+000
   5.38650000000000         0.000000000000000E+000
   5.62590000000000         0.000000000000000E+000
   5.86530000000000         0.000000000000000E+000
   6.10470000000000         0.000000000000000E+000
   6.34410000000000         0.000000000000000E+000
   6.58350000000000         0.000000000000000E+000
   6.82290000000000         0.000000000000000E+000
   7.06230000000000         0.000000000000000E+000
   7.30170000000000         0.000000000000000E+000
   7.54110000000000         0.000000000000000E+000
   7.78050000000000         0.000000000000000E+000
   8.01990000000000         0.000000000000000E+000
   8.25930000000000         0.000000000000000E+000
   8.49870000000000         0.000000000000000E+000
   8.73810000000000         0.000000000000000E+000
   8.97750000000000         6.306525472599213E-196
   9.21690000000000         4.830308391182356E-189
   9.45630000000000         3.503524593457967E-183
   9.69570000000000         1.073980929820249E-181
   9.93510000000000         1.305448604066331E-179
   10.1745000000000         9.249115210839128E-178
   10.4139000000000         1.057320944482225E-176
   10.6533000000000        -1.207987800753241E-174
   10.8927000000000        -7.261311765760841E-173
   11.1321000000000        -2.287805192145276E-171
   11.3715000000000        -5.097827470739610E-170
   11.6109000000000        -8.888169401508105E-169
   11.8503000000000        -1.277538428879774E-167
   12.0897000000000        -1.563532251982854E-166
   12.3291000000000        -1.665656333807384E-165
   12.5685000000000        -1.569360405135005E-164
   12.8079000000000        -1.323359707823475E-163
   13.0473000000000        -1.007763246472555E-162
   13.2867000000000        -6.977658815591735E-162
   13.5261000000000        -4.414436004312409E-161
   13.7655000000000        -2.560140272954922E-160
   14.0049000000000        -1.363094991218166E-159
   14.2443000000000        -6.659096974557615E-159
   14.4837000000000        -2.974730652064949E-158
   14.7231000000000        -1.205438126053017E-157
   14.9625000000000        -4.357325051735738E-157
   15.2019000000000        -1.353400762084003E-156
   15.4413000000000        -3.254223359179180E-156
   15.6807000000000        -3.395300366646503E-156
   15.9201000000000         2.233237967687050E-155
   16.1595000000000         2.000725611725132E-154
   16.3989000000000         1.056518827997116E-153
   16.6383000000000         4.464706171803938E-153
   16.8777000000000         1.617316448490719E-152
   17.1171000000000         5.112064113932711E-152
   17.3565000000000         1.397301978876915E-151
   17.5959000000000         3.155960490649803E-151
   17.8353000000000         4.994389572938028E-151
   18.0747000000000         7.894825926855108E-153
   18.3141000000000        -4.003891783991371E-150
   18.5535000000000        -2.057370117266601E-149
   18.7929000000000        -7.369403160826728E-149
   19.0323000000000        -2.192603349175694E-148
   19.2717000000000        -5.824107845873253E-148
   19.5111000000000        -1.489913548859751E-147
   19.7505000000000        -4.084164844794500E-147
   19.9899000000000        -1.299835086670048E-146
   20.2293000000000        -4.628613656985872E-146
   20.4687000000000        -1.660972104559721E-145
   20.7081000000000        -5.542000008402495E-145
   20.9475000000000        -1.635697064908886E-144
   21.1869000000000        -4.044410350105005E-144
   21.4263000000000        -7.288365927654434E-144
   21.6657000000000        -2.860053036445438E-144
   21.9051000000000         5.082913715527439E-143
   22.1445000000000         3.019665941073822E-142
   22.3839000000000         1.181089144576150E-141
   22.6233000000000         3.715047171192347E-141
   22.8627000000000         9.751222230196767E-141
   23.1021000000000         2.070101546355345E-140
   23.3415000000000         2.965358089075153E-140
   23.5809000000000        -8.232908775966896E-141
   23.8203000000000        -2.638623387323283E-139
   24.0597000000000        -1.253772815670013E-138
   24.2991000000000        -4.291660778616108E-138
   24.5385000000000        -1.217160953829440E-137
   24.7779000000000        -2.945589569273534E-137
   25.0173000000000        -5.953145121129588E-137
   25.2567000000000        -8.947134449896159E-137
   25.4961000000000        -3.950045788642966E-137
   25.7355000000000         3.735914064540290E-136
   25.9749000000000         1.949516251783739E-135
   26.2143000000000         6.605727169353115E-135
   26.4537000000000         1.825758609554076E-134
   26.6931000000000         4.335146707199578E-134
   26.9325000000000         8.848455177723907E-134
   27.1719000000000         1.476636921674179E-133
   27.4113000000000         1.614318076442864E-133
   27.6507000000000        -8.795140729472174E-134
   27.8901000000000        -1.204117137457085E-132
   28.1295000000000        -4.592578513954203E-132
   28.3689000000000        -1.305058509178076E-131
   28.6083000000000        -3.117122640536585E-131
   28.8477000000000        -6.421921757853357E-131
   29.0871000000000        -1.118679016309853E-130
   29.3265000000000        -1.487851643179044E-130
   29.5659000000000        -7.707297145642778E-131
   29.8053000000000         3.721020832609830E-130
   30.0447000000000         1.809763299988566E-129
   30.2841000000000         5.421139832861084E-129
   30.5235000000000         1.312128521551430E-128
   30.7629000000000         2.717322527841532E-128
   31.0023000000000         4.811781812733881E-128
   31.2417000000000         6.862723375062543E-128
   31.4811000000000         5.910099208888279E-128
   31.7205000000000        -6.085871529049343E-128
   31.9599000000000        -4.701215086351940E-127
   32.1993000000000        -1.508501893902136E-126
   32.4387000000000        -3.719410602690619E-126
   32.6781000000000        -7.765729706856153E-126
   32.9175000000000        -1.396846637204996E-125
   33.1569000000000        -2.097818318696942E-125
   33.3963000000000        -2.277103282893667E-125
   33.6357000000000        -2.912260256301689E-126
   33.8751000000000         7.470466466991804E-125
   34.1145000000000         2.776503559457470E-124
   34.3539000000000         7.131017205889232E-124
   34.5933000000000         1.514610412363346E-123
   34.8327000000000         2.768303539106431E-123
   35.0721000000000         4.305797659979387E-123
   35.3115000000000         5.250260960922241E-123
   35.5509000000000         3.176573224303700E-123
   35.7903000000000        -7.204008325547710E-123
   36.0297000000000        -3.567685594503454E-122
   36.2691000000000        -9.765867600800147E-122
   36.5085000000000        -2.126443247784028E-121
   36.7479000000000        -3.953654077362594E-121
   36.9873000000000        -6.315214316680786E-121
   37.2267000000000        -8.259798877081326E-121
   37.4661000000000        -7.094917246324378E-121
   37.7055000000000         3.037713041927552E-121
   37.9449000000000         3.289730058272078E-120
   38.1843000000000         9.937045749298015E-120
   38.4237000000000         2.241104635313478E-119
   38.6631000000000         4.254113215425682E-119
   38.9025000000000         6.962225050587628E-119
   39.1419000000000         9.581893521088693E-119
   39.3813000000000         9.806363421486870E-119
   39.6207000000000         2.591710240079415E-119
   39.8601000000000        -2.130578203939708E-118
   40.0995000000000        -7.640112186069519E-118
   40.3389000000000        -1.816084635464356E-117
   40.5783000000000        -3.544171323257267E-117
   40.8177000000000        -5.951800027998090E-117
   41.0571000000000        -8.547135960115276E-117
   41.2965000000000        -9.780421238145145E-117
   41.5359000000000        -6.211459200700512E-117
   41.7753000000000         8.491223870904979E-117
   42.0147000000000         4.432300845358362E-116
   42.2541000000000         1.145571186703219E-115
   42.4935000000000         2.324490227891768E-115
   42.7329000000000         4.022366237232303E-115
   42.9723000000000         6.006869685287941E-115
   43.2117000000000         7.453407053015503E-115
   43.4511000000000         6.478195636599329E-115
   43.6905000000000        -4.257756985769438E-116
   43.9299000000000        -1.885129589510622E-114
   44.1693000000000        -5.638296658958798E-114
   44.4087000000000        -1.211099968072093E-113
   44.6481000000000        -2.174394216895059E-113
   44.8875000000000        -3.374933059715675E-113
   45.1269000000000        -4.463584608592269E-113
   45.3663000000000        -4.604442359708780E-113
   45.6057000000000        -2.211190169950942E-113
   45.8451000000000         5.281832121918198E-113
   46.0845000000000         2.142947788347215E-112
   46.3239000000000         5.023398232766694E-112
   46.5633000000000         9.454231943757684E-112
   46.8027000000000         1.527264078072931E-111
   47.0421000000000         2.129954715523239E-111
   47.2815000000000         2.450605771655200E-111
   47.5209000000000         1.899157819767461E-111
   47.7603000000000        -4.941154117556644E-112
   47.9997000000000        -6.098405796143431E-111
   48.2391000000000        -1.651817484139121E-110
   48.4785000000000        -3.307837450168642E-110
   48.7179000000000        -5.574978369390568E-110
   48.9573000000000        -8.131399577415652E-110
   49.1967000000000        -1.006914738534518E-109
   49.4361000000000        -9.568209007212318E-110
   49.6755000000000        -3.599191995411251E-110
   49.9149000000000         1.215895159758122E-109
   50.1543000000000         4.286729679018606E-109
   50.3937000000000         9.308098586233033E-109
   50.6331000000000         1.637575012057266E-108
   50.8725000000000         2.472367603204498E-108
   51.1119000000000         3.201059825332917E-108
   51.3513000000000         3.347939318222861E-108
   51.5907000000000         2.124086980369875E-108
   51.8301000000000        -1.581790533945751E-108
   52.0695000000000        -9.069328257095063E-108
   52.3089000000000        -2.144014737163579E-107
   52.5483000000000        -3.884122045886667E-107
   52.7877000000000        -5.925935359857221E-107
   53.0271000000000        -7.691544342921878E-107
   53.2665000000000        -8.056663161120277E-107
   53.5059000000000        -5.244795907398199E-107
   53.7453000000000         3.084011972384196E-107
   53.9847000000000         1.935728016614278E-106
   54.2241000000000         4.499459429553029E-106
   54.4635000000000         7.849066471660594E-106
   54.7029000000000         1.126497753363207E-105
   54.9423000000000         1.313554609497801E-105
   55.1817000000000         1.069940397732978E-105
   55.4211000000000         7.406658911071783E-108
   55.6605000000000        -2.307500911991014E-105
   55.8999000000000        -6.175114275198578E-105
   56.1393000000000        -1.142292385245820E-104
   56.3787000000000        -1.687472097024003E-104
   56.6181000000000        -1.966096573041822E-104
   56.8575000000000        -1.452905519975283E-104
   57.0969000000000         6.478772066698006E-105
   57.3363000000000         5.331946013903937E-104
   57.5757000000000         1.352177606192304E-103
   57.8151000000000         2.546422400981544E-103
   58.0545000000000         3.967375438900207E-103
   58.2939000000000         5.136199850371061E-103
   58.5333000000000         5.047379886331145E-103
   58.7727000000000         1.979994656530281E-103
   59.0121000000000        -6.579529578376421E-103
   59.2515000000000        -2.372044237093713E-102
   59.4909000000000        -5.232209593617893E-102
   59.7303000000000        -9.334796027415085E-102
   59.9697000000000        -1.428572507731414E-101
   60.2091000000000        -1.875162865596531E-101
   60.4485000000000        -1.988125927188972E-101
   60.6879000000000        -1.270187352854170E-101
   60.9273000000000         1.026460179393010E-101
   61.1667000000000         5.872005390368564E-101
   61.4061000000000         1.429518820165322E-100
   61.6455000000000         2.699086131178264E-100
   61.8849000000000         4.359418623693622E-100
   62.1243000000000         6.153585909629071E-100
   62.3637000000000         7.447082610644656E-100
   62.6031000000000         7.044532386276736E-100
   62.8425000000000         3.027052278979757E-100
   63.0819000000000        -7.296977803664631E-100
   63.3213000000000        -2.717460016682835E-099
   63.5607000000000        -5.970457657856315E-099
   63.8001000000000        -1.063742631751766E-098
   64.0395000000000        -1.645607683582486E-098
   64.2789000000000        -2.238236447329676E-098
   64.5183000000000        -2.611040916460651E-098
   64.7577000000000        -2.355076020849971E-098
   64.9971000000000        -8.426484273376399E-099
   65.2365000000000         2.772277185280072E-098
   65.4759000000000         9.467706421681200E-098
   65.7153000000000         2.011970866979173E-097
   65.9547000000000         3.504871311743337E-097
   66.1941000000000         5.327889607878825E-097
   66.4335000000000         7.147947850795182E-097
   66.6729000000000         8.264268294125082E-097
   66.9123000000000         7.470993381043810E-097
   67.1517000000000         2.960231178288863E-097
   67.3911000000000        -7.655465223669782E-097
   67.6305000000000        -2.708263798753436E-096
   67.8699000000000        -5.769223456858647E-096
   68.1093000000000        -1.002940382904420E-095
   68.3487000000000        -1.521855573094548E-095
   68.5881000000000        -2.044206046754373E-095
   68.8275000000000        -2.384645495208331E-095
   69.0669000000000        -2.227922127666677E-095
   69.3063000000000        -1.105730544662188E-095
   69.5457000000000         1.596280449872111E-095
   69.7851000000000         6.573044936950292E-095
   70.0245000000000         1.443960942938411E-094
   70.2639000000000         2.543521383688878E-094
   70.5033000000000         3.895761661154748E-094
   70.7427000000000         5.291731027839571E-094
   70.9821000000000         6.295242409369243E-094
   71.2215000000000         6.163278390153599E-094
   71.4609000000000         3.791188444524446E-094
   71.7003000000000        -2.274387713555442E-094
   71.9397000000000        -1.369264380817124E-093
   72.1791000000000        -3.197629401955547E-093
   72.4185000000000        -5.784279573774980E-093
   72.6579000000000        -9.019604276835273E-093
   72.8973000000000        -1.247168597862273E-092
   73.1367000000000        -1.521482034759612E-092
   73.3761000000000        -1.565428233404877E-092
   73.6155000000000        -1.140082103652817E-092
   73.8549000000000         7.170424761815051E-094
   74.0943000000000         2.437614355389617E-092
   74.3337000000000         6.305626509993135E-092
   74.5731000000000         1.187366764234471E-091
   74.8125000000000         1.898440242965199E-091
   75.0519000000000         2.684046737628896E-091
   75.2913000000000         3.365630467964123E-091
   75.5307000000000         3.629765836216149E-091
   75.7701000000000         3.001061490863914E-091
   76.0095000000000         8.407338833513853E-092
   76.2489000000000        -3.605192418612593E-091
   76.4883000000000        -1.107774967927053E-090
   76.7277000000000        -2.206395755899820E-090
   76.9671000000000        -3.641488958945649E-090
   77.2065000000000        -5.281313114371401E-090
   77.4459000000000        -6.811724831112863E-090
   77.6853000000000        -7.667296995419210E-090
   77.9247000000000        -6.977046054202442E-090
   78.1641000000000        -3.554134413195561E-090
   78.4035000000000         4.028498333463900E-090
   78.6429000000000         1.722365136797931E-089
   78.8823000000000         3.709893468247977E-089
   79.1217000000000         6.368026739760960E-089
   79.3611000000000         9.503101572729161E-089
   79.6005000000000         1.261099264901697E-088
   79.8399000000000         1.475531765100789E-088
   80.0793000000000         1.446723117861889E-088
   80.3187000000000         9.714509928005105E-089
   80.5581000000000        -1.992105636079306E-089
   80.7975000000000        -2.326977774073597E-088
   81.0369000000000        -5.621855914531065E-088
   81.2763000000000        -1.013803681698865E-087
   81.5157000000000        -1.562684866582036E-087
   81.7551000000000        -2.135288819421405E-087
   81.9945000000000        -2.589498975685953E-087
   82.2339000000000        -2.697578357115349E-087
   82.4733000000000        -2.139135780166971E-087
   82.7127000000000        -5.142731068979282E-088
   82.9521000000000         2.610304223275559E-087
   83.1915000000000         7.608282157194476E-087
   83.4309000000000         1.464170559290669E-086
   83.6703000000000         2.344437146227584E-086
   83.9097000000000         3.304843869537324E-086
   84.1491000000000         4.148378425605170E-086
   84.3885000000000         4.551040207592664E-086
   84.6279000000000         4.048259759948141E-086
   84.8673000000000         2.048541224044766E-086
   85.1067000000000        -2.108014086681647E-086
   85.3461000000000        -9.026980106049321E-086
   85.5855000000000        -1.905557303198367E-085
   85.8249000000000        -3.198868450260157E-085
   86.0643000000000        -4.669356375354768E-085
   86.3037000000000        -6.068972179888210E-085
   86.5431000000000        -6.976012537432661E-085
   86.7825000000000        -6.771899633635540E-085
   87.0219000000000        -4.651494292411023E-085
   87.2613000000000         3.105060475944597E-086
   87.5007000000000         9.012212112361752E-085
   87.7401000000000         2.207371985928543E-084
   87.9795000000000         3.947016257374965E-084
   88.2189000000000         6.005624797376834E-084
   88.4583000000000         8.102294684107124E-084
   88.6977000000000         9.737368395557923E-084
   88.9371000000000         1.015656996336675E-083
   89.1765000000000         8.352588403804891E-084
   89.4159000000000         3.130725294992962E-084
   89.6553000000000        -6.731652621086407E-084
   89.8947000000000        -2.220411962501188E-083
   90.1341000000000        -4.358313648012704E-083
   90.3735000000000        -6.993704459933112E-083
   90.6129000000000        -9.845587783034809E-083
   90.8523000000000        -1.237964593338049E-082
   91.0917000000000        -1.375770612828626E-082
   91.3311000000000        -1.282464603403788E-082
   91.5705000000000        -8.161727819661740E-083
   91.8099000000000         1.760605546715200E-083
   92.0493000000000         1.829845297370042E-082
   92.2887000000000         4.219588082998004E-082
   92.5281000000000         7.298989815558683E-082
   92.7675000000000         1.082917027097358E-081
   93.0069000000000         1.430272675217808E-081
   93.2463000000000         1.687846917916671E-081
   93.4857000000000         1.734885002878446E-081
   93.7251000000000         1.416911682410501E-081
   93.9645000000000         5.582207952418724E-082
   94.2039000000000        -1.012601198137701E-081
   94.4433000000000        -3.421334817469285E-081
   94.6827000000000        -6.689910995146741E-081
   94.9221000000000        -1.066330624188839E-080
   95.1615000000000        -1.492806711996835E-080
   95.4009000000000        -1.873492928558094E-080
   95.6403000000000        -2.094495413370921E-080
   95.8797000000000        -2.002570442499261E-080
   96.1191000000000        -1.412979800791772E-080
   96.3585000000000        -1.290715507533835E-081
   96.5979000000000         2.023250985770519E-080
   96.8373000000000         5.144190891368499E-080
   97.0767000000000         9.192173527712576E-080
   97.3161000000000         1.390336108433904E-079
   97.5555000000000         1.870748759368225E-079
   97.7949000000000         2.265506312342873E-079
   98.0343000000000         2.437772046854422E-079
   98.2737000000000         2.210981766235862E-079
   98.5131000000000         1.380390199403448E-079
   98.7525000000000        -2.626645681365292E-080
   98.9919000000000        -2.890982969355849E-079
   99.2313000000000        -6.584803739499731E-079
   99.4707000000000        -1.125923222838139E-078
   99.7101000000000        -1.658052455364642E-078
   99.9495000000000        -2.188085439749891E-078
   100.188900000000        -2.608709947455017E-078
   100.428300000000        -2.768559671750556E-078
   100.667700000000        -2.475085097363028E-078
   100.907100000000        -1.507054421121143E-078
   101.146500000000         3.599844845059157E-079
   101.385900000000         3.312403767789559E-078
   101.625300000000         7.439716741995836E-078
   101.864700000000         1.265893197528625E-077
   102.104100000000         1.862610783790154E-077
   102.343500000000         2.464392820749138E-077
   102.582900000000         2.958009444238952E-077
   102.822300000000         3.181819191751533E-077
   103.061700000000         2.926975361810791E-077
   103.301100000000         1.948236504391079E-077
   103.540500000000        -1.178501589896101E-079
   103.779900000000        -3.181242367226581E-077
   104.019300000000        -7.697758277469812E-077
   104.258700000000        -1.352643138868296E-076
   104.498100000000        -2.035977458424338E-076
   104.737500000000        -2.750729911427766E-076
   104.976900000000        -3.378932263482721E-076
   105.216300000000        -3.745805102844465E-076
   105.455700000000        -3.617845116768604E-076
   105.695100000000        -2.711066600836380E-076
   105.934500000000        -7.142709454207840E-077
   106.173900000000         2.667600343629264E-076
   106.413300000000         7.645691188655406E-076
   106.652700000000         1.425276795011287E-075
   106.892100000000         2.222370013403039E-075
   107.131500000000         3.085865343089313E-075
   107.370900000000         3.888534392777280E-075
   107.610300000000         4.434754839153867E-075
   107.849700000000         4.455939272677946E-075
   108.089100000000         3.617712018408967E-075
   108.328500000000         1.544939026517406E-075
   108.567900000000        -2.129017201125990E-075
   108.807300000000        -7.683341834929379E-075
   109.046700000000        -1.519826337170161E-074
   109.286100000000        -2.441307986158234E-074
   109.525500000000        -3.456345990351565E-074
   109.764900000000        -4.421829922526646E-074
   110.004300000000        -5.114942264151300E-074
   110.243700000000        -5.228171586808460E-074
   110.483100000000        -4.378463321908339E-074
   110.722500000000        -2.137503038297901E-074
   110.961900000000         1.909873628712889E-074
   111.201300000000         8.073616816786829E-074
   111.440700000000         1.643075357754340E-073
   111.680100000000         2.666619152029052E-073
   111.919500000000         3.789527016746226E-073
   112.158900000000         4.849319973381892E-073
   112.398300000000         5.597049394403253E-073
   112.637700000000         5.694786941646621E-073
   112.877100000000         4.729609469536630E-073
   113.116500000000         2.251200679555824E-073
   113.355900000000        -2.160358738821741E-073
   113.595300000000        -8.792272031049371E-073
   113.834700000000        -1.766228983402093E-072
   114.074100000000        -2.835473799452938E-072
   114.313500000000        -3.984627077034948E-072
   114.552900000000        -5.035038316183502E-072
   114.792300000000        -5.722295330459641E-072
   115.031700000000        -5.698346442692460E-072
   115.271100000000        -4.551505981603941E-072
   115.510500000000        -1.850725355489454E-072
   115.749900000000         2.780667875800867E-072
   115.989300000000         9.559461614377349E-072
   116.228700000000         1.840799802874823E-071
   116.468100000000         2.880060241618273E-071
   116.707500000000         3.961051510360658E-071
   116.946900000000         4.898776592470183E-071
   117.186300000000         5.430945159891860E-071
   117.425700000000         5.225285359566090E-071
   117.665100000000         3.904585415866463E-071
   117.904500000000         1.094463631005506E-071
   118.143900000000        -3.502810313733474E-071
   118.383300000000        -1.000836802431228E-070
   118.622700000000        -1.824563651687639E-070
   118.862100000000        -2.760986686411598E-070
   119.101500000000        -3.694833358637148E-070
   119.340900000000        -4.448006232729773E-070
   119.580300000000        -4.779194115142185E-070
   119.819700000000        -4.395325556478519E-070
   120.059100000000        -2.979055742960231E-070
   120.298500000000        -2.356534638226797E-071
   120.537900000000         4.039251858236962E-070
   120.777300000000         9.872797425259661E-070
   121.016700000000         1.701517065445827E-069
   121.256100000000         2.483907323619959E-069
   121.495500000000         3.225685683007532E-069
   121.734900000000         3.768016314847051E-069
   121.974300000000         3.905185225846032E-069
   122.213700000000         3.398191197848424E-069
   122.453100000000         2.001598612736295E-069
   122.692500000000        -4.944826752097549E-070
   122.931900000000        -4.207283308862204E-069
   123.171300000000        -9.091926016615212E-069
   123.410700000000        -1.486615534505326E-068
   123.650100000000        -2.094014308544698E-068
   123.889500000000        -2.636684855242103E-068
   124.128900000000        -2.983244149120199E-068
   124.368300000000        -2.970875111982911E-068
   124.607700000000        -2.418935298838353E-068
   124.847100000000        -1.152641911427283E-068
   125.086500000000         9.624383292131516E-069
   125.325900000000         3.975968868794724E-068
   125.565300000000         7.801599968236520E-068
   125.804700000000         1.216477422936718E-067
   126.044100000000         1.655850582164536E-067
   126.283500000000         2.021898642642318E-067
   126.522900000000         2.213508477082359E-067
   126.762300000000         2.110656248754094E-067
   127.001700000000         1.586429032182838E-067
   127.241100000000         5.261092742502864E-068
   127.480500000000        -1.146657819098954E-067
   127.719900000000        -3.437842545475946E-067
   127.959300000000        -6.248007644063954E-067
   128.198700000000        -9.339025802841094E-067
   128.438100000000        -1.230922222045102E-066
   128.677500000000        -1.458530425557236E-066
   128.916900000000        -1.544043230066798E-066
   129.156300000000        -1.404759812743536E-066
   129.395700000000        -9.575593626988923E-067
   129.635100000000        -1.330819132745237E-067
   129.874500000000         1.105829031223676E-066
   130.113900000000         2.742634142075967E-066
   130.353300000000         4.684857230257006E-066
   130.592700000000         6.744586207598655E-066
   130.832100000000         8.626336380307722E-066
   131.071500000000         9.927743135344508E-066
   131.310900000000         1.015884034058523E-065
   131.550300000000         8.785110949502351E-066
   131.789700000000         5.297778757573862E-066
   132.029100000000        -6.882749832079249E-067
   132.268500000000        -9.313122281001074E-066
   132.507900000000        -2.033693620234600E-065
   132.747300000000        -3.300845240305485E-065
   132.986700000000        -4.596044759267953E-065
   133.226100000000        -5.716191745053540E-065
   133.465500000000        -6.396023713767083E-065
   133.704900000000        -6.324615561822734E-065
   133.944300000000        -5.176831851473371E-065
   134.183700000000        -2.661067333324078E-065
   134.423100000000         1.417529485102857E-065
   134.662500000000         7.082092271345907E-065
   134.901900000000         1.410466120249552E-064
   135.141300000000         2.193363985706198E-064
   135.380700000000         2.964306073937074E-064
   135.620100000000         3.592148380351655E-064
   135.859500000000         3.911946594702013E-064
   136.098900000000         3.737299477432237E-064
   136.338300000000         2.881520410132444E-064
   136.577700000000         1.187942589123714E-064
   136.817100000000        -1.431705533426893E-064
   137.056500000000        -4.953690232424724E-064
   137.295900000000        -9.198317227886638E-064
   137.535300000000        -1.379263623143209E-063
   137.774700000000        -1.814866778272743E-063
   138.014100000000        -2.146720272014018E-063
   138.253500000000        -2.277727159227752E-063
   138.492900000000        -2.101980796300423E-063
   138.732300000000        -1.518042362916598E-063