  -1.79550000000000         0.000000000000000E+000
  -1.55610000000000         0.000000000000000E+000
  -1.31670000000000         0.000000000000000E+000
  -1.07730000000000         0.000000000000000E+000
 -0.837900000000000         0.000000000000000E+000
 -0.598500000000000         0.000000000000000E+000
 -0.359100000000000         0.000000000000000E+000
 -0.119700000000000         0.000000000000000E+000
  0.119700000000000         0.000000000000000E+000
  0.359100000000000         0.000000000000000E+000
  0.598500000000000         0.000000000000000E+000
  0.837900000000000         0.000000000000000E+000
   1.07730000000000         0.000000000000000E+000
   1.31670000000000         0.000000000000000E+000
   1.55610000000000         0.000000000000000E+000
   1.79550000000000         0.000000000000000E+000
   2.03490000000000         0.000000000000000E+000
   2.27430000000000         0.000000000000000E+000
   2.51370000000000         0.000000000000000E+000
   2.75310000000000         0.000000000000000E+000
   2.99250000000000         0.000000000000000E+000
   3.23190000000000         0.000000000000000E+000
   3.47130000000000         0.000000000000000E+000
   3.71070000000000         0.000000000000000E+000
   3.95010000000000         0.000000000000000E+000
   4.18950000000000         0.000000000000000E+000
   4.42890000000000         0.000000000000000E+000
   4.66830000000000         0.000000000000000E+000
   4.90770000000000         0.000000000000000E+000
   5.14710000000000         0.000000000000000E+000
   5.38650000000000         0.000000000000000E+000
   5.62590000000000         0.000000000000000E+000
   5.86530000000000         0.000000000000000E+000
   6.10470000000000         0.000000000000000E+000
   6.34410000000000         0.000000000000000E+000
   6.58350000000000         0.000000000000000E+000
   6.82290000000000         0.000000000000000E+000
   7.06230000000000         0.000000000000000E+000
   7.30170000000000         0.000000000000000E+000
   7.54110000000000         0.000000000000000E+000
   7.78050000000000         0.000000000000000E+000
   8.01990000000000         0.000000000000000E+000
   8.25930000000000         0.000000000000000E+000
   8.49870000000000         0.000000000000000E+000
   8.73810000000000         0.000000000000000E+000
   8.97750000000000         1.373046448586358E-195
   9.21690000000000         1.656501265371563E-189
   9.45630000000000        -8.728062366960242E-183
   9.69570000000000        -3.193434029732357E-181
   9.93510000000000        -9.307424322830044E-180
   10.1745000000000        -3.261651763653092E-178
   10.4139000000000         3.389087793070506E-176
   10.6533000000000         3.443565910264756E-174
   10.8927000000000         1.501622975242217E-172
   11.1321000000000         4.267564306574507E-171
   11.3715000000000         9.040225172528872E-170
   11.6109000000000         1.528276432633037E-168
   11.8503000000000         2.149406361835780E-167
   12.0897000000000         2.586305733443405E-166
   12.3291000000000         2.716197442891381E-165
   12.5685000000000         2.526947953482546E-164
   12.8079000000000         2.106014131427290E-163
   13.0473000000000         1.585909924002751E-162
   13.2867000000000         1.086061754778827E-161
   13.5261000000000         6.795317828368473E-161
   13.7655000000000         3.896011311399766E-160
   14.0049000000000         2.049106921048976E-159
   14.2443000000000         9.874997876805641E-159
   14.4837000000000         4.341211476951937E-158
   14.7231000000000         1.723659064093619E-157
   14.9625000000000         6.051149655551309E-157
   15.2019000000000         1.786633802065629E-156
   15.4413000000000         3.780814687867282E-156
   15.6807000000000         5.445338089473501E-157
   15.9201000000000        -5.087306255806763E-155
   16.1595000000000        -3.620405968104113E-154
   16.3989000000000        -1.793005004670230E-153
   16.6383000000000        -7.366386299937929E-153
   16.8777000000000        -2.634951402792892E-152
   17.1171000000000        -8.310628623058593E-152
   17.3565000000000        -2.290944918400102E-151
   17.5959000000000        -5.305886908334815E-151
   17.8353000000000        -9.020108692207983E-151
   18.0747000000000        -3.302695837380669E-151
   18.3141000000000         5.846933278908984E-150
   18.5535000000000         3.413900296925476E-149
   18.7929000000000         1.355755906881700E-148
   19.0323000000000         4.573478010927281E-148
   19.2717000000000         1.419774977961342E-147
   19.5111000000000         4.270477105871360E-147
   19.7505000000000         1.290739226656248E-146
   19.9899000000000         3.973975427057167E-146
   20.2293000000000         1.229102540254009E-145
   20.4687000000000         3.694723995369581E-145
   20.7081000000000         1.035416041865159E-144
   20.9475000000000         2.562891072056434E-144
   21.1869000000000         5.029599004465001E-144
   21.4263000000000         4.747889912691544E-144
   21.6657000000000        -1.941105581910960E-143
   21.9051000000000        -1.502402243172155E-142
   22.1445000000000        -6.522427294017373E-142
   22.3839000000000        -2.240422874130369E-141
   22.6233000000000        -6.521943337495656E-141
   22.8627000000000        -1.619443716026065E-140
   23.1021000000000        -3.279362893174185E-140
   23.3415000000000        -4.423374418257761E-140
   23.5809000000000         1.985294357641507E-140
   23.8203000000000         4.171932814325560E-139
   24.0597000000000         1.907162741399760E-138
   24.2991000000000         6.383934587206762E-138
   24.5385000000000         1.781257180834843E-137
   24.7779000000000         4.258274342485484E-137
   25.0173000000000         8.541022435487270E-137
   25.2567000000000         1.287940608148047E-136
   25.4961000000000         6.550262576151676E-137
   25.7355000000000        -4.814514871095726E-136
   25.9749000000000        -2.565919386062180E-135
   26.2143000000000        -8.688536765991839E-135
   26.4537000000000        -2.389780290945497E-134
   26.6931000000000        -5.638674920131265E-134
   26.9325000000000        -1.142828318660968E-133
   27.1719000000000        -1.892411800226434E-133
   27.4113000000000        -2.048294735057719E-133
   27.6507000000000         1.137884671122347E-133
   27.8901000000000         1.518308535196023E-132
   28.1295000000000         5.735851291876506E-132
   28.3689000000000         1.615021776068568E-131
   28.6083000000000         3.818973485651788E-131
   28.8477000000000         7.773341250598747E-131
   29.0871000000000         1.331130160883611E-130
   29.3265000000000         1.711033096245029E-130
   29.5659000000000         6.932789196712414E-131
   29.8053000000000        -5.005793184720649E-130
   30.0447000000000        -2.271697043262142E-129
   30.2841000000000        -6.640286953095199E-129
   30.5235000000000        -1.580802669065339E-128
   30.7629000000000        -3.224537909828343E-128
   31.0023000000000        -5.610981155262213E-128
   31.2417000000000        -7.784828767685022E-128
   31.4811000000000        -6.125817368072293E-128
   31.7205000000000         8.934956290614083E-128
   31.9599000000000         5.826218161218336E-127
   32.1993000000000         1.807068144125701E-126
   32.4387000000000         4.367868759300319E-126
   32.6781000000000         8.965913763017454E-126
   32.9175000000000         1.582875082360126E-125
   33.1569000000000         2.313939501406210E-125
   33.3963000000000         2.357505257692846E-125
   33.6357000000000        -2.151238764267972E-126
   33.8751000000000        -9.543294865184927E-125
   34.1145000000000        -3.320790770895384E-124
   34.3539000000000        -8.291985649089486E-124
   34.5933000000000        -1.725968396006286E-123
   34.8327000000000        -3.093865209253680E-123
   35.0721000000000        -4.696032951970721E-123
   35.3115000000000        -5.474063356292392E-123
   35.5509000000000        -2.620781877695840E-123
   35.7903000000000         9.832314170111752E-123
   36.0297000000000         4.268841674793383E-122
   36.2691000000000         1.125445573184894E-121
   36.5085000000000         2.395409745495162E-121
   36.7479000000000         4.368064827511632E-121
   36.9873000000000         6.828131697437374E-121
   37.2267000000000         8.639655179137542E-121
   37.4661000000000         6.735933292364480E-121
   37.7055000000000        -5.382721863879870E-121
   37.9449000000000        -3.940081542296375E-120
   38.1843000000000        -1.132389948345093E-119
   38.4237000000000        -2.490963604907936E-119
   38.6631000000000        -4.639688160095309E-119
   38.9025000000000        -7.451632549019422E-119
   39.1419000000000        -1.000454726561171E-118
   39.3813000000000        -9.721509100496296E-119
   39.6207000000000        -1.114461791903029E-119
   39.8601000000000         2.567232125644167E-118
   40.0995000000000         8.579952921149213E-118
   40.3389000000000         1.984733095347478E-117
   40.5783000000000         3.803210571300018E-117
   40.8177000000000         6.283245579839981E-117
   41.0571000000000         8.855101960645427E-117
   41.2965000000000         9.825990408970696E-117
   41.5359000000000         5.535562415393871E-117
   41.7753000000000        -1.062618231269627E-116
   42.0147000000000        -4.890665939577397E-116
   42.2541000000000        -1.226072157692657E-115
   42.4935000000000        -2.444340455869094E-115
   42.7329000000000        -4.169818133095414E-115
   42.9723000000000        -6.136905921538384E-115
   43.2117000000000        -7.467011517589425E-115
   43.4511000000000        -6.205258505285139E-115
   43.6905000000000         1.223629106758177E-115
   43.9299000000000         2.043076045711296E-114
   44.1693000000000         5.888613951160083E-114
   44.4087000000000         1.243159321999403E-113
   44.6481000000000         2.203995639760240E-113
   44.8875000000000         3.381336825033468E-113
   45.1269000000000         4.412890689247272E-113
   45.3663000000000         4.454533394742228E-113
   45.6057000000000         1.931043407064199E-113
   45.8451000000000        -5.669223247309650E-113
   46.0845000000000        -2.177357004998076E-112
   46.3239000000000        -5.015665674905506E-112
   46.5633000000000        -9.334219892917277E-112
   46.8027000000000        -1.493674113074237E-111
   47.0421000000000        -2.063332247177931E-111
   47.2815000000000        -2.345480208093451E-111
   47.5209000000000        -1.770940947004919E-111
   47.7603000000000         5.836878832507334E-112
   47.9997000000000         6.005413344867080E-111
   48.2391000000000         1.597751776165886E-110
   48.4785000000000         3.168270316216965E-110
   48.7179000000000         5.298923689824447E-110
   48.9573000000000         7.674818881398559E-110
   49.1967000000000         9.435301623266610E-110
   49.4361000000000         8.881997606489375E-110
   49.6755000000000         3.222001584969752E-110
   49.9149000000000        -1.148202232175743E-109
   50.1543000000000        -3.986744960251097E-109
   50.3937000000000        -8.592690455245532E-109
   50.6331000000000        -1.502902264338249E-108
   50.8725000000000        -2.257432571220842E-108
   51.1119000000000        -2.909698882478863E-108
   51.3513000000000        -3.033483676706986E-108
   51.5907000000000        -1.931012992286324E-108
   51.8301000000000         1.367744646229581E-108
   52.0695000000000         7.978406433606373E-108
   52.3089000000000         1.881689601333699E-107
   52.5483000000000         3.394162264523245E-107
   52.7877000000000         5.152998209590591E-107
   53.0271000000000         6.655297867509950E-107
   53.2665000000000         6.943890333340080E-107
   53.5059000000000         4.537403244752253E-107
   53.7453000000000        -2.464759799165067E-107
   53.9847000000000        -1.594490956175689E-106
   54.2241000000000        -3.681713670732307E-106
   54.4635000000000        -6.342904929987591E-106
   54.7029000000000        -8.935045747335411E-106
   54.9423000000000        -1.009547072826828E-105
   55.1817000000000        -7.582804234356961E-106
   55.4211000000000         1.606719040587563E-106
   55.6605000000000         2.055309703551705E-105
   55.8999000000000         5.078439151686586E-105
   56.1393000000000         8.935291023139690E-105
   56.3787000000000         1.244923562948522E-104
   56.6181000000000         1.303302241480724E-104
   56.8575000000000         6.226373233874136E-105
   57.0969000000000        -1.436073617769246E-104
   57.3363000000000        -5.612267301183966E-104
   57.5757000000000        -1.247224987984326E-103
   57.8151000000000        -2.185588900797986E-103
   58.0545000000000        -3.195798301850385E-103
   58.2939000000000        -3.803157273033322E-103
   58.5333000000000        -3.087348866071488E-103
   58.7727000000000         4.431031037459528E-104
   59.0121000000000         8.853832243686135E-103
   59.2515000000000         2.450372500262666E-102
   59.4909000000000         4.924895315100800E-102
   59.7303000000000         8.285210074342806E-102
   59.9697000000000         1.203374553386248E-101
   60.2091000000000         1.481998407367446E-101
   60.4485000000000         1.397881012878836E-101
   60.6879000000000         5.095991361061311E-102
   60.9273000000000        -1.816666428245097E-101
   61.1667000000000        -6.358557916702183E-101
   61.4061000000000        -1.386337510958322E-100
   61.6455000000000        -2.467205908853383E-100
   61.8849000000000        -3.806146032792149E-100
   62.1243000000000        -5.125143605615119E-100
   62.3637000000000        -5.810354267643828E-100
   62.6031000000000        -4.770079419226036E-100
   62.8425000000000        -3.270428412125503E-101
   63.0819000000000         9.769295610665241E-100
   63.3213000000000         2.807502006234849E-099
   63.5607000000000         5.674230417233156E-099
   63.8001000000000         9.614870193326139E-099
   64.0395000000000         1.426634719191988E-098
   64.2789000000000         1.854678168831708E-098
   64.5183000000000         2.026302057059628E-098
   64.7577000000000         1.571591149412442E-098
   64.9971000000000        -5.429676679870834E-100
   65.2365000000000        -3.553807741465942E-098
   65.4759000000000        -9.688438361105600E-098
   65.7153000000000        -1.904726016994910E-097
   65.9547000000000        -3.162532761123385E-097
   66.1941000000000        -4.616505086178660E-097
   66.4335000000000        -5.925264009202287E-097
   66.6729000000000        -6.424545049913330E-097
   66.9123000000000        -5.025062032748524E-097
   67.1517000000000        -1.591408646752350E-098
   67.3911000000000         1.015194113095294E-096
   67.6305000000000         2.800634568670392E-096
   67.8699000000000         5.497530208925042E-096
   68.1093000000000         9.096385863274626E-096
   68.3487000000000         1.324749472518697E-095
   68.5881000000000         1.702799080477659E-095
   68.8275000000000         1.867143351522907E-095
   69.0669000000000         1.531767463917602E-095
   69.3063000000000         2.892743335335414E-096
   69.5457000000000        -2.370539212906350E-095
   69.7851000000000        -6.986796244346791E-095
   70.0245000000000        -1.396791761457723E-094
   70.2639000000000        -2.331497004281211E-094
   70.5033000000000        -3.420575802387745E-094
   70.7427000000000        -4.444315089134721E-094
   70.9821000000000        -4.982112111819088E-094
   71.2215000000000        -4.354303372080663E-094
   71.4609000000000        -1.594179549049256E-094
   71.7003000000000         4.510514569851318E-094
   71.9397000000000         1.525219512784537E-093
   72.1791000000000         3.164821752816054E-093
   72.4185000000000         5.382912586984664E-093
   72.6579000000000         8.012436038836417E-093
   72.8973000000000         1.058551308225568E-092
   73.1367000000000         1.219499274041473E-092
   73.3761000000000         1.136667104470937E-092
   73.6155000000000         5.994146240981007E-093
   73.8549000000000        -6.582802813588342E-093
   74.0943000000000        -2.924550297293132E-092
   74.3337000000000        -6.437630410890169E-092
   74.5731000000000        -1.126178693461304E-091
   74.8125000000000        -1.710207809896854E-091
   75.0519000000000        -2.305986877886810E-091
   75.2913000000000        -2.735160833208957E-091
   75.5307000000000        -2.704575632608912E-091
   75.7701000000000        -1.791744704043220E-091
   76.0095000000000         5.425319786989121E-092
   76.2489000000000         4.893484894542943E-091
   76.4883000000000         1.177869180649458E-090
   76.7277000000000         2.140653984602706E-090
   76.9671000000000         3.332980641541048E-090
   77.2065000000000         4.598738430503560E-090
   77.4459000000000         5.617412781816743E-090
   77.6853000000000         5.853626686618102E-090
   77.9247000000000         4.526836595913582E-090
   78.1641000000000         6.282025408291868E-091
   78.4035000000000        -6.978832643293876E-090
   78.6429000000000        -1.933088974822312E-089
   78.8823000000000        -3.696677610883437E-089
   79.1217000000000        -5.932949134603944E-089
   79.3611000000000        -8.397174405931708E-089
   79.6005000000000        -1.056297585989920E-088
   79.8399000000000        -1.153243732759830E-088
   80.0793000000000        -9.977603841742623E-089
   80.3187000000000        -4.157213170221057E-089
   80.5581000000000         7.932286827251811E-089
   80.7975000000000         2.820151852425693E-088
   81.0369000000000         5.783907109254590E-088
   81.2763000000000         9.635927424421153E-088
   81.5157000000000         1.403290474521791E-087
   81.7551000000000         1.818692034928863E-087
   81.9945000000000         2.071681300867887E-087
   82.2339000000000         1.954375029154551E-087
   82.4733000000000         1.189664176960253E-087
   82.7127000000000        -5.484329519759839E-088
   82.9521000000000        -3.584152712962596E-087
   83.1915000000000        -8.148624643305558E-087
   83.4309000000000        -1.424014049865626E-086
   83.6703000000000        -2.143564959335465E-086
   83.9097000000000        -2.866612640247113E-086
   84.1491000000000        -3.398833847043650E-086
   84.3885000000000        -3.441217917958997E-086
   84.6279000000000        -2.587415226068975E-086
   84.8673000000000        -3.479028063110008E-087
   85.1067000000000         3.784529913945594E-086
   85.3461000000000         1.021327483253518E-085
   85.5855000000000         1.904924122644775E-085
   85.8249000000000         2.985313293195379E-085
   86.0643000000000         4.132352479882473E-085
   86.3037000000000         5.097113735206813E-085
   86.5431000000000         5.485392746230811E-085
   86.7825000000000         4.748806895640338E-085
   87.0219000000000         2.209073139915946E-085
   87.2613000000000        -2.865848096503364E-085
   87.5007000000000        -1.111447111299112E-084
   87.7401000000000        -2.284800358978041E-084
   87.9795000000000        -3.772538961833921E-084
   88.2189000000000        -5.435216592186364E-084
   88.4583000000000        -6.984828371439460E-084
   88.6977000000000        -7.947067871698198E-084
   88.9371000000000        -7.642479825633241E-084
   89.1765000000000        -5.204902216683587E-084
   89.4159000000000         3.404439756164331E-085
   89.6553000000000         9.915589110547719E-084
   89.8947000000000         2.412516989819477E-083
   90.1341000000000         4.287955243416230E-083
   90.3735000000000         6.491772156089894E-083
   90.6129000000000         8.727456803736209E-083
   90.8523000000000         1.047817135681068E-082
   91.0917000000000         1.097448855937074E-082
   91.3311000000000         9.199765516057770E-083
   91.5705000000000         3.957963227713707E-083
   91.8099000000000        -5.969012869727882E-083
   92.0493000000000        -2.154992144113964E-082
   92.2887000000000        -4.310418782162766E-082
   92.5281000000000        -6.977877435265880E-082
   92.7675000000000        -9.893950644322637E-082
   93.0069000000000        -1.255592344302826E-081
   93.2463000000000        -1.417407764687765E-081
   93.4857000000000        -1.365733591510896E-081
   93.7251000000000        -9.657694467872871E-082
   93.9645000000000        -7.023664984131077E-083
   94.2039000000000         1.455815318472874E-081
   94.4433000000000         3.696531598993643E-081
   94.6827000000000         6.632701922883680E-081
   94.9221000000000         1.007757017932116E-080
   95.1615000000000         1.360754086343385E-080
   95.4009000000000         1.649960419991176E-080
   95.6403000000000         1.769336787354998E-080
   95.8797000000000         1.580162419180582E-080
   96.1191000000000         9.198104815124706E-081
   96.3585000000000        -3.787318543198214E-081
   96.5979000000000        -2.453947711801464E-080
   96.8373000000000        -5.367986088546023E-080
   97.0767000000000        -9.044652326185759E-080
   97.3161000000000        -1.319724177160646E-079
   97.5555000000000        -1.725484819659127E-079
   97.7949000000000        -2.030138613011202E-079
   98.0343000000000        -2.104768756261695E-079
   98.2737000000000        -1.786275903526090E-079
   98.5131000000000        -8.894253251732565E-080
   98.7525000000000         7.691392402591466E-080
   98.9919000000000         3.332404733716606E-079
   99.2313000000000         6.848854606777250E-079
   99.4707000000000         1.120389492027429E-078
   99.7101000000000         1.604158979046934E-078
   99.9495000000000         2.068619366065883E-078
   100.188900000000         2.407870602408293E-078
   100.428300000000         2.474992379280731E-078
   100.667700000000         2.085736315210230E-078
   100.907100000000         1.031766471335927E-078
   101.146500000000        -8.933077008963570E-079
   101.385900000000        -3.852337893800756E-078
   101.625300000000        -7.905993817186133E-078
   101.864700000000        -1.293790689120234E-077
   102.104100000000        -1.856800930418577E-077
   102.343500000000        -2.406338918103181E-077
   102.582900000000        -2.826214121741812E-077
   102.822300000000        -2.953271771238406E-077
   103.061700000000        -2.579840387776005E-077
   103.301100000000        -1.466248068283298E-077
   103.540500000000         6.327453908987223E-078
   103.779900000000         3.924011248230914E-077
   104.019300000000         8.512124196206440E-077
   104.258700000000         1.431523594108140E-076
   104.498100000000         2.096430182932537E-076
   104.737500000000         2.769467882520083E-076
   104.976900000000         3.324631761677550E-076
   105.216300000000         3.579742100580708E-076
   105.455700000000         3.296575883178367E-076
   105.695100000000         2.192039205214171E-076
   105.934500000000        -3.478488802729773E-078
   106.173900000000        -3.654923789210382E-076
   106.413300000000        -8.837385167816873E-076
   106.652700000000        -1.555132307342274E-075
   106.892100000000        -2.344554303386364E-075
   107.131500000000        -3.171491042445244E-075
   107.370900000000        -3.897203070943372E-075
   107.610300000000        -4.315332844838268E-075
   107.849700000000        -4.150040891671535E-075
   108.089100000000        -3.066855021578111E-075
   108.328500000000        -7.021549426842621E-076
   108.567900000000         3.282792612225487E-075
   108.807300000000         9.118564637597628E-075
   109.046700000000         1.681338186327515E-074
   109.286100000000         2.601152712358466E-074
   109.525500000000         3.583578566954383E-074
   109.764900000000         4.473579837552246E-074
   110.004300000000         5.037682446092948E-074
   110.243700000000         4.961684839854628E-074
   110.483100000000         3.863196426326019E-074
   110.722500000000         1.325713297318333E-074
   110.961900000000        -3.039277492407668E-074
   111.201300000000        -9.497362858469314E-074
   111.440700000000        -1.806235719227615E-073
   111.680100000000        -2.833870322371353E-073
   111.919500000000        -3.934929644986849E-073
   112.158900000000        -4.937454794870841E-073
   112.398300000000        -5.584196545501754E-073
   112.637700000000        -5.531917035978912E-073
   112.877100000000        -4.367439123175115E-073
   113.116500000000        -1.647329660962593E-073
   113.355900000000         3.032520829209834E-073
   113.595300000000         9.933422744699353E-073
   113.834700000000         1.903693443897628E-072
   114.074100000000         2.988180276937642E-072
   114.313500000000         4.139174655141987E-072
   114.552900000000         5.172284735486169E-072
   114.792300000000         5.817229648284859E-072
   115.031700000000         5.720247791481272E-072
   115.271100000000         4.464296095553277E-072
   115.510500000000         1.613411798697017E-072
   115.749900000000        -3.213474191512396E-072
   115.989300000000        -1.023673303390802E-071
   116.228700000000        -1.938052741273450E-071
   116.468100000000        -3.011700352740689E-071
   116.707500000000        -4.130891747382102E-071
   116.946900000000        -5.108035766123081E-071
   117.186300000000        -5.675652163043108E-071
   117.425700000000        -5.492316613203609E-071
   117.665100000000        -4.166157796055850E-071
   117.904500000000        -1.301223242585965E-071
   118.143900000000         3.429413781234056E-071
   118.383300000000         1.018292350388659E-070
   118.622700000000         1.882228768170775E-070
   118.862100000000         2.877877889528215E-070
   119.101500000000         3.892027973180474E-070
   119.340900000000         4.745360338677706E-070
   119.580300000000         5.189785933234925E-070
   119.819700000000         4.917255827127714E-070
   120.059100000000         3.584610858344747E-070
   120.298500000000         8.584741782960306E-071
   120.537900000000        -3.517425596672284E-070
   120.777300000000        -9.633038684534849E-070
   121.016700000000        -1.730580200183848E-069
   121.256100000000        -2.596816134977387E-069
   121.495500000000        -3.456632308390991E-069
   121.734900000000        -4.149490063104605E-069
   121.974300000000        -4.459843652423200E-069
   122.213700000000        -4.127465519022160E-069
   122.453100000000        -2.871375486669521E-069
   122.692500000000        -4.300899192512006E-070
   122.931900000000         3.380675603518513E-069
   123.171300000000         8.594320466603840E-069
   123.410700000000         1.500882992146132E-068
   123.650100000000         2.210114886942195E-068
   123.889500000000         2.895538276603942E-068
   124.128900000000         3.422484684572037E-068
   124.368300000000         3.615203524136535E-068
   124.607700000000         3.267232742127033E-068
   124.847100000000         2.162522345479759E-068
   125.086500000000         1.089587521913314E-069
   125.325900000000        -3.015453071142368E-068
   125.565300000000        -7.205620759492806E-068
   125.804700000000        -1.226632835353672E-067
   126.044100000000        -1.775126692656867E-067
   126.283500000000        -2.291591777428685E-067
   126.522900000000        -2.669943007515702E-067
   126.762300000000        -2.775295803708349E-067
   127.001700000000        -2.453230147711665E-067
   127.241100000000        -1.547012202974262E-067
   127.480500000000         7.634850526579368E-069
   127.719900000000         2.491444109842653E-067
   127.959300000000         5.673063896121752E-067
   128.198700000000         9.451948964501049E-067
   128.438100000000         1.347398051688716E-066
   128.677500000000         1.717148142159438E-066
   128.916900000000         1.975735750901531E-066
   129.156300000000         2.025397113385545E-066
   129.395700000000         1.756831062640630E-066
   129.635100000000         1.062255254332958E-066
   129.874500000000        -1.456064615231006E-067
   130.113900000000        -1.909040052141308E-066
   130.353300000000        -4.196932075030352E-066
   130.592700000000        -6.875403634107017E-066
   130.832100000000        -9.681995567781067E-066
   131.071500000000        -1.220939954947877E-065
   131.310900000000        -1.390588774066313E-065
   131.550300000000        -1.410007767818401E-065
   131.789700000000        -1.205709143271487E-065
   132.029100000000        -7.071144790801355E-066
   132.268500000000         1.404180484614715E-066
   132.507900000000         1.359242992341810E-065
   132.747300000000         2.920951433758183E-065
   132.986700000000         4.727859591085931E-065
   133.226100000000         6.597498294869844E-065
   133.465500000000         8.254005389053186E-065
   133.704900000000         9.330930910063502E-065
   133.944300000000         9.390100149435902E-065
   134.183700000000         7.960612075024871E-065
   134.423100000000         4.600564739307964E-065
   134.662500000000        -1.018463098262566E-065
   134.901900000000        -9.007834535747349E-065
   135.141300000000        -1.914754679079134E-064
   135.380700000000        -3.077495354711091E-064
   135.620100000000        -4.269578417820931E-064
   135.859500000000        -5.314150010188352E-064
   136.098900000000        -5.979998216722968E-064
   136.338300000000        -5.994642090128656E-064
   136.577700000000        -5.069679040417936E-064
   136.817100000000        -2.939628923800840E-064
   137.056500000000         5.861104935753294E-065
   137.295900000000         5.560833635139579E-064
   137.535300000000         1.183304448312754E-063
   137.774700000000         1.898244118029142E-063
   138.014100000000         2.627093824522691E-063
   138.253500000000         3.262279531181156E-063
   138.492900000000         3.664924244407100E-063
   138.732300000000         3.673243823538642E-063