  -1.79550000000000         0.000000000000000E+000
  -1.55610000000000         0.000000000000000E+000
  -1.31670000000000         0.000000000000000E+000
  -1.07730000000000         0.000000000000000E+000
 -0.837900000000000         0.000000000000000E+000
 -0.598500000000000         0.000000000000000E+000
 -0.359100000000000         0.000000000000000E+000
 -0.119700000000000         0.000000000000000E+000
  0.119700000000000         0.000000000000000E+000
  0.359100000000000         0.000000000000000E+000
  0.598500000000000         0.000000000000000E+000
  0.837900000000000         0.000000000000000E+000
   1.07730000000000         0.000000000000000E+000
   1.31670000000000         0.000000000000000E+000
   1.55610000000000         0.000000000000000E+000
   1.79550000000000         0.000000000000000E+000
   2.03490000000000         0.000000000000000E+000
   2.27430000000000         0.000000000000000E+000
   2.51370000000000         0.000000000000000E+000
   2.75310000000000         0.000000000000000E+000
   2.99250000000000         0.000000000000000E+000
   3.23190000000000         0.000000000000000E+000
   3.47130000000000         0.000000000000000E+000
   3.71070000000000         0.000000000000000E+000
   3.95010000000000         0.000000000000000E+000
   4.18950000000000         0.000000000000000E+000
   4.42890000000000         0.000000000000000E+000
   4.66830000000000         0.000000000000000E+000
   4.90770000000000         0.000000000000000E+000
   5.14710000000000         0.000000000000000E+000
   5.38650000000000         0.000000000000000E+000
   5.62590000000000         0.000000000000000E+000
   5.86530000000000         0.000000000000000E+000
   6.10470000000000         0.000000000000000E+000
   6.34410000000000         0.000000000000000E+000
   6.58350000000000         0.000000000000000E+000
   6.82290000000000         0.000000000000000E+000
   7.06230000000000         0.000000000000000E+000
   7.30170000000000         0.000000000000000E+000
   7.54110000000000         0.000000000000000E+000
   7.78050000000000         0.000000000000000E+000
   8.01990000000000         0.000000000000000E+000
   8.25930000000000         0.000000000000000E+000
   8.49870000000000         0.000000000000000E+000
   8.73810000000000         0.000000000000000E+000
   8.97750000000000         0.000000000000000E+000
   9.21690000000000         6.574146395831482E-196
   9.45630000000000         7.931328058599044E-190
   9.69570000000000        -4.178996261299908E-183
   9.93510000000000        -1.529016205504524E-181
   10.1745000000000        -4.460573762032325E-180
   10.4139000000000        -1.563207880642605E-178
   10.6533000000000         1.622249177945955E-176
   10.8927000000000         1.648623037046702E-174
   11.1321000000000         7.191393054637685E-173
   11.3715000000000         2.044958413024921E-171
   11.6109000000000         4.335651205661460E-170
   11.8503000000000         7.337837143577233E-169
   12.0897000000000         1.033471417252633E-167
   12.3291000000000         1.245661022316279E-166
   12.5685000000000         1.310850049828920E-165
   12.8079000000000         1.222359290350606E-164
   13.0473000000000         1.021468066625675E-163
   13.2867000000000         7.715572645160230E-163
   13.5261000000000         5.302210488543588E-162
   13.7655000000000         3.330753902674427E-161
   14.0049000000000         1.918432320783644E-160
   14.2443000000000         1.014419932824994E-159
   14.4837000000000         4.919992215492903E-159
   14.7231000000000         2.180014048447086E-158
   14.9625000000000         8.744878820429536E-158
   15.2019000000000         3.115291859922674E-157
   15.4413000000000         9.428890526333182E-157
   15.6807000000000         2.121783258543122E-156
   15.9201000000000         1.203611840357309E-156
   16.1595000000000        -2.223623909425966E-155
   16.3989000000000        -1.721414259124677E-154
   16.6383000000000        -8.807270353303660E-154
   16.8777000000000        -3.699167186322747E-153
   17.1171000000000        -1.349687435190273E-152
   17.3565000000000        -4.349045703352729E-152
   17.5959000000000        -1.231873170448996E-151
   17.8353000000000        -2.975363222045982E-151
   18.0747000000000        -5.550701212278177E-151
   18.3141000000000        -4.556693988983848E-151
   18.5535000000000         2.244441532713804E-150
   18.7929000000000         1.589008522278079E-149
   19.0323000000000         6.715803435420961E-149
   19.2717000000000         2.348682123859789E-148
   19.5111000000000         7.469462938021000E-148
   19.7505000000000         2.279572650677186E-147
   19.9899000000000         6.927005711032213E-147
   20.2293000000000         2.130696699542689E-146
   20.4687000000000         6.577643533839418E-146
   20.7081000000000         1.982103518937224E-145
   20.9475000000000         5.615336361834322E-145
   21.1869000000000         1.425322597194344E-144
   21.4263000000000         2.969705639521275E-144
   21.6657000000000         3.698612287391056E-144
   21.9051000000000        -6.324307886668405E-144
   22.1445000000000        -6.823640711569172E-143
   22.3839000000000        -3.186181267242202E-142
   22.6233000000000        -1.140950879249312E-141
   22.8627000000000        -3.441324596717141E-141
   23.1021000000000        -8.894847391582108E-141
   23.3415000000000        -1.914291412923514E-140
   23.5809000000000        -3.007396410620026E-140
   23.8203000000000        -9.637324744847596E-141
   24.0597000000000         1.696781790437076E-139
   24.2991000000000         9.035121958373575E-139
   24.5385000000000         3.226306059398307E-138
   24.7779000000000         9.432171577674585E-138
   25.0173000000000         2.361492361121880E-137
   25.2567000000000         5.032658699878765E-137
   25.4961000000000         8.528151992934729E-137
   25.7355000000000         8.168924421340185E-137
   25.9749000000000        -1.452374520987161E-136
   26.2143000000000        -1.146872957833170E-135
   26.4537000000000        -4.305308855655606E-135
   26.6931000000000        -1.258914099088021E-134
   26.9325000000000        -3.130328437324410E-134
   27.1719000000000        -6.730776088836733E-134
   27.4113000000000        -1.219119613680857E-133
   27.6507000000000        -1.653801128029309E-133
   27.8901000000000        -6.743004331474780E-134
   28.1295000000000         5.615860138489245E-133
   28.3689000000000         2.678895555235725E-132
   28.6083000000000         8.294310277665226E-132
   28.8477000000000         2.096414060453648E-131
   29.0871000000000         4.551306818553205E-131
   29.3265000000000         8.469865270764381E-131
   29.5659000000000         1.274373328337440E-130
   29.8053000000000         1.178928473815028E-130
   30.0447000000000        -1.122400448506807E-130
   30.2841000000000        -9.697956969324109E-130
   30.5235000000000        -3.291609437992662E-129
   30.7629000000000        -8.538678876417254E-129
   31.0023000000000        -1.873069695025077E-128
   31.2417000000000        -3.540405664781273E-128
   31.4811000000000        -5.600445708992666E-128
   31.7205000000000        -6.473447020614287E-128
   31.9599000000000        -1.322388637046641E-128
   32.1993000000000         2.142248553529911E-127
   32.4387000000000         8.520003410369195E-127
   32.6781000000000         2.305560417305984E-126
   32.9175000000000         5.144879850769677E-126
   33.1569000000000         9.884366311646265E-126
   33.3963000000000         1.622402218350261E-125
   33.6357000000000         2.117210148547962E-125
   33.8751000000000         1.519400906317110E-125
   34.1145000000000        -2.452119432902582E-125
   34.3539000000000        -1.438054530472999E-124
   34.5933000000000        -4.215414672074305E-124
   34.8327000000000        -9.701991210551097E-124
   35.0721000000000        -1.902884129398093E-123
   35.3115000000000        -3.218659698458690E-123
   35.5509000000000        -4.523865664390891E-123
   35.7903000000000        -4.473490061499458E-123
   36.0297000000000         1.838463602586187E-124
   36.2691000000000         1.596572387741125E-122
   36.5085000000000         5.407018040435133E-122
   36.7479000000000         1.306579424917197E-121
   36.9873000000000         2.632131243456083E-121
   37.2267000000000         4.575888881650211E-121
   37.4661000000000         6.768798143227139E-121
   37.7055000000000         7.801053742034323E-121
   37.9449000000000         4.191550914801455E-121
   38.1843000000000        -1.106405668248072E-120
   38.4237000000000        -5.002727981196160E-120
   38.6631000000000        -1.303313940854727E-119
   38.9025000000000        -2.721755489173250E-119
   39.1419000000000        -4.871155605325227E-119
   39.3813000000000        -7.511932719948137E-119
   39.6207000000000        -9.525814162642852E-119
   39.8601000000000        -8.045537025911306E-119
   40.0995000000000         2.766093254941419E-119
   40.3389000000000         3.303527756055112E-118
   40.5783000000000         9.779511386017866E-118
   40.8177000000000         2.151329997143960E-117
   41.0571000000000         3.986369122229167E-117
   41.2965000000000         6.391152815900988E-117
   41.5359000000000         8.691053330044339E-117
   41.7753000000000         9.041580100391576E-117
   42.0147000000000         3.603237238725364E-117
   42.2541000000000        -1.437492841830500E-116
   42.4935000000000        -5.510109767159904E-116
   42.7329000000000        -1.314099494453172E-115
   42.9723000000000        -2.547519898842075E-115
   43.2117000000000        -4.252450049685750E-115
   43.4511000000000        -6.122725013463889E-115
   43.6905000000000        -7.223527822016275E-115
   43.9299000000000        -5.536851397148075E-115
   44.1693000000000         2.558720284849406E-115
   44.4087000000000         2.265783220100641E-114
   44.6481000000000         6.208118862218080E-114
   44.8875000000000         1.281851434327268E-113
   45.1269000000000         2.239795958047833E-113
   45.3663000000000         3.394743496338861E-113
   45.6057000000000         4.372626547450412E-113
   45.8451000000000         4.319327079641199E-113
   46.0845000000000         1.658202456638551E-113
   46.3239000000000        -6.105858260289582E-113
   46.5633000000000        -2.235680479480900E-112
   46.8027000000000        -5.079810310757751E-112
   47.0421000000000        -9.387392132880349E-112
   47.2815000000000        -1.495904511024568E-111
   47.5209000000000        -2.061755136923179E-111
   47.7603000000000        -2.343831036450524E-111
   47.9997000000000        -1.782285378422727E-111
   48.2391000000000         5.315608730718331E-112
   48.4785000000000         5.867750125859533E-111
   48.7179000000000         1.570123914711867E-110
   48.9573000000000         3.123899675273899E-110
   49.1967000000000         5.244827195125497E-110
   49.4361000000000         7.641522092493950E-110
   49.6755000000000         9.497527649112611E-110
   49.9149000000000         9.184216451377468E-110
   50.1543000000000         3.999935361455155E-110
   50.3937000000000        -9.904318418304786E-110
   50.6331000000000        -3.714186653826046E-109
   50.8725000000000        -8.186327883482017E-109
   51.1119000000000        -1.452277380483144E-108
   51.3513000000000        -2.211796613279082E-108
   51.5907000000000        -2.904709364890448E-108
   51.8301000000000        -3.136365633985773E-108
   52.0695000000000        -2.249833228275726E-108
   52.3089000000000         6.836953664249589E-109
   52.5483000000000         6.759696582910023E-108
   52.7877000000000         1.693494428896226E-107
   53.0271000000000         3.143225201042977E-107
   53.2665000000000         4.880051047859990E-107
   53.5059000000000         6.467959892646208E-107
   53.7453000000000         7.052559721447369E-107
   53.9847000000000         5.287832900805973E-107
   54.2241000000000        -5.818629767218295E-108
   54.4635000000000        -1.234021215466032E-106
   54.7029000000000        -3.095169178150242E-106
   54.9423000000000        -5.512121119290227E-106
   55.1817000000000        -7.928880562845093E-106
   55.4211000000000        -9.142767786700343E-106
   55.6605000000000        -7.159583486211767E-106
   55.8999000000000         6.980550739052275E-107
   56.1393000000000         1.715598317206360E-105
   56.3787000000000         4.348022849269808E-105
   56.6181000000000         7.676292336603889E-105
   56.8575000000000         1.058823398147951E-104
   57.0969000000000         1.065747984098282E-104
   57.3363000000000         3.712313499600358E-105
   57.5757000000000        -1.621405599708601E-104
   57.8151000000000        -5.600481892508920E-104
   58.0545000000000        -1.208600525672936E-103
   58.2939000000000        -2.090196416176856E-103
   58.5333000000000        -3.029552228001290E-103
   58.7727000000000        -3.568419053251885E-103
   59.0121000000000        -2.817394461927728E-103
   59.2515000000000         6.707958250250347E-104
   59.4909000000000         8.914989069329914E-103
   59.7303000000000         2.425119459372767E-102
   59.9697000000000         4.858457490528327E-102
   60.2091000000000         8.186876820986122E-102
   60.4485000000000         1.195426586500366E-101
   60.6879000000000         1.487993111064999E-101
   60.9273000000000         1.439422652867981E-101
   61.1667000000000         6.181732252212467E-102
   61.4061000000000        -1.605054877649025E-101
   61.6455000000000        -6.019610777247196E-101
   61.8849000000000        -1.341803676923902E-100
   62.1243000000000        -2.424343798225601E-100
   62.3637000000000        -3.795722435292422E-100
   62.6031000000000        -5.206341421573467E-100
   62.8425000000000        -6.079636461217847E-100
   63.0819000000000        -5.362929533946035E-100
   63.3213000000000        -1.402097722831328E-100
   63.5607000000000         8.079390071906423E-100
   63.8001000000000         2.576611751488102E-099
   64.0395000000000         5.411538855755198E-099
   64.2789000000000         9.407338786979343E-099
   64.5183000000000         1.429173792812142E-098
   64.7577000000000         1.910927303618084E-098
   64.9971000000000         2.181651635150818E-098
   65.2365000000000         1.884930011674862E-098
   65.4759000000000         4.800884885369266E-099
   65.7153000000000        -2.753894275622498E-098
   65.9547000000000        -8.639739680834706E-098
   66.1941000000000        -1.789610113588127E-097
   66.4335000000000        -3.074356603345813E-097
   66.6729000000000        -4.626626521194182E-097
   66.9123000000000        -6.150428773244318E-097
   67.1517000000000        -7.032626222474174E-097
   67.3911000000000        -6.226625419250819E-097
   67.6305000000000        -2.171876808973908E-097
   67.8699000000000         7.182812895543021E-097
   68.1093000000000         2.415029783135919E-096
   68.3487000000000         5.073630840890193E-096
   68.5881000000000         8.757930257555440E-096
   68.8275000000000         1.322663283821723E-095
   69.0669000000000         1.769781262464712E-095
   69.3063000000000         2.056073545545471E-095
   69.5457000000000         1.908285813360571E-095
   69.7851000000000         9.210593704059100E-096
   70.0245000000000        -1.436992228432671E-095
   70.2639000000000        -5.766779583453671E-095
   70.5033000000000        -1.260019988493111E-094
   70.7427000000000        -2.214449652528619E-094
   70.9821000000000        -3.387958053170816E-094
   71.2215000000000        -4.599884931667598E-094
   71.4609000000000        -5.472798507723036E-094
   71.7003000000000        -5.363178099752382E-094
   71.9397000000000        -3.313164131678226E-094
   72.1791000000000         1.939572927459979E-094
   72.4185000000000         1.184000242080504E-093
   72.6579000000000         2.771295839394255E-093
   72.8973000000000         5.020354617475380E-093
   73.1367000000000         7.839639503178273E-093
   73.3761000000000         1.085931714158595E-092
   73.6155000000000         1.328200159938513E-092
   73.8549000000000         1.372931436176766E-092
   74.0943000000000         1.013015561223903E-092
   74.3337000000000        -2.734324616718517E-094
   74.5731000000000        -2.069321879510309E-092
   74.8125000000000        -5.419486830459909E-092
   75.0519000000000        -1.025779687329645E-091
   75.2913000000000        -1.646055200178195E-091
   75.5307000000000        -2.335374694270094E-091
   75.7701000000000        -2.941006013071342E-091
   76.0095000000000        -3.193262058565987E-091
   76.2489000000000        -2.681241701670303E-091
   76.4883000000000        -8.502614910588268E-092
   76.7277000000000         2.958395935279301E-091
   76.9671000000000         9.399189787218932E-091
   77.2065000000000         1.891670724697784E-090
   77.4459000000000         3.141794939246998E-090
   77.6853000000000         4.581287964631643E-090
   77.9247000000000         5.944511396799745E-090
   78.1641000000000         6.748737326755066E-090
   78.4035000000000         6.245294773348757E-090
   78.6429000000000         3.407272257145956E-090
   78.8823000000000        -3.010335238100473E-090
   79.1217000000000        -1.429242014376395E-089
   79.3611000000000        -3.141729569458415E-089
   79.6005000000000        -5.449809119936496E-089
   79.8399000000000        -8.199282411178155E-089
   80.0793000000000        -1.097154011239057E-088
   80.3187000000000        -1.297655913060452E-088
   80.5581000000000        -1.296201377829241E-088
   80.7975000000000        -9.178580197716357E-089
   81.0369000000000         5.408732911218122E-090
   81.2763000000000         1.851476704139462E-088
   81.5157000000000         4.667769379925029E-088
   81.7551000000000         8.570431496149794E-088
   81.9945000000000         1.337566684316442E-087
   82.2339000000000         1.848964156470524E-087
   82.4733000000000         2.273321448275642E-087
   82.7127000000000         2.418575364399092E-087
   82.9521000000000         2.010731750869540E-087
   83.1915000000000         7.024830454326017E-088
   83.4309000000000        -1.890829728345160E-087
   83.6703000000000        -6.115696225324016E-087
   83.9097000000000        -1.215421875364337E-086
   84.1491000000000        -1.984103754682719E-086
   84.3885000000000        -2.842783521328837E-086
   84.6279000000000        -3.631758893801486E-086
   84.8673000000000        -4.081637931570663E-086
   85.1067000000000        -3.798334757463192E-086
   85.3461000000000        -2.269605008773511E-086
   85.5855000000000         1.091781232354654E-086
   85.8249000000000         6.851171690449673E-086
   86.0643000000000         1.538546128017414E-085
   86.3037000000000         2.663687536412696E-085
   86.5431000000000         3.979044184434436E-085
   86.7825000000000         5.290093583308009E-085
   87.0219000000000         6.252772926067031E-085
   87.2613000000000         6.347797802699765E-085
   87.5007000000000         4.880604857461220E-085
   87.7401000000000         1.026189033799614E-085
   87.9795000000000        -6.059019261325643E-085
   88.2189000000000        -1.703672751546120E-084
   88.4583000000000        -3.208283630471396E-084
   88.6977000000000        -5.048008575791334E-084
   88.9371000000000        -7.013339727440491E-084
   89.1765000000000        -8.707227916304527E-084
   89.4159000000000        -9.505446908788590E-084
   89.6553000000000        -8.544223340779381E-084
   89.8947000000000        -4.757862842658342E-084
   90.1341000000000         3.006908006476282E-084
   90.3735000000000         1.577286686281856E-083
   90.6129000000000         3.408951308983470E-083
   90.8523000000000         5.755993003910755E-083
   91.0917000000000         8.425899754624427E-083
   91.3311000000000         1.101057812613746E-082
   91.5705000000000         1.283074748371288E-082
   91.8099000000000         1.290565091956679E-082
   92.0493000000000         9.972784121687174E-083
   92.2887000000000         2.587548533549126E-083
   92.5281000000000        -1.066550100730815E-082
   92.7675000000000        -3.082252862650389E-082
   93.0069000000000        -5.803773669232492E-082
   93.2463000000000        -9.094029007172316E-082
   93.4857000000000        -1.259032204655751E-081
   93.7251000000000        -1.563316144332649E-081
   93.9645000000000        -1.721442615777504E-081
   94.2039000000000        -1.596945452276668E-081
   94.4433000000000        -1.024398241292692E-081
   94.6827000000000         1.729538773214879E-082
   94.9221000000000         2.151339439384014E-081
   95.1615000000000         4.998094479180458E-081
   95.4009000000000         8.666630004796141E-081
   95.6403000000000         1.289810497009821E-080
   95.8797000000000         1.713821454265188E-080
   96.1191000000000         2.046392263313484E-080
   96.3585000000000         2.154226712813359E-080
   96.5979000000000         1.865055451465153E-080
   96.8373000000000         9.792765484028170E-081
   97.0767000000000        -7.051362877306815E-081
   97.3161000000000        -3.351302985374925E-080
   97.5555000000000        -7.023975647975857E-080
   97.7949000000000        -1.161292430190282E-079
   98.0343000000000        -1.674427932707350E-079
   98.2737000000000        -2.169055710688381E-079
   98.5131000000000        -2.529696835315641E-079
   98.7525000000000        -2.594912556381337E-079
   98.9919000000000        -2.161432967079562E-079
   99.2313000000000        -9.993571698778265E-080
   99.4707000000000         1.117798618645384E-079
   99.7101000000000         4.365067717949504E-079
   99.9495000000000         8.798511810322103E-079
   100.188900000000         1.426961724267295E-078
   100.428300000000         2.032739625465301E-078
   100.667700000000         2.611988075466910E-078
   100.907100000000         3.031390173187961E-078
   101.146500000000         3.105997861942551E-078
   101.385900000000         2.603674445998784E-078
   101.625300000000         1.261498478390751E-078
   101.864700000000        -1.181715393669936E-078
   102.104100000000        -4.933171341116932E-078
   102.343500000000        -1.007207824851409E-077
   102.582900000000        -1.645472208099496E-077
   102.822300000000        -2.360399146341388E-077
   103.061700000000        -3.059498732168446E-077
   103.301100000000        -3.595626724008539E-077
   103.540500000000        -3.761538307262487E-077
   103.779900000000        -3.292668230846231E-077
   104.019300000000        -1.882721721609527E-077
   104.258700000000         7.829368342974139E-078
   104.498100000000         4.971413246980251E-077
   104.737500000000         1.082064455017840E-076
   104.976900000000         1.823162546848641E-076
   105.216300000000         2.673898142509051E-076
   105.455700000000         3.537143064606685E-076
   105.695100000000         4.252298675374854E-076
   105.934500000000         4.586691436063230E-076
   106.173900000000         4.235643670987382E-076
   106.413300000000         2.836713925789298E-076
   106.652700000000         4.303652636665882E-079
   106.892100000000        -4.609259561765509E-076
   107.131500000000        -1.122142235197724E-075
   107.370900000000        -1.979435867299334E-075
   107.610300000000        -2.988123065565411E-075
   107.849700000000        -4.045617233407897E-075
   108.089100000000        -4.975162644497742E-075
   108.328500000000        -5.514027417739496E-075
   108.567900000000        -5.311354431054967E-075
   108.807300000000        -3.942226315005932E-075
   109.046700000000        -9.453856825732229E-076
   109.286100000000         4.108020921130211E-075
   109.525500000000         1.150893350419911E-074
   109.764900000000         2.126619509970779E-074
   110.004300000000         3.292843376639927E-074
   110.243700000000         4.538661865160084E-074
   110.483100000000         5.668498077962325E-074
   110.722500000000         6.388360314084982E-074
   110.961900000000         6.303249604718341E-074
   111.201300000000         4.933154250720192E-074
   111.440700000000         1.755912268083233E-074
   111.680100000000        -3.715102372941631E-074
   111.919500000000        -1.181265883543081E-073
   112.158900000000        -2.255554551313866E-073
   112.398300000000        -3.545319239327239E-073
   112.637700000000        -4.929267857300107E-073
   112.877100000000        -6.194001116153941E-073
   113.116500000000        -7.020397709476351E-073
   113.355900000000        -6.982742557822832E-073
   113.595300000000        -5.568426736450683E-073
   113.834700000000        -2.226619747660780E-073
   114.074100000000         3.546457472931155E-073
   114.313500000000         1.208078741831665E-072
   114.552900000000         2.336482572175099E-072
   114.792300000000         3.684568673182443E-072
   115.031700000000         5.121772127773889E-072
   115.271100000000         6.423423315743677E-072
   115.510500000000         7.259277098324800E-072
   115.749900000000         7.195924884959808E-072
   115.989300000000         5.720665655428662E-072
   116.228700000000         2.294577108324643E-072
   116.468100000000        -3.558730869788614E-072
   116.707500000000        -1.212544418059778E-071
   116.946900000000        -2.333744055625413E-071
   117.186300000000        -3.658271942879509E-071
   117.425700000000        -5.051246311290453E-071
   117.665100000000        -6.287993137281396E-071
   117.904500000000        -7.046002664041995E-071
   118.143900000000        -6.911018825831556E-071
   118.383300000000        -5.403999345587129E-071
   118.622700000000        -2.035435052170652E-071
   118.862100000000         3.608111996414544E-071
   119.101500000000         1.174384428289045E-070
   119.340900000000         2.224314193200266E-070
   119.580300000000         3.446462958447930E-070
   119.819700000000         4.709183698033149E-070
   120.059100000000         5.800845048476680E-070
   120.298500000000         6.425495377008614E-070
   120.537900000000         6.211882485044822E-070
   120.777300000000         4.741352001321922E-070
   121.016700000000         1.599583562889536E-070
   121.256100000000        -3.544665997158340E-070
   121.495500000000        -1.083397209138219E-069
   121.734900000000        -2.009502148973440E-069
   121.974300000000        -3.070173051352705E-069
   122.213700000000        -4.144875289753669E-069
   122.453100000000        -5.046403541860514E-069
   122.692500000000        -5.519689872771034E-069
   122.931900000000        -5.252330595197989E-069
   123.171300000000        -3.901022393806371E-069
   123.410700000000        -1.137369955788071E-069
   123.650100000000         3.285205372589306E-069
   123.889500000000         9.444660122891154E-069
   124.128900000000         1.714904264096898E-068
   124.368300000000         2.583151679262208E-068
   124.607700000000         3.445863711453470E-068
   124.847100000000         4.147502716192630E-068
   125.086500000000         4.481279410469181E-068
   125.325900000000         4.199672166741840E-068
   125.565300000000         3.037480480006213E-068
   125.804700000000         7.496209470966847E-069
   126.044100000000        -2.835637535667168E-068
   126.283500000000        -7.749685657344392E-068
   126.522900000000        -1.380777896599571E-067
   126.762300000000        -2.053337277732957E-067
   127.001700000000        -2.709589527415129E-067
   127.241100000000        -3.227943872457302E-067
   127.480500000000        -3.450298970199206E-067
   127.719900000000        -3.191388208136041E-067
   127.959300000000        -2.257395530406544E-067
   128.198700000000        -4.751252146729448E-068
   128.438100000000         2.268197633796561E-067
   128.677500000000         5.976216656812629E-067
   128.916900000000         1.048990293845595E-066
   129.156300000000         1.543603943212916E-066
   129.395700000000         2.018750431734594E-066
   129.635100000000         2.384774656005249E-066
   129.874500000000         2.527358247509214E-066
   130.113900000000         2.315058282227989E-066
   130.353300000000         1.613309870543956E-066
   130.592700000000         3.055672047034552E-067
   130.832100000000        -1.678633389466484E-066
   131.071500000000        -4.330172273150121E-066
   131.310900000000        -7.524493893756918E-066
   131.550300000000        -1.098831132337962E-065
   131.789700000000        -1.427561108607142E-065
   132.029100000000        -1.676124670136350E-065
   132.268500000000        -1.766127521190711E-065
   132.507900000000        -1.608892508532998E-065
   132.747300000000        -1.115321976457453E-065
   132.986700000000        -2.103409620495801E-066
   133.226100000000         1.148377195754490E-065
   133.465500000000         2.948541221534102E-065
   133.704900000000         5.100394976033156E-065
   133.944300000000         7.416190941272506E-065
   134.183700000000         9.596374927583068E-065
   134.423100000000         1.122773200279441E-064
   134.662500000000         1.179912532476372E-064
   134.901900000000         1.074009187134630E-064
   135.141300000000         7.486174149047886E-065
   135.380700000000         1.572246467915410E-065
   135.620100000000        -7.248873609308817E-065
   135.859500000000        -1.887049499661121E-064
   136.098900000000        -3.269302385809065E-064
   136.338300000000        -4.750272645828079E-064
   136.577700000000        -6.139537018562664E-064
   136.817100000000        -7.177634970380183E-064
   137.056500000000        -7.547031347278508E-064
   137.295900000000        -6.897005266056317E-064
   137.535300000000        -4.884504202773675E-064
   137.774700000000        -1.231343567534849E-064
   138.014100000000         4.204288634349858E-064
   138.253500000000         1.134718166427979E-063
   138.492900000000         1.982408302964523E-063
   138.732300000000         2.889483894650099E-063