  -1.42500000000000         0.000000000000000E+000
  -1.23500000000000         3.614610606048562E-014
  -1.04500000000000         4.641705422887744E-013
 -0.855000000000000         3.119708656875127E-012
 -0.665000000000000         1.510596697658934E-011
 -0.475000000000000         5.987146836394096E-011
 -0.285000000000000         2.009120425463607E-010
 -9.499999999999975E-002    5.867914767923465E-010
  9.500000000000020E-002    1.512572027993966E-009
  0.285000000000000         3.466589670150854E-009
  0.475000000000000         7.160537111989826E-009
  0.665000000000000         1.343741901567097E-008
  0.855000000000000         2.323249650351185E-008
   1.04500000000000         3.726356362995152E-008
   1.23500000000000         5.592364679042720E-008
   1.42500000000000         7.908903146558065E-008
   1.61500000000000         1.059819946853062E-007
   1.80500000000000         1.352379314975805E-007
   1.99500000000000         1.649065918039260E-007
   2.18500000000000         1.927079101388525E-007
   2.37500000000000         2.161724570726019E-007
   2.56500000000000         2.330313379214776E-007
   2.75500000000000         2.410462275624830E-007
   2.94500000000000         2.396146183744749E-007
   3.13500000000000         2.259330995662057E-007
   3.32500000000000         1.995331890797716E-007
   3.51500000000000         1.604800834123434E-007
   3.70500000000000         1.097620948674089E-007
   3.89500000000000         4.957555382634189E-008
   4.08500000000000        -1.653583286188069E-008
   4.27500000000000        -8.370329288109102E-008
   4.46500000000000        -1.460373174882643E-007
   4.65500000000000        -1.968857753439787E-007
   4.84500000000000        -2.297433262932505E-007
   5.03500000000000        -2.389222822912220E-007
   5.22500000000000        -2.205123360918838E-007
   5.41500000000000        -1.724721148095262E-007
   5.60500000000000        -9.576603324781260E-008
   5.79500000000000         6.386236847129756E-009
   5.98500000000000         1.266906395277479E-007
   6.17500000000000         2.562378210977322E-007
   6.36500000000000         3.866289880051439E-007
   6.55500000000000         5.077379391967426E-007
   6.74500000000000         6.110448605536430E-007
   6.93500000000000         6.903369360049230E-007
   7.12500000000000         7.399541241367820E-007
   7.31500000000000         7.573538007731355E-007
   7.50500000000000         7.423358937104471E-007
   7.69500000000000         6.961198232797786E-007
   7.88500000000000         6.229457050700058E-007
   8.07500000000000         5.277765268716406E-007
   8.26500000000000         4.200233009291417E-007
   8.45500000000000         2.975856230514487E-007
   8.64500000000000         1.750463599898464E-007
   8.83500000000000         5.244398482759214E-008
   9.02500000000000        -5.957576837693697E-008
   9.21500000000000        -1.527195708365370E-007
   9.40500000000000        -2.209928203456853E-007
   9.59500000000000        -2.582842227102566E-007
   9.78500000000000        -2.584084667929104E-007
   9.97500000000000        -2.242857440831511E-007
   10.1650000000000        -1.537574134865142E-007
   10.3550000000000        -5.169565170005939E-008
   10.5450000000000         7.383507573305314E-008
   10.7350000000000         2.133021025067077E-007
   10.9250000000000         3.544435441164911E-007
   11.1150000000000         4.820414837314921E-007
   11.3050000000000         5.867964188489792E-007
   11.4950000000000         6.602868409664958E-007
   11.6850000000000         6.988330151114798E-007
   11.8750000000000         7.016212424421886E-007
   12.0650000000000         6.703950768821129E-007
   12.2550000000000         6.138770955768260E-007
   12.4450000000000         5.405018583118873E-007
   12.6350000000000         4.601746671490485E-007
   12.8250000000000         3.829250075445367E-007
   13.0150000000000         3.215674711998228E-007
   13.2050000000000         2.742420318958201E-007
   13.3950000000000         2.572179187304371E-007
   13.5850000000000         2.611195167013223E-007
   13.7750000000000         2.986482955609861E-007
   13.9650000000000         3.652758906310574E-007
   14.1550000000000         4.614730100876097E-007
   14.3450000000000         5.884073126505922E-007
   14.5350000000000         7.430588813479780E-007
   14.7250000000000         9.205537779264630E-007
   14.9150000000000         1.112578126963356E-006
   15.1050000000000         1.308740354937292E-006
   15.2950000000000         1.491769384863044E-006
   15.4850000000000         1.646456396366466E-006
   15.6750000000000         1.758847081167223E-006
   15.8650000000000         1.815452555011699E-006
   16.0550000000000         1.806990112207835E-006
   16.2450000000000         1.729318131440090E-006
   16.4350000000000         1.582414712575684E-006
   16.6250000000000         1.375769567804791E-006
   16.8150000000000         1.123665116185195E-006
   17.0050000000000         8.445255419523000E-007
   17.1950000000000         5.587395210944870E-007
   17.3850000000000         2.859334110558494E-007
   17.5750000000000         4.442035467891406E-008
   17.7650000000000        -1.508049705692237E-007
   17.9550000000000        -2.937122800231340E-007
   18.1450000000000        -3.818665096801356E-007
   18.3350000000000        -4.126290737841043E-007
   18.5250000000000        -3.877550612508799E-007
   18.7150000000000        -3.213249206955773E-007
   18.9050000000000        -2.129155961148045E-007
   19.0950000000000        -7.050964790604431E-008
   19.2850000000000         9.864148800928727E-008
   19.4750000000000         2.856298303808038E-007
   19.6650000000000         4.799797638651888E-007
   19.8550000000000         6.691331735095541E-007
   20.0450000000000         8.390643197234858E-007
   20.2350000000000         9.716797314549776E-007
   20.4250000000000         1.052856478362704E-006
   20.6150000000000         1.071099946370764E-006
   20.8050000000000         1.019483582517444E-006
   20.9950000000000         8.949967297894172E-007
   21.1850000000000         7.036237694430499E-007
   21.3750000000000         4.551424738582429E-007
   21.5650000000000         1.679984711275967E-007
   21.7550000000000        -1.359480653527500E-007
   21.9450000000000        -4.323059867425750E-007
   22.1350000000000        -6.986248414649823E-007
   22.3250000000000        -9.156372956523847E-007
   22.5150000000000        -1.070312578854828E-006
   22.7050000000000        -1.156592052305737E-006
   22.8950000000000        -1.168308809255449E-006
   23.0850000000000        -1.122496831214748E-006
   23.2750000000000        -1.021116972446720E-006
   23.4650000000000        -8.762651024140353E-007
   23.6550000000000        -7.014823909091459E-007
   23.8450000000000        -5.165631454960029E-007
   24.0350000000000        -3.236602388599267E-007
   24.2250000000000        -1.344430863007129E-007
   24.4150000000000         4.008452179083995E-008
   24.6050000000000         1.891384877629527E-007
   24.7950000000000         3.093909367135911E-007
   24.9850000000000         3.885781346026478E-007
   25.1750000000000         4.153860054217478E-007
   25.3650000000000         3.851125290809111E-007
   25.5550000000000         2.941604611248164E-007
   25.7450000000000         1.459570456719662E-007
   25.9350000000000        -4.910648506345706E-008
   26.1250000000000        -2.741646534770809E-007
   26.3150000000000        -5.078890224531931E-007
   26.5050000000000        -7.212256566411414E-007
   26.6950000000000        -8.895315919223678E-007
   26.8850000000000        -9.907480205085251E-007
   27.0750000000000        -1.009346105717067E-006
   27.2650000000000        -9.337183046726159E-007
   27.4550000000000        -7.636248835370646E-007
   27.6450000000000        -5.081613063668161E-007
   27.8350000000000        -1.832112990394324E-007
   28.0250000000000         1.888192115080701E-007
   28.2150000000000         5.819208560571786E-007
   28.4050000000000         9.683649974650034E-007
   28.5950000000000         1.328932733510470E-006
   28.7850000000000         1.640627180881057E-006
   28.9750000000000         1.889955976187032E-006
   29.1650000000000         2.061853863491951E-006
   29.3550000000000         2.149752494050164E-006
   29.5450000000000         2.161801770344800E-006
   29.7350000000000         2.086857457059093E-006
   29.9250000000000         1.932514308501430E-006
   30.1150000000000         1.706972898363835E-006
   30.3050000000000         1.423127013271128E-006
   30.4950000000000         1.097669324424625E-006
   30.6850000000000         7.512220490612350E-007
   30.8750000000000         4.148880963812541E-007
   31.0650000000000         1.141961677713041E-007
   31.2550000000000        -1.302122129441256E-007
   31.4450000000000        -2.868498361980022E-007
   31.6350000000000        -3.403895186969274E-007
   31.8250000000000        -2.815555295852179E-007
   32.0150000000000        -1.140451246247145E-007
   32.2050000000000         1.464117466738859E-007
   32.3950000000000         4.763551641750990E-007
   32.5850000000000         8.419838614099629E-007
   32.7750000000000         1.208896872677691E-006
   32.9650000000000         1.542655987410332E-006
   33.1550000000000         1.813125991596371E-006
   33.3450000000000         1.997320517868809E-006
   33.5350000000000         2.082839036158582E-006
   33.7250000000000         2.064604886998386E-006
   33.9150000000000         1.950587303720576E-006
   34.1050000000000         1.754197349954283E-006
   34.2950000000000         1.501181135112494E-006
   34.4850000000000         1.214252264170551E-006
   34.6750000000000         9.138456836964289E-007
   34.8650000000000         6.234313278066844E-007
   35.0550000000000         3.632985235696828E-007
   35.2450000000000         1.512956310562312E-007
   35.4350000000000         1.192723261855583E-009
   35.6250000000000        -7.388428959607604E-008
   35.8150000000000        -6.518570568527370E-008
   36.0050000000000         2.281452076363153E-008
   36.1950000000000         1.960109683960291E-007
   36.3850000000000         4.447924714990323E-007
   36.5750000000000         7.558436884930573E-007
   36.7650000000000         1.109503864146722E-006
   36.9550000000000         1.480783991588839E-006
   37.1450000000000         1.839795903818605E-006
   37.3350000000000         2.158535332339483E-006
   37.5250000000000         2.411532477035822E-006
   37.7150000000000         2.578148548404340E-006
   37.9050000000000         2.647358680368585E-006
   38.0950000000000         2.615946166179839E-006
   38.2850000000000         2.485293359988651E-006
   38.4750000000000         2.273614589765619E-006
   38.6650000000000         2.006925931956023E-006
   38.8550000000000         1.709485706371085E-006
   39.0450000000000         1.408590104451800E-006
   39.2350000000000         1.127255907500572E-006
   39.4250000000000         8.845145767033049E-007
   39.6150000000000         6.932358447318476E-007
   39.8050000000000         5.609291999170904E-007
   39.9950000000000         4.875320020427126E-007
   40.1850000000000         4.678073087608726E-007
   40.3750000000000         4.942360296143451E-007
   40.5650000000000         5.479689101676792E-007
   40.7550000000000         6.302783568123307E-007
   40.9450000000000         7.282255461212471E-007
   41.1350000000000         8.329176278848226E-007
   41.3250000000000         9.352396970583110E-007
   41.5150000000000         1.028769190024439E-006
   41.7050000000000         1.094768738824092E-006
   41.8950000000000         1.125971722809826E-006
   42.0850000000000         1.121494072659111E-006
   42.2750000000000         1.066779028684047E-006
   42.4650000000000         9.593865191103718E-007
   42.6550000000000         8.007031237397281E-007
   42.8450000000000         5.971942002837615E-007
   43.0350000000000         3.607208131516744E-007
   43.2250000000000         1.071085204517856E-007
   43.4150000000000        -1.452443730128547E-007
   43.6050000000000        -3.779943172821284E-007
   43.7950000000000        -5.756469108344717E-007
   43.9850000000000        -7.261038614310425E-007
   44.1750000000000        -8.232544923912791E-007
   44.3650000000000        -8.668049858855699E-007
   44.5550000000000        -8.610470424020499E-007
   44.7450000000000        -8.181992951385096E-007
   44.9350000000000        -7.373995081553909E-007
   45.1250000000000        -6.303019771004208E-007
   45.3150000000000        -5.180353069854496E-007
   45.5050000000000        -3.910926559690731E-007
   45.6950000000000        -2.556410615589919E-007
   45.8850000000000        -1.116485196858526E-007
   46.0750000000000         4.165916383717336E-008
   46.2650000000000         2.040694378625437E-007
   46.4550000000000         3.734422884924564E-007
   46.6450000000000         5.441290085982166E-007
   46.8350000000000         7.074050712151711E-007
   47.0250000000000         8.578395272159804E-007
   47.2150000000000         9.911111780724872E-007
   47.4050000000000         1.094513786345838E-006
   47.5950000000000         1.166266221157157E-006
   47.7850000000000         1.209268766016204E-006
   47.9750000000000         1.225995933923741E-006
   48.1650000000000         1.227609378151279E-006
   48.3550000000000         1.220800347186947E-006
   48.5450000000000         1.214029882130204E-006
   48.7350000000000         1.216028792283817E-006
   48.9250000000000         1.230936186417011E-006
   49.1150000000000         1.264976471022053E-006
   49.3050000000000         1.305525916899746E-006
   49.4950000000000         1.360616902637448E-006
   49.6850000000000         1.410534279397503E-006
   49.8750000000000         1.458682684917405E-006
   50.0650000000000         1.500035465262971E-006
   50.2550000000000         1.524216610090107E-006
   50.4450000000000         1.544957682522727E-006
   50.6350000000000         1.562957380412885E-006
   50.8250000000000         1.584665258575886E-006
   51.0150000000000         1.617549485327575E-006
   51.2050000000000         1.657001645263474E-006
   51.3950000000000         1.706870960027464E-006
   51.5850000000000         1.770691188898343E-006
   51.7750000000000         1.837220103543331E-006
   51.9650000000000         1.899754544335534E-006
   52.1550000000000         1.951129870951192E-006
   52.3450000000000         1.985466314669882E-006
   52.5350000000000         1.997010169552200E-006
   52.7250000000000         1.993882645029051E-006
   52.9150000000000         1.975395063069124E-006
   53.1050000000000         1.944620850636688E-006
   53.2950000000000         1.907213989328443E-006
   53.4850000000000         1.870957679173484E-006
   53.6750000000000         1.841355076282026E-006
   53.8650000000000         1.815379775995755E-006
   54.0550000000000         1.794183947576007E-006
   54.2450000000000         1.777264400667874E-006
   54.4350000000000         1.763045125704136E-006
   54.6250000000000         1.747992345263142E-006
   54.8150000000000         1.732118533028748E-006
   55.0050000000000         1.717152796827635E-006
   55.1950000000000         1.706442795840388E-006
   55.3850000000000         1.704294124543231E-006
   55.5750000000000         1.716933648424493E-006
   55.7650000000000         1.747022551877689E-006
   55.9550000000000         1.800627108652971E-006
   56.1450000000000         1.874582889349701E-006
   56.3350000000000         1.956943119539246E-006
   56.5250000000000         2.037022106405133E-006
   56.7150000000000         2.101102615509360E-006
   56.9050000000000         2.135174903209063E-006
   57.0950000000000         2.127058584615893E-006
   57.2850000000000         2.068938830783069E-006
   57.4750000000000         1.964918375140967E-006
   57.6650000000000         1.815490574157577E-006
   57.8550000000000         1.625297272610863E-006
   58.0450000000000         1.416384579052970E-006
   58.2350000000000         1.203343405159048E-006
   58.4250000000000         1.000947169559301E-006
   58.6150000000000         8.248417540914032E-007
   58.8050000000000         6.805252666605513E-007
   58.9950000000000         5.779833752030506E-007
   59.1850000000000         5.270740180629235E-007
   59.3750000000000         5.169619924209562E-007
   59.5650000000000         5.558925293243030E-007
   59.7550000000000         6.378853687277905E-007
   59.9450000000000         7.603027943686716E-007
   60.1350000000000         9.111071643349268E-007
   60.3250000000000         1.093651275029283E-006
   60.5150000000000         1.299424415331415E-006
   60.7050000000000         1.519974046319463E-006
   60.8950000000000         1.743991855904267E-006
   61.0850000000000         1.956206522251199E-006
   61.2750000000000         2.140270081235757E-006
   61.4650000000000         2.281321499942456E-006
   61.6550000000000         2.365707375234185E-006
   61.8450000000000         2.384073732588537E-006
   62.0350000000000         2.333246830853425E-006
   62.2250000000000         2.214998637127947E-006
   62.4150000000000         2.033379922653383E-006
   62.6050000000000         1.812331634455546E-006
   62.7950000000000         1.570847612018792E-006
   62.9850000000000         1.332083060429289E-006
   63.1750000000000         1.116768610796295E-006
   63.3650000000000         9.440126883510074E-007
   63.5550000000000         8.292993050473328E-007
   63.7450000000000         7.833521134969240E-007
   63.9350000000000         8.016114154434645E-007
   64.1250000000000         8.779047486008267E-007
   64.3150000000000         1.001765693600226E-006
   64.5050000000000         1.160327616645516E-006
   64.6950000000000         1.343412965316639E-006
   64.8850000000000         1.536489053395096E-006
   65.0750000000000         1.719384530249690E-006
   65.2650000000000         1.884953762744155E-006
   65.4550000000000         2.023408752153478E-006
   65.6450000000000         2.125837171833186E-006
   65.8350000000000         2.185413207574609E-006
   66.0250000000000         2.195930399625377E-006
   66.2150000000000         2.152790663424926E-006
   66.4050000000000         2.055741378163595E-006
   66.5950000000000         1.906982432835634E-006
   66.7850000000000         1.715650298723863E-006
   66.9750000000000         1.495455176872977E-006
   67.1650000000000         1.262908367894587E-006
   67.3550000000000         1.037859033197417E-006
   67.5450000000000         8.414467034984761E-007
   67.7350000000000         6.956273057607237E-007
   67.9250000000000         6.204909360192057E-007
   68.1150000000000         6.262582591822095E-007
   68.3050000000000         7.205389308483490E-007
   68.4950000000000         8.976828672786133E-007
   68.6850000000000         1.148907967391715E-006
   68.8750000000000         1.457806016254305E-006
   69.0650000000000         1.802878678254402E-006
   69.2550000000000         2.158981062720076E-006
   69.4450000000000         2.501775442874311E-006
   69.6350000000000         2.811601877369107E-006
   69.8250000000000         3.070437293180827E-006
   70.0150000000000         3.264028713527043E-006
   70.2050000000000         3.383984767247656E-006
   70.3950000000000         3.426379677646646E-006
   70.5850000000000         3.389184547122290E-006
   70.7750000000000         3.280115540260642E-006
   70.9650000000000         3.106828247656284E-006
   71.1550000000000         2.879126825725319E-006
   71.3450000000000         2.610884454095711E-006
   71.5350000000000         2.319245529568136E-006
   71.7250000000000         2.024380469726162E-006
   71.9150000000000         1.747908682477030E-006
   72.1050000000000         1.511836005840735E-006
   72.2950000000000         1.337518001383815E-006
   72.4850000000000         1.240985552168904E-006
   72.6750000000000         1.235396945518080E-006
   72.8650000000000         1.326086253456833E-006
   73.0550000000000         1.506231535235735E-006
   73.2450000000000         1.762881173744507E-006
   73.4350000000000         2.075787156966881E-006
   73.6250000000000         2.418563331250971E-006
   73.8150000000000         2.761886917894020E-006
   74.0050000000000         3.076487685147914E-006
   74.1950000000000         3.336074267017008E-006
   74.3850000000000         3.520219853673382E-006
   74.5750000000000         3.609876156151862E-006
   74.7650000000000         3.611912985566807E-006
   74.9550000000000         3.520430053959405E-006
   75.1450000000000         3.356010197020889E-006
   75.3350000000000         3.130482075974400E-006
   75.5250000000000         2.866905487848560E-006
   75.7150000000000         2.592620910524128E-006
   75.9050000000000         2.331965681464843E-006
   76.0950000000000         2.105089915028981E-006
   76.2850000000000         1.931498478547377E-006
   76.4750000000000         1.825786740355102E-006
   76.6650000000000         1.795028386795570E-006
   76.8550000000000         1.845919020425962E-006
   77.0450000000000         1.981307146157656E-006
   77.2350000000000         2.191703076644003E-006
   77.4250000000000         2.459811956340084E-006
   77.6150000000000         2.765454319121689E-006
   77.8050000000000         3.088857145748841E-006
   77.9950000000000         3.403218510276559E-006
   78.1850000000000         3.681034128836921E-006
   78.3750000000000         3.896142778166001E-006
   78.5650000000000         4.030650155271095E-006
   78.7550000000000         4.059394178215497E-006
   78.9450000000000         3.987248857497461E-006
   79.1350000000000         3.806756005431914E-006
   79.3250000000000         3.532435517212860E-006
   79.5150000000000         3.182838858627810E-006
   79.7050000000000         2.784213102328399E-006
   79.8950000000000         2.366911330338448E-006
   80.0850000000000         1.962843346247899E-006
   80.2750000000000         1.604734412301329E-006
   80.4650000000000         1.316961657770988E-006
   80.6550000000000         1.119561517709488E-006
   80.8450000000000         1.024646544818074E-006
   81.0350000000000         1.033446027131046E-006
   81.2250000000000         1.144819822724181E-006
   81.4150000000000         1.349194483537792E-006
   81.6050000000000         1.631216351109364E-006
   81.7950000000000         1.969456339122137E-006
   81.9850000000000         2.338680179953729E-006
   82.1750000000000         2.711366953184121E-006
   82.3650000000000         3.067198159262644E-006
   82.5550000000000         3.383107931901659E-006
   82.7450000000000         3.639113419458919E-006
   82.9350000000000         3.820810889502564E-006
   83.1250000000000         3.916029835531461E-006
   83.3150000000000         3.920132008853055E-006
   83.5050000000000         3.836251595474926E-006
   83.6950000000000         3.670864551691977E-006
   83.8850000000000         3.436552115120013E-006
   84.0750000000000         3.153275372927128E-006
   84.2650000000000         2.840893918839003E-006
   84.4550000000000         2.523231707964496E-006
   84.6450000000000         2.221872808279026E-006
   84.8350000000000         1.956817771486773E-006
   85.0250000000000         1.743282413367532E-006
   85.2150000000000         1.591370922181190E-006
   85.4050000000000         1.505791965269247E-006
   85.5950000000000         1.484374825857843E-006
   85.7850000000000         1.522099450365650E-006
   85.9750000000000         1.607915347651830E-006
   86.1650000000000         1.728938622761816E-006
   86.3550000000000         1.871913703056966E-006
   86.5450000000000         2.023399565997711E-006
   86.7350000000000         2.171006244796536E-006
   86.9250000000000         2.305835262587687E-006
   87.1150000000000         2.420875179302388E-006
   87.3050000000000         2.511867738859428E-006
   87.4950000000000         2.578275008560342E-006
   87.6850000000000         2.622308215253158E-006
   87.8750000000000         2.646541287019782E-006
   88.0650000000000         2.658286818182553E-006
   88.2550000000000         2.656266936049392E-006
   88.4450000000000         2.650947267178488E-006
   88.6350000000000         2.646769496268452E-006
   88.8250000000000         2.656637618293421E-006
   89.0150000000000         2.683703400228523E-006
   89.2050000000000         2.738147985820840E-006
   89.3950000000000         2.826526736714320E-006
   89.5850000000000         2.951303304129370E-006
   89.7750000000000         3.113345024645262E-006
   89.9650000000000         3.311040041810390E-006
   90.1550000000000         3.539615157353896E-006
   90.3450000000000         3.791035823279349E-006
   90.5350000000000         4.058541085679132E-006
   90.7250000000000         4.322898353650270E-006
   90.9150000000000         4.570841779385690E-006
   91.1050000000000         4.787068644882662E-006
   91.2950000000000         4.957005686407490E-006
   91.4850000000000         5.068656862257440E-006
   91.6750000000000         5.114757918819531E-006
   91.8650000000000         5.090170461398418E-006
   92.0550000000000         4.993194366851059E-006
   92.2450000000000         4.831157430000045E-006
   92.4350000000000         4.609919873583628E-006
   92.6250000000000         4.339608018914368E-006
   92.8150000000000         4.033762159511243E-006
   93.0050000000000         3.707919178570054E-006
   93.1950000000000         3.378355266140987E-006
   93.3850000000000         3.061063635832776E-006
   93.5750000000000         2.771230298320560E-006
   93.7650000000000         2.522501413129945E-006
   93.9550000000000         2.326463971592571E-006
   94.1450000000000         2.191652227089000E-006
   94.3350000000000         2.123531709457609E-006
   94.5250000000000         2.124366889706694E-006
   94.7150000000000         2.190856989420494E-006
   94.9050000000000         2.327744265218593E-006
   95.0950000000000         2.514015624805612E-006
   95.2850000000000         2.746895222748947E-006
   95.4750000000000         3.009018292260582E-006
   95.6650000000000         3.284721338159789E-006
   95.8550000000000         3.558919918318151E-006
   96.0450000000000         3.816903738802568E-006
   96.2350000000000         4.045814397479110E-006
   96.4250000000000         4.235994859369349E-006
   96.6150000000000         4.380663000560965E-006
   96.8050000000000         4.478344169708102E-006
   96.9950000000000         4.530620157930674E-006
   97.1850000000000         4.542693616262972E-006
   97.3750000000000         4.528013195026494E-006
   97.5650000000000         4.486054929347209E-006
   97.7550000000000         4.430392471268844E-006
   97.9450000000000         4.369387837359435E-006
   98.1350000000000         4.310024141537257E-006
   98.3250000000000         4.257645551835907E-006
   98.5150000000000         4.215819972101625E-006
   98.7050000000000         4.186100132111925E-006
   98.8950000000000         4.164690502831489E-006
   99.0850000000000         4.165058886705149E-006
   99.2750000000000         4.170219784782721E-006
   99.4650000000000         4.188757350796554E-006
   99.6550000000000         4.215866276848847E-006
   99.8450000000000         4.242539732654373E-006
   100.035000000000         4.276853012277396E-006
   100.225000000000         4.302804244858015E-006
   100.415000000000         4.326353370979603E-006
   100.605000000000         4.336944588924389E-006
   100.795000000000         4.329204349627493E-006
   100.985000000000         4.297992970235716E-006
   101.175000000000         4.242990697329034E-006
   101.365000000000         4.161070065683604E-006
   101.555000000000         4.056318197779898E-006
   101.745000000000         3.933911635875259E-006
   101.935000000000         3.800563291732566E-006
   102.125000000000         3.665653328548523E-006
   102.315000000000         3.538698085730272E-006
   102.505000000000         3.429408346823069E-006
   102.695000000000         3.343965216082669E-006
   102.885000000000         3.287105148578565E-006
   103.075000000000         3.262673652199179E-006
   103.265000000000         3.272772859363053E-006
   103.455000000000         3.312146970309558E-006
   103.645000000000         3.378466926751984E-006
   103.835000000000         3.466766656505003E-006
   104.025000000000         3.566252076517301E-006
   104.215000000000         3.676618560618964E-006
   104.405000000000         3.794750321919925E-006
   104.595000000000         3.917739985777566E-006
   104.785000000000         4.043090684106420E-006
   104.975000000000         4.167922892017591E-006
   105.165000000000         4.289720580353897E-006
   105.355000000000         4.399617622006174E-006
   105.545000000000         4.492788821176027E-006
   105.735000000000         4.566106654119485E-006
   105.925000000000         4.622049345670432E-006
   106.115000000000         4.645696004245199E-006
   106.305000000000         4.640037449958053E-006
   106.495000000000         4.607216766917663E-006
   106.685000000000         4.552735355247687E-006
   106.875000000000         4.484325552573438E-006
   107.065000000000         4.411084819162593E-006
   107.255000000000         4.342589246568201E-006
   107.445000000000         4.287038564997003E-006
   107.635000000000         4.250346432838275E-006
   107.825000000000         4.235714634940511E-006
   108.015000000000         4.242549161879337E-006
   108.205000000000         4.265884261416841E-006
   108.395000000000         4.306387450941938E-006
   108.585000000000         4.355988961409349E-006
   108.775000000000         4.411733268078157E-006
   108.965000000000         4.458973038779395E-006
   109.155000000000         4.502481970575680E-006
   109.345000000000         4.540170067916573E-006
   109.535000000000         4.572160635299681E-006
   109.725000000000         4.599731273988540E-006
   109.915000000000         4.623814123326882E-006
   110.105000000000         4.645173088018818E-006