  -1.79550000000000         0.000000000000000E+000
  -1.55610000000000         0.000000000000000E+000
  -1.31670000000000         0.000000000000000E+000
  -1.07730000000000         0.000000000000000E+000
 -0.837900000000000         0.000000000000000E+000
 -0.598500000000000         0.000000000000000E+000
 -0.359100000000000         0.000000000000000E+000
 -0.119700000000000         0.000000000000000E+000
  0.119700000000000         0.000000000000000E+000
  0.359100000000000         0.000000000000000E+000
  0.598500000000000         0.000000000000000E+000
  0.837900000000000         0.000000000000000E+000
   1.07730000000000         0.000000000000000E+000
   1.31670000000000         0.000000000000000E+000
   1.55610000000000         0.000000000000000E+000
   1.79550000000000         0.000000000000000E+000
   2.03490000000000         0.000000000000000E+000
   2.27430000000000         0.000000000000000E+000
   2.51370000000000         0.000000000000000E+000
   2.75310000000000         0.000000000000000E+000
   2.99250000000000         0.000000000000000E+000
   3.23190000000000         0.000000000000000E+000
   3.47130000000000         0.000000000000000E+000
   3.71070000000000         0.000000000000000E+000
   3.95010000000000         0.000000000000000E+000
   4.18950000000000         0.000000000000000E+000
   4.42890000000000         0.000000000000000E+000
   4.66830000000000         0.000000000000000E+000
   4.90770000000000         0.000000000000000E+000
   5.14710000000000         0.000000000000000E+000
   5.38650000000000         0.000000000000000E+000
   5.62590000000000         0.000000000000000E+000
   5.86530000000000         0.000000000000000E+000
   6.10470000000000         0.000000000000000E+000
   6.34410000000000         0.000000000000000E+000
   6.58350000000000         0.000000000000000E+000
   6.82290000000000         0.000000000000000E+000
   7.06230000000000         0.000000000000000E+000
   7.30170000000000         0.000000000000000E+000
   7.54110000000000         0.000000000000000E+000
   7.78050000000000         0.000000000000000E+000
   8.01990000000000         0.000000000000000E+000
   8.25930000000000         0.000000000000000E+000
   8.49870000000000         0.000000000000000E+000
   8.73810000000000         0.000000000000000E+000
   8.97750000000000         0.000000000000000E+000
   9.21690000000000         0.000000000000000E+000
   9.45630000000000         0.000000000000000E+000
   9.69570000000000         0.000000000000000E+000
   9.93510000000000         0.000000000000000E+000
   10.1745000000000         6.778793609055729E-207
   10.4139000000000        -9.822540011011569E-200
   10.6533000000000        -2.347682323472243E-198
   10.8927000000000         1.992851538156441E-195
   11.1321000000000         1.459233257508282E-193
   11.3715000000000         5.136135773380573E-192
   11.6109000000000         1.150999466238774E-190
   11.8503000000000         1.798820944442107E-189
   12.0897000000000         1.972147348319741E-188
   12.3291000000000         1.311950860615626E-187
   12.5685000000000        -7.568314659283129E-188
   12.8079000000000        -1.629458024711523E-185
   13.0473000000000        -2.692888109786107E-184
   13.2867000000000        -2.911583208905808E-183
   13.5261000000000        -2.373199733811090E-182
   13.7655000000000        -1.455921040715020E-181
   14.0049000000000        -5.644243385935945E-181
   14.2443000000000         5.524601772462285E-181
   14.4837000000000         3.521965385489914E-179
   14.7231000000000         4.037487213339163E-178
   14.9625000000000         3.255134267010440E-177
   15.2019000000000         2.111727731438817E-176
   15.4413000000000         1.127058672717778E-175
   15.6807000000000         4.705963869763730E-175
   15.9201000000000         1.143705405744101E-174
   16.1595000000000        -3.788422127549176E-174
   16.3989000000000        -7.858010538806633E-173
   16.6383000000000        -7.109362072264324E-172
   16.8777000000000        -5.008940083222966E-171
   17.1171000000000        -3.054645516354211E-170
   17.3565000000000        -1.674909116558591E-169
   17.5959000000000        -8.394723241104284E-169
   17.8353000000000        -3.871099083853807E-168
   18.0747000000000        -1.642251348241777E-167
   18.3141000000000        -6.366639984666474E-167
   18.5535000000000        -2.217662931084823E-166
   18.7929000000000        -6.670884662627224E-166
   19.0323000000000        -1.545470811230403E-165
   19.2717000000000        -1.346542568583959E-165
   19.5111000000000         1.260144957509655E-164
   19.7505000000000         1.074694961166604E-163
   19.9899000000000         5.739697620827159E-163
   20.2293000000000         2.505534637553741E-162
   20.4687000000000         9.538823480037496E-162
   20.7081000000000         3.230257157783355E-161
   20.9475000000000         9.712188624595433E-161
   21.1869000000000         2.528584876591227E-160
   21.4263000000000         5.266316288699255E-160
   21.6657000000000         6.101560862244995E-160
   21.9051000000000        -1.480336939665710E-159
   22.1445000000000        -1.395937862341731E-158
   22.3839000000000        -6.425884924021979E-158
   22.6233000000000        -2.296200967991097E-157
   22.8627000000000        -6.901917503124973E-157
   23.1021000000000        -1.755299727219877E-156
   23.3415000000000        -3.568865421499147E-156
   23.5809000000000        -4.376874669854018E-156
   23.8203000000000         6.043217334218504E-156
   24.0597000000000         6.644477021468536E-155
   24.2991000000000         2.956227571216092E-154
   24.5385000000000         1.001404979806690E-153
   24.7779000000000         2.847724288630136E-153
   25.0173000000000         6.905262007936183E-153
   25.2567000000000         1.375753688351348E-152
   25.4961000000000         1.893291728383064E-152
   25.7355000000000        -2.658745593514902E-153
   25.9749000000000        -1.396699711082793E-151
   26.2143000000000        -6.438395270568641E-151
   26.4537000000000        -2.118193906440073E-150
   26.6931000000000        -5.763489260544357E-150
   26.9325000000000        -1.336186185136158E-149
   27.1719000000000        -2.577040670505044E-149
   27.4113000000000        -3.642037240214510E-149
   27.6507000000000        -1.158027142729129E-149
   27.8901000000000         1.585948629234846E-148
   28.1295000000000         7.614569671603485E-148
   28.3689000000000         2.428538789535131E-147
   28.6083000000000         6.299803431536428E-147
   28.8477000000000         1.383978653205262E-146
   29.0871000000000         2.523076906552970E-146
   29.3265000000000         3.369208440919563E-146
   29.5659000000000         1.029872408086785E-146
   29.8053000000000        -1.296203496008169E-145
   30.0447000000000        -5.880833458034140E-145
   30.2841000000000        -1.769851103222455E-144
   30.5235000000000        -4.330395468356065E-144
   30.7629000000000        -8.966437096598581E-144
   31.0023000000000        -1.537258294939309E-143
   31.2417000000000        -1.912574623667248E-143
   31.4811000000000        -4.300552574597594E-144
   31.7205000000000         7.114302422001601E-143
   31.9599000000000         2.989232462898397E-142
   32.1993000000000         8.468301643890816E-142
   32.4387000000000         1.957818241333304E-141
   32.6781000000000         3.835315514787911E-141
   32.9175000000000         6.219204939041236E-141
   33.1569000000000         7.285897303307956E-141
   33.3963000000000         1.319741322731320E-141
   33.6357000000000        -2.539490768351673E-140
   33.8751000000000        -1.002790388567382E-139
   34.1145000000000        -2.689756004987671E-139
   34.3539000000000        -5.894502992434771E-139
   34.5933000000000        -1.093563413710431E-138
   34.8327000000000        -1.672862650200517E-138
   35.0721000000000        -1.819263778335549E-138
   35.3115000000000        -1.381727855285650E-139
   35.5509000000000         6.399074123460496E-138
   35.7903000000000         2.328011899388107E-137
   36.0297000000000         5.860662915274780E-137
   36.2691000000000         1.206793288835020E-136
   36.5085000000000         2.091856697907921E-136
   36.7479000000000         2.936758041378902E-136
   36.9873000000000         2.713152034690222E-136
   37.2267000000000        -1.012556827031573E-136
   37.4661000000000        -1.291907412165950E-135
   37.7055000000000        -4.042004855009923E-135
   37.9449000000000        -9.245983656269086E-135
   38.1843000000000        -1.738856612197250E-134
   38.4237000000000        -2.709011192665338E-134
   38.6631000000000        -3.219194323927216E-134
   38.9025000000000        -1.700886012570496E-134
   39.1419000000000         4.959735449690263E-134
   39.3813000000000         2.179731976143090E-133
   39.6207000000000         5.505138544835818E-133
   39.8601000000000         1.086165340244231E-132
   40.0995000000000         1.748635342684957E-132
   40.3389000000000         2.164540242172794E-132
   40.5783000000000         1.373147873820399E-132
   40.8177000000000        -2.521730963216402E-132
   41.0571000000000        -1.253417955988053E-131
   41.2965000000000        -3.225269038412120E-131
   41.5359000000000        -6.347991150978932E-131
   41.7753000000000        -1.003340268404205E-130
   42.0147000000000        -1.177567095738210E-130
   42.2541000000000        -5.331699942066436E-131
   42.4935000000000         2.146832592191792E-130
   42.7329000000000         8.795164192811950E-130
   42.9723000000000         2.175359848606563E-129
   43.2117000000000         4.237952280951130E-129
   43.4511000000000         6.750073434686126E-129
   43.6905000000000         8.235218199349170E-129
   43.9299000000000         4.892987455313873E-129
   44.1693000000000        -1.094081077011037E-128
   44.4087000000000        -5.211402463234015E-128
   44.6481000000000        -1.361087045593523E-127
   44.8875000000000        -2.791768976547188E-127
   45.1269000000000        -4.791974805909572E-127
   45.3663000000000        -6.787028096991140E-127
   45.6057000000000        -6.988604703727365E-127
   45.8451000000000        -1.407664671766356E-127
   46.0845000000000         1.730135387775078E-126
   46.3239000000000         6.055996799427181E-126
   46.5633000000000         1.427117844451557E-125
   46.8027000000000         2.752556224532011E-125
   47.0421000000000         4.520619920862364E-125
   47.2815000000000         6.197252727657993E-125
   47.5209000000000         6.274567111704827E-125
   47.7603000000000         1.557793434538417E-125
   47.9997000000000        -1.362462807867873E-124
   48.2391000000000        -4.785017302689188E-124
   48.4785000000000        -1.117007802879453E-123
   48.7179000000000        -2.137678730497887E-123
   48.9573000000000        -3.508405574664998E-123
   49.1967000000000        -4.887940839586912E-123
   49.4361000000000        -5.309942470167756E-123
   49.6755000000000        -2.739875447692875E-123
   49.9149000000000         6.416257980387469E-123
   50.1543000000000         2.760617926712031E-122
   50.3937000000000         6.769919183228476E-122
   50.6331000000000         1.328842290492472E-121
   50.8725000000000         2.234617702045459E-121
   51.1119000000000         3.237030608966244E-121
   51.3513000000000         3.850691643948114E-121
   51.5907000000000         3.024472949496532E-121
   51.8301000000000        -1.131924249810220E-121
   52.0695000000000        -1.154719465918482E-120
   52.3089000000000        -3.207443416455159E-120
   52.5483000000000        -6.663728365881860E-120
   52.7877000000000        -1.169833417589707E-119
   53.0271000000000        -1.781995097262362E-119
   53.2665000000000        -2.311463845905770E-119
   53.5059000000000        -2.314561168837229E-119
   53.7453000000000        -9.615548678420170E-120
   53.9847000000000         3.080968757689619E-119
   54.2241000000000         1.166142095877524E-118
   54.4635000000000         2.688377009051851E-118
   54.7029000000000         5.032032585717405E-118
   54.9423000000000         8.135241291999306E-118
   55.1817000000000         1.142665069169272E-117
   55.4211000000000         1.338629186095479E-117
   55.6605000000000         1.097742645812299E-117
   55.8999000000000        -9.354339743390931E-119
   56.1393000000000        -2.989820936872528E-117
   56.3787000000000        -8.536740773966500E-117
   56.6181000000000        -1.765220391159446E-116
   56.8575000000000        -3.071586779341590E-116
   57.0969000000000        -4.662255935540533E-116
   57.3363000000000        -6.127612513765061E-116
   57.5757000000000        -6.550982420245088E-116
   57.8151000000000        -4.268133789945572E-116
   58.0545000000000         3.332148046306225E-116
   58.2939000000000         1.981523272976876E-115
   58.5333000000000         4.925754698712004E-115
   58.7727000000000         9.497158219802678E-115
   59.0121000000000         1.569131000813899E-114
   59.2515000000000         2.272722878195687E-114
   59.4909000000000         2.839517050768992E-114
   59.7303000000000         2.822243159902990E-114
   59.9697000000000         1.460632255602243E-114
   60.2091000000000        -2.373428178163049E-114
   60.4485000000000        -1.013411153120276E-113
   60.6879000000000        -2.336097641973280E-113
   60.9273000000000        -4.309857165654834E-113
   61.1667000000000        -6.881125174696194E-113
   61.4061000000000        -9.664574899706076E-113
   61.6455000000000        -1.169958592246463E-112
   61.8849000000000        -1.115662641942043E-112
   62.1243000000000        -5.058013752601963E-113
   62.3637000000000         1.085184197795876E-112
   62.6031000000000         4.185409211555365E-112
   62.8425000000000         9.327274299660651E-112
   63.0819000000000         1.683055354945148E-111
   63.3213000000000         2.641645680891641E-111
   63.5607000000000         3.661220515919781E-111
   63.8001000000000         4.394294024187534E-111
   64.0395000000000         4.198851553751800E-111
   64.2789000000000         2.052402362200358E-111
   64.5183000000000        -3.482234657024230E-111
   64.7577000000000        -1.416731822988396E-110
   64.9971000000000        -3.177154204189331E-110
   65.2365000000000        -5.738729678290511E-110
   65.4759000000000        -9.023676696738525E-110
   65.7153000000000        -1.258493786006360E-109
   65.9547000000000        -1.535982845765405E-109
   66.1941000000000        -1.538073410278818E-109
   66.4335000000000        -9.502878393158700E-110
   66.6729000000000         6.731724639144054E-110
   66.9123000000000         3.889514844057204E-109
   67.1517000000000         9.284571674935972E-109
   67.3911000000000         1.728862302185832E-108
   67.6305000000000         2.784693303277106E-108
   67.8699000000000         3.990543685865393E-108
   68.1093000000000         5.069485910993429E-108
   68.3487000000000         5.484971914326513E-108
   68.5881000000000         4.349617569822772E-108
   68.8275000000000         3.598217485825696E-109
   69.0669000000000        -8.192618248229221E-108
   69.3063000000000        -2.325239883612417E-107
   69.5457000000000        -4.656539511477859E-107
   69.7851000000000        -7.883910692745084E-107
   70.0245000000000        -1.183550379969143E-106
   70.2639000000000        -1.589257604302183E-106
   70.5033000000000        -1.872042383725723E-106
   70.7427000000000        -1.795916636910712E-106
   70.9821000000000        -9.940441369696507E-107
   71.2215000000000         1.044033038522803E-106
   71.4609000000000         4.947907969614722E-106
   71.7003000000000         1.137227820771847E-105
   71.9397000000000         2.079048753871830E-105
   72.1791000000000         3.312603379634555E-105
   72.4185000000000         4.717643151679725E-105
   72.6579000000000         5.980906161044119E-105
   72.8973000000000         6.496950801786748E-105
   73.1367000000000         5.265644238740899E-105
   73.3761000000000         8.199631023933655E-106
   73.6155000000000        -8.756258011973257E-105
   73.8549000000000        -2.562845721429879E-104
   74.0943000000000        -5.170302703817562E-104
   74.3337000000000        -8.765944875371323E-104
   74.5731000000000        -1.313759336278295E-103
   74.8125000000000        -1.756646893855201E-103
   75.0519000000000        -2.053953469650239E-103
   75.2913000000000        -1.943937785489512E-103
   75.5307000000000        -1.030012299954395E-103
   75.7701000000000         1.221166326013697E-103
   76.0095000000000         5.434492307733719E-103
   76.2489000000000         1.220052011477612E-102
   76.4883000000000         2.182915646729057E-102
   76.7277000000000         3.394501181726260E-102
   76.9671000000000         4.690389821010620E-102
   77.2065000000000         5.705280269628947E-102
   77.4459000000000         5.793463667828168E-102
   77.6853000000000         3.966272364059264E-102
   77.9247000000000        -1.114048598506711E-102
   78.1641000000000        -1.102446621061282E-101
   78.4035000000000        -2.727633881690799E-101
   78.6429000000000        -5.072573546838277E-101
   78.8823000000000        -8.061859482911850E-101
   79.1217000000000        -1.132376005662183E-100
   79.3611000000000        -1.402228410816286E-100
   79.6005000000000        -1.468216675565249E-100
   79.8399000000000        -1.105971880279511E-100
   80.0793000000000        -1.482791851469942E-102
   80.3187000000000         2.155300706554546E-100
   80.5581000000000         5.734383395905895E-100
   80.7975000000000         1.090253829235475E-099
   81.0369000000000         1.748609759573286E-099
   81.2763000000000         2.467705137785286E-099
   81.5157000000000         3.069668628887180E-099
   81.7551000000000         3.246221200082402E-099
   81.9945000000000         2.536888426513331E-099
   82.2339000000000         3.366290233503035E-100
   82.4733000000000        -4.042434434524785E-099
   82.7127000000000        -1.122552177239082E-098
   82.9521000000000        -2.151643483263094E-098
   83.1915000000000        -3.450587414395903E-098
   83.4309000000000        -4.855218695157583E-098
   83.6703000000000        -6.018549921573864E-098
   83.9097000000000        -6.355595626848567E-098
   84.1491000000000        -5.013973882206816E-098
   84.3885000000000        -9.023381444529182E-099
   84.6279000000000         7.181396887360103E-098
   84.8673000000000         2.027472296115380E-097
   85.1067000000000         3.878559718479307E-097
   85.3461000000000         6.181754276678541E-097
   85.5855000000000         8.631180442028124E-097
   85.8249000000000         1.061128174619931E-096
   86.0643000000000         1.111768007028906E-096
   86.3037000000000         8.728502944217410E-097
   86.5431000000000         1.677348138608312E-097
   86.7825000000000        -1.190896094080600E-096
   87.0219000000000        -3.354184013455222E-096
   87.2613000000000        -6.362029562395162E-096
   87.5007000000000        -1.003888094754230E-095
   87.7401000000000        -1.386732903464036E-095
   87.9795000000000        -1.685866282582407E-095
   88.2189000000000        -1.745588829675999E-095
   88.4583000000000        -1.352368622236659E-095
   88.6977000000000        -2.497878004651549E-096
   88.9371000000000         1.822181153777520E-095
   89.1765000000000         5.055621863589752E-095
   89.4159000000000         9.465965119549460E-095
   89.6553000000000         1.474810916016168E-094
   89.8947000000000         2.011095229505138E-094
   90.1341000000000         2.412054960225113E-094
   90.3735000000000         2.460283329179028E-094
   90.6129000000000         1.867885194855474E-094
   90.8523000000000         3.023492575726065E-095
   91.0917000000000        -2.555546187630045E-094
   91.3311000000000        -6.913802223126370E-094
   91.5705000000000        -1.272844293606566E-093
   91.8099000000000        -1.952694530144230E-093
   92.0493000000000        -2.621793964659468E-093
   92.2887000000000        -3.092922731366693E-093
   92.5281000000000        -3.093900116847905E-093
   92.7675000000000        -2.278659993223776E-093
   93.0069000000000        -2.662231918265706E-094
   93.2463000000000         3.282971710020119E-093
   93.4857000000000         8.547333423194713E-093
   93.7251000000000         1.538241580555207E-092
   93.9645000000000         2.313103879052163E-092
   94.2039000000000         3.043626349585373E-092
   94.4433000000000         3.510905731891851E-092
   94.6827000000000         3.412362372828438E-092
   94.9221000000000         2.382928693059808E-092
   95.1615000000000         4.705673758296052E-094
   95.4009000000000        -3.891310554740846E-092
   95.6403000000000        -9.518983374565684E-092
   95.8797000000000        -1.655157886990692E-091
   96.1191000000000        -2.416067674115249E-091
   96.3585000000000        -3.082848041559366E-091
   96.5979000000000        -3.428651126098685E-091
   96.8373000000000        -3.160969109611207E-091
   97.0767000000000        -1.954240394268959E-091
   97.3161000000000         4.879090259410946E-092
   97.5555000000000         4.338146042574668E-091
   97.7949000000000         9.523018489041525E-091
   98.0343000000000         1.558749645831422E-090
   98.2737000000000         2.157456411417574E-090
   98.5131000000000         2.596214000867152E-090
   98.7525000000000         2.671132917212234E-090
   98.9919000000000         2.148430514328647E-090
   99.2313000000000         8.080763158924454E-091
   99.4707000000000        -1.488765272308811E-090
   99.7101000000000        -4.712043035901213E-090
   99.9495000000000        -8.566585820646539E-090
   100.188900000000        -1.240932316278051E-089
   100.428300000000        -1.521283084635102E-089
   100.667700000000        -1.561676491009973E-089
   100.907100000000        -1.211119632622618E-089
   101.146500000000        -3.387002272806325E-090
   101.385900000000         1.113698061106752E-089
   101.625300000000         3.064651853935869E-089
   101.864700000000         5.222862943579084E-089
   102.104100000000         7.032160973948489E-089
   102.343500000000         7.659671221709464E-089
   102.582900000000         6.061946722964201E-089
   102.822300000000         1.165485547335900E-089
   103.061700000000        -7.809974204992185E-089
   103.301100000000        -2.087922471327737E-088
   103.540500000000        -3.670440469663105E-088
   103.779900000000        -5.198605430245617E-088
   104.019300000000        -6.100043312869602E-088
   104.258700000000        -5.553122486206479E-088
   104.498100000000        -2.550994654345502E-088
   104.737500000000         3.929711919085713E-088
   104.976900000000         1.462739408835904E-087
   105.216300000000         2.955071549726788E-087
   105.455700000000         4.741350534027625E-087
   105.695100000000         6.502307273781812E-087
   105.934500000000         7.676225173613628E-087
   106.173900000000         7.438049392700260E-087
   106.413300000000         4.737817214111965E-087
   106.652700000000        -1.569206503273490E-087
   106.892100000000        -1.247035397145118E-086
   107.131500000000        -2.840268467176166E-086
   107.370900000000        -4.872559727704372E-086
   107.610300000000        -7.110551383025442E-086
   107.849700000000        -9.091520620312581E-086
   108.089100000000        -1.008177781643456E-085
   108.328500000000        -9.077439095432450E-086
   108.567900000000        -4.876870961525613E-086
   108.807300000000         3.744432813429549E-086
   109.046700000000         1.773124074103586E-085
   109.286100000000         3.730852126136532E-085
   109.525500000000         6.142265186238697E-085
   109.764900000000         8.712519799822332E-085
   110.004300000000         1.090158225740760E-084
   110.243700000000         1.189232886388695E-084
   110.483100000000         1.060621716298550E-084
   110.722500000000         5.794088148602619E-085
   110.961900000000        -3.770868766501700E-085
   111.201300000000        -1.897844059514208E-084
   111.440700000000        -3.994248617640685E-084
   111.680100000000        -6.546374488251848E-084
   111.919500000000        -9.246049840076975E-084
   112.158900000000        -1.154828164017789E-083
   112.398300000000        -1.264790592968626E-083
   112.637700000000        -1.150290466613871E-083
   112.877100000000        -6.928152932193333E-084
   113.116500000000         2.218494116811865E-084
   113.355900000000         1.674400266936265E-083
   113.595300000000         3.672439258562430E-083
   113.834700000000         6.103354384725268E-083
   114.074100000000         8.685920476820647E-083
   114.313500000000         1.093094836549225E-082
   114.552900000000         1.212541763010550E-082
   114.792300000000         1.135775363397715E-082
   115.031700000000         7.602993651836096E-083
   115.271100000000        -1.159700761249660E-084
   115.510500000000        -1.248261227508462E-082
   115.749900000000        -2.956213474375654E-082
   115.989300000000        -5.042463999366789E-082
   116.228700000000        -7.276983550327260E-082
   116.468100000000        -9.263738642419136E-082
   116.707500000000        -1.043158315534842E-081
   116.946900000000        -1.005827733129712E-081
   117.186300000000        -7.341033704802430E-082
   117.425700000000        -1.524203087057680E-082
   117.665100000000         7.911984564202973E-082
   117.904500000000         2.100898618995874E-081
   118.143900000000         3.705703689961766E-081
   118.383300000000         5.433439083250063E-081
   118.622700000000         6.992189632535782E-081
   118.862100000000         7.967384062002743E-081
   119.101500000000         7.843545015932336E-081
   119.340900000000         6.059198362582553E-081
   119.580300000000         2.100719259949395E-081
   119.819700000000        -4.364554468690495E-081
   120.059100000000        -1.332403275870787E-080
   120.298500000000        -2.424359757272718E-080
   120.537900000000        -3.591124394320675E-080
   120.777300000000        -4.634486820196387E-080
   121.016700000000        -5.281739356810608E-080
   121.256100000000        -5.205420403019020E-080
   121.495500000000        -4.064824765034031E-080
   121.734900000000        -1.571331137317861E-080
   121.974300000000         2.424656496538953E-080
   122.213700000000         7.833343799417702E-080
   122.453100000000         1.422721626131598E-079
   122.692500000000         2.076776268790459E-079
   122.931900000000         2.618652787115486E-079
   123.171300000000         2.885257913460775E-079
   123.410700000000         2.695532694958943E-079
   123.650100000000         1.882007233139435E-079
   123.889500000000         3.351825741705803E-080
   124.128900000000        -1.942957414286813E-079
   124.368300000000        -4.784136169284115E-079
   124.607700000000        -7.810030332070458E-079
   124.847100000000        -1.041597239735762E-078
   125.086500000000        -1.180085752425435E-078
   125.325900000000        -1.106114311791390E-078
   125.565300000000        -7.361182507768592E-079
   125.804700000000        -1.803650981395385E-080
   126.044100000000         1.038098489643645E-078
   126.283500000000         2.327965455764502E-078
   126.522900000000         3.626261117138866E-078
   126.762300000000         4.575360307857200E-078
   127.001700000000         4.701120700037747E-078
   127.241100000000         3.467840206954028E-078
   127.480500000000         3.818273368687776E-079
   127.719900000000        -4.853252336523273E-078
   127.959300000000        -1.213680770416105E-077
   128.198700000000        -2.075024791641610E-077
   128.438100000000        -2.915573438110554E-077
   128.677500000000        -3.487580710372897E-077
   128.916900000000        -3.453180533776311E-077
   129.156300000000        -2.412749351823840E-077
   129.395700000000         3.423566201077836E-079
   129.635100000000         4.190766003086425E-077
   129.874500000000         1.012697187444063E-076
   130.113900000000         1.751749545742758E-076
   130.353300000000         2.547308175184498E-076
   130.592700000000         3.240182317797095E-076
   130.832100000000         3.594946395410336E-076
   131.071500000000         3.307911801772654E-076
   131.310900000000         2.035456022925575E-076
   131.550300000000        -5.516938026768323E-077
   131.789700000000        -4.685138084100116E-076
   132.029100000000        -1.038796498230542E-075
   132.268500000000        -1.734478987485470E-075
   132.507900000000        -2.476999346146807E-075
   132.747300000000        -3.130167728113837E-075
   132.986700000000        -3.495886700140759E-075
   133.226100000000        -3.320709839613809E-075
   133.465500000000        -2.317980367367559E-075
   133.704900000000        -2.096502021790974E-076
   133.944300000000         3.209969199182940E-075
   134.183700000000         7.989598567023450E-075
   134.423100000000         1.392151032963097E-074
   134.662500000000         2.043949842930126E-074
   134.901900000000         2.653385115733706E-074
   135.141300000000         3.071000710972163E-074
   135.380700000000         3.102310191883287E-074
   135.620100000000         2.522258425898105E-074
   135.859500000000         1.103723175622612E-074
   136.098900000000        -1.338104184620933E-074
   136.338300000000        -4.885806497435160E-074
   136.577700000000        -9.447906199214930E-074
   136.817100000000        -1.468296472233892E-073
   137.056500000000        -1.993237892410017E-073
   137.295900000000        -2.417958099021731E-073
   137.535300000000        -2.605738456437428E-073
   137.774700000000        -2.392710527212116E-073
   138.014100000000        -1.605136615840974E-073
   138.253500000000        -8.756936051902006E-075
   138.492900000000         2.257913015854386E-073
   138.732300000000         5.423212065682951E-073