  -1.79550000000000         0.000000000000000E+000
  -1.55610000000000         0.000000000000000E+000
  -1.31670000000000         0.000000000000000E+000
  -1.07730000000000         0.000000000000000E+000
 -0.837900000000000         0.000000000000000E+000
 -0.598500000000000         0.000000000000000E+000
 -0.359100000000000         0.000000000000000E+000
 -0.119700000000000         0.000000000000000E+000
  0.119700000000000         0.000000000000000E+000
  0.359100000000000         0.000000000000000E+000
  0.598500000000000         0.000000000000000E+000
  0.837900000000000         0.000000000000000E+000
   1.07730000000000         0.000000000000000E+000
   1.31670000000000         0.000000000000000E+000
   1.55610000000000         0.000000000000000E+000
   1.79550000000000         0.000000000000000E+000
   2.03490000000000         0.000000000000000E+000
   2.27430000000000         0.000000000000000E+000
   2.51370000000000         0.000000000000000E+000
   2.75310000000000         0.000000000000000E+000
   2.99250000000000         0.000000000000000E+000
   3.23190000000000         0.000000000000000E+000
   3.47130000000000         0.000000000000000E+000
   3.71070000000000         0.000000000000000E+000
   3.95010000000000         0.000000000000000E+000
   4.18950000000000         0.000000000000000E+000
   4.42890000000000         0.000000000000000E+000
   4.66830000000000         0.000000000000000E+000
   4.90770000000000         0.000000000000000E+000
   5.14710000000000         0.000000000000000E+000
   5.38650000000000         0.000000000000000E+000
   5.62590000000000         0.000000000000000E+000
   5.86530000000000         0.000000000000000E+000
   6.10470000000000         0.000000000000000E+000
   6.34410000000000         0.000000000000000E+000
   6.58350000000000         0.000000000000000E+000
   6.82290000000000         0.000000000000000E+000
   7.06230000000000         0.000000000000000E+000
   7.30170000000000         0.000000000000000E+000
   7.54110000000000         0.000000000000000E+000
   7.78050000000000         0.000000000000000E+000
   8.01990000000000         0.000000000000000E+000
   8.25930000000000         0.000000000000000E+000
   8.49870000000000         0.000000000000000E+000
   8.73810000000000         0.000000000000000E+000
   8.97750000000000         0.000000000000000E+000
   9.21690000000000         0.000000000000000E+000
   9.45630000000000         0.000000000000000E+000
   9.69570000000000         0.000000000000000E+000
   9.93510000000000         0.000000000000000E+000
   10.1745000000000         0.000000000000000E+000
   10.4139000000000         0.000000000000000E+000
   10.6533000000000         2.117876646276958E-220
   10.8927000000000        -4.968166596419582E-210
   11.1321000000000         1.369736631697895E-207
   11.3715000000000         1.688742796839177E-205
   11.6109000000000         6.302494671538674E-204
   11.8503000000000         8.502902256646140E-203
   12.0897000000000        -1.486420205402155E-201
   12.3291000000000        -1.020306000310211E-199
   12.5685000000000        -2.806041860396466E-198
   12.8079000000000        -5.334590848807014E-197
   13.0473000000000        -7.867538661372108E-196
   13.2867000000000        -9.378023305328823E-195
   13.5261000000000        -9.090773750824160E-194
   13.7655000000000        -6.925653445629239E-193
   14.0049000000000        -3.549012759688523E-192
   14.2443000000000        -2.035787995583898E-193
   14.4837000000000         2.713153706880539E-190
   14.7231000000000         4.170273235380936E-189
   14.9625000000000         4.390907528926846E-188
   15.2019000000000         3.754170907506612E-187
   15.4413000000000         2.726343381677615E-186
   15.6807000000000         1.678279346079754E-185
   15.9201000000000         8.191217827063053E-185
   16.1595000000000         2.172516065954308E-184
   16.3989000000000        -1.449302910151590E-183
   16.6383000000000        -3.212649650420928E-182
   16.8777000000000        -3.712168137011878E-181
   17.1171000000000        -3.460391080546227E-180
   17.3565000000000        -2.845749076402636E-179
   17.5959000000000        -2.132569857843240E-178
   17.8353000000000        -1.477451978046717E-177
   18.0747000000000        -9.529613686898729E-177
   18.3141000000000        -5.741324625376013E-176
   18.5535000000000        -3.233720835112361E-175
   18.7929000000000        -1.700597957632546E-174
   19.0323000000000        -8.318327588602732E-174
   19.2717000000000        -3.754617958689105E-173
   19.5111000000000        -1.539591504619972E-172
   19.7505000000000        -5.546848296815259E-172
   19.9899000000000        -1.607412636779024E-171
   20.2293000000000        -2.481283189929447E-171
   20.4687000000000         1.094887208461211E-170
   20.7081000000000         1.395080904216701E-169
   20.9475000000000         9.436076533735435E-169
   21.1869000000000         5.117907501734665E-168
   21.4263000000000         2.426345659054372E-167
   21.6657000000000         1.035598399834745E-166
   21.9051000000000         4.013650672117156E-166
   22.1445000000000         1.404830719039262E-165
   22.3839000000000         4.333503462234750E-165
   22.6233000000000         1.096620162686892E-164
   22.8627000000000         1.680598049164371E-164
   23.1021000000000        -3.456647181701505E-164
   23.3415000000000        -4.782696207845834E-163
   23.5809000000000        -2.898810688155926E-162
   23.8203000000000        -1.388503533805905E-161
   24.0597000000000        -5.843189796485988E-161
   24.2991000000000        -2.244996446445948E-160
   24.5385000000000        -8.015186798974047E-160
   24.7779000000000        -2.682422033034311E-159
   25.0173000000000        -8.446554685338625E-159
   25.2567000000000        -2.502750008338341E-158
   25.4961000000000        -6.953437026620808E-158
   25.7355000000000        -1.795909242787423E-157
   25.9749000000000        -4.235721674957566E-157
   26.2143000000000        -8.769583713123815E-157
   26.4537000000000        -1.425888538257870E-156
   26.6931000000000        -9.349475582978006E-157
   26.9325000000000         5.576193535222489E-156
   27.1719000000000         3.533491865782962E-155
   27.4113000000000         1.404785521606726E-154
   27.6507000000000         4.642505430073785E-154
   27.8901000000000         1.370023375286120E-153
   28.1295000000000         3.717394483276348E-153
   28.3689000000000         9.421135073179697E-153
   28.6083000000000         2.256575389304080E-152
   28.8477000000000         5.178993372113711E-152
   29.0871000000000         1.163410722670958E-151
   29.3265000000000         2.644809586708443E-151
   29.5659000000000         6.343965597368816E-151
   29.8053000000000         1.654646999916898E-150
   30.0447000000000         4.671613181682078E-150
   30.2841000000000         1.378835430932328E-149
   30.5235000000000         4.088393882734311E-149
   30.7629000000000         1.183300817286858E-148
   31.0023000000000         3.287064271482939E-148
   31.2417000000000         8.679660555542288E-148
   31.4811000000000         2.163834258228191E-147
   31.7205000000000         5.055908817452800E-147
   31.9599000000000         1.094915093454712E-146
   32.1993000000000         2.152554548179680E-146
   32.4387000000000         3.669630930927682E-146
   32.6781000000000         4.733286858100761E-146
   32.9175000000000         1.487541870744201E-146
   33.1569000000000        -1.778669245977141E-145
   33.3963000000000        -8.306624489174591E-145
   33.6357000000000        -2.614413493116850E-144
   33.8751000000000        -6.839939177529049E-144
   34.1145000000000        -1.564240074263208E-143
   34.3539000000000        -3.142561760440502E-143
   34.5933000000000        -5.367322512858505E-143
   34.8327000000000        -6.853636758039166E-143
   35.0721000000000        -2.150890237217402E-143
   35.3115000000000         2.444914951019776E-142
   35.5509000000000         1.111912906138425E-141
   35.7903000000000         3.396505558206714E-141
   36.0297000000000         8.618401962637418E-141
   36.2691000000000         1.914158279090163E-140
   36.5085000000000         3.751495798917801E-140
   36.7479000000000         6.326262549387559E-140
   36.9873000000000         8.319681506917339E-140
   37.2267000000000         4.756838703664413E-140
   37.4661000000000        -1.808950475184426E-139
   37.7055000000000        -9.224687050320961E-139
   37.9449000000000        -2.833135787895405E-138
   38.1843000000000        -7.091574484580204E-138
   38.4237000000000        -1.548313909709814E-137
   38.6631000000000        -2.995997012113699E-137
   38.9025000000000        -5.065665938282172E-137
   39.1419000000000        -7.023666580340843E-137
   39.3813000000000        -6.071028903916573E-137
   39.6207000000000         5.324465534484014E-137
   39.8601000000000         4.415300353841733E-136
   40.0995000000000         1.439603928247143E-135
   40.3389000000000         3.628247783417642E-135
   40.5783000000000         7.856900194183998E-135
   40.8177000000000         1.503242838641198E-134
   41.0571000000000         2.527700306882708E-134
   41.2965000000000         3.569365058233277E-134
   41.5359000000000         3.547095918650058E-134
   41.7753000000000        -3.429310897998183E-135
   42.0147000000000        -1.416867251263901E-133
   42.2541000000000        -4.938925975349842E-133
   42.4935000000000        -1.249020938203009E-132
   42.7329000000000        -2.668021127833940E-132
   42.9723000000000        -5.005377119668984E-132
   43.2117000000000        -8.247362967165251E-132
   43.4511000000000        -1.147957285654269E-131
   43.6905000000000        -1.160420889055752E-131
   43.9299000000000        -1.080382490601262E-132
   44.1693000000000         3.549803315889196E-131
   44.4087000000000         1.255482462325206E-130
   44.6481000000000         3.113061697188166E-130
   44.8875000000000         6.458429958931319E-130
   45.1269000000000         1.170776332542053E-129
   45.3663000000000         1.854874622041385E-129
   45.6057000000000         2.461231873283315E-129
   45.8451000000000         2.301859158627178E-129
   46.0845000000000        -1.546837944555001E-130
   46.3239000000000        -7.807912757341867E-129
   46.5633000000000        -2.542939264792142E-128
   46.8027000000000        -5.969595972914117E-128
   47.0421000000000        -1.177624723091564E-127
   47.2815000000000        -2.025440703335508E-127
   47.5209000000000        -3.017983832764834E-127
   47.7603000000000        -3.671451731388144E-127
   47.9997000000000        -2.793105412875752E-127
   48.2391000000000         2.008542182452857E-127
   48.4785000000000         1.486159507845161E-126
   48.7179000000000         4.190616413268778E-126
   48.9573000000000         9.060159881204932E-126
   49.1967000000000         1.667422437584472E-125
   49.4361000000000         2.670556894124321E-125
   49.6755000000000         3.645086319686638E-125
   49.9149000000000         3.833836103751001E-125
   50.1543000000000         1.630992734451687E-125
   50.3937000000000        -5.841835230507588E-125
   50.6331000000000        -2.303735244363792E-124
   50.8725000000000        -5.573410650627465E-124
   51.1119000000000        -1.094316004875508E-123
   51.3513000000000        -1.850939121148416E-123
   51.5907000000000        -2.704869765478873E-123
   51.8301000000000        -3.252824693065757E-123
   52.0695000000000        -2.591233769026923E-123
   52.3089000000000         9.486675763665542E-124
   52.5483000000000         1.001462379481341E-122
   52.7877000000000         2.817049104624295E-122
   53.0271000000000         5.913472724443701E-122
   53.2665000000000         1.046497461352117E-121
   53.5059000000000         1.600852572550972E-121
   53.7453000000000         2.068542470057764E-121
   53.9847000000000         2.012380759795803E-121
   54.2241000000000         6.081895801729116E-122
   54.4635000000000        -3.468744930829115E-121
   54.7029000000000        -1.202955262842833E-120
   54.9423000000000        -2.703645456669167E-120
   55.1817000000000        -4.964572988734962E-120
   55.4211000000000        -7.823855821341882E-120
   55.6605000000000        -1.050575209562522E-119
   55.8999000000000        -1.113185583171621E-119
   56.1393000000000        -6.138449101481386E-120
   56.3787000000000         1.019575366097571E-119
   56.6181000000000         4.566275914544234E-119
   56.8575000000000         1.086840642539023E-118
   57.0969000000000         2.043236280562276E-118
   57.3363000000000         3.262780559964766E-118
   57.5757000000000         4.435244041910018E-118
   57.8151000000000         4.814697711094517E-118
   58.0545000000000         3.004206705975485E-118
   58.2939000000000        -3.200988992746269E-118
   58.5333000000000        -1.673511812886158E-117
   58.7727000000000        -4.064880692569000E-117
   59.0121000000000        -7.653251841117680E-117
   59.2515000000000        -1.214770227195138E-116
   59.4909000000000        -1.631841063211127E-116
   59.7303000000000        -1.733363014337173E-116
   59.9697000000000        -1.004803558801089E-116
   60.2091000000000         1.342433081841244E-116
   60.4485000000000         6.320270400215620E-116
   60.6879000000000         1.491456330963308E-115
   60.9273000000000         2.749332170269743E-115
   61.1667000000000         4.271589846016603E-115
   61.4061000000000         5.584212635507404E-115
   61.6455000000000         5.652985723788429E-115
   61.8849000000000         2.661533530714693E-115
   62.1243000000000        -6.092734837032497E-115
   62.3637000000000        -2.396250788498611E-114
   62.6031000000000        -5.402752487865974E-114
   62.8425000000000        -9.702820357707840E-114
   63.0819000000000        -1.476833761888909E-113
   63.3213000000000        -1.891323607722452E-113
   63.5607000000000        -1.858809949990727E-113
   63.8001000000000        -7.693717176980244E-114
   64.0395000000000         2.269917153855905E-113
   64.2789000000000         8.352535349024018E-113
   64.5183000000000         1.847299853372769E-112
   64.7577000000000         3.287270672390586E-112
   64.9971000000000         4.989154963296585E-112
   65.2365000000000         6.425144464397396E-112
   65.4759000000000         6.488685813395779E-112
   65.7153000000000         3.281479334779302E-112
   65.9547000000000        -5.984075440758779E-112
   66.1941000000000        -2.476784121336857E-111
   66.4335000000000        -5.636841653095233E-111
   66.6729000000000        -1.020838669089978E-110
   66.9123000000000        -1.579667325899059E-110
   67.1517000000000        -2.099402362188704E-110
   67.3911000000000        -2.275292407778858E-110
   67.6305000000000        -1.574328912866973E-110
   67.8699000000000         8.022918905873975E-111
   68.1093000000000         5.878997665580019E-110
   68.3487000000000         1.471011478136954E-109
   68.5881000000000         2.792684172892929E-109
   68.8275000000000         4.491865899418050E-109
   69.0669000000000         6.257551597152948E-109
   69.3063000000000         7.362623724780814E-109
   69.5457000000000         6.483170352646352E-109
   69.7851000000000         1.566385434949243E-109
   70.0245000000000        -1.013655899740474E-108
   70.2639000000000        -3.169157311970207E-108
   70.5033000000000        -6.551427045333453E-108
   70.7427000000000        -1.115442543542885E-107
   70.9821000000000        -1.643477145437695E-107
   71.2215000000000        -2.091469812396693E-107
   71.4609000000000        -2.172290830454172E-107
   71.7003000000000        -1.419607743277537E-107
   71.9397000000000         8.222911644555182E-108
   72.1791000000000         5.341203611141800E-107
   72.4185000000000         1.288010596175233E-106
   72.6579000000000         2.377967654518318E-106
   72.8973000000000         3.738564136297347E-106
   73.1367000000000         5.120170674447716E-106
   73.3761000000000         5.985032009778588E-106
   73.6155000000000         5.404796000695595E-106
   73.8549000000000         2.001888475262791E-106
   74.0943000000000        -5.994733200942087E-106
   74.3337000000000        -2.047863261132539E-105
   74.5731000000000        -4.285607441556527E-105
   74.8125000000000        -7.297479947485528E-105
   75.0519000000000        -1.075184446258652E-104
   75.2913000000000        -1.379225707899805E-104
   75.5307000000000        -1.481086612899161E-104
   75.7701000000000        -1.127068421572088E-104
   76.0095000000000         3.058804368765505E-106
   76.2489000000000         2.400753193908591E-104
   76.4883000000000         6.363893675103534E-104
   76.7277000000000         1.210183297062363E-103
   76.9671000000000         1.932814986096577E-103
   77.2065000000000         2.691838460852576E-103
   77.4459000000000         3.247486396125367E-103
   77.6853000000000         3.191889145087624E-103
   77.9247000000000         1.928400702120798E-103
   78.1641000000000        -1.301881815987634E-103
   78.4035000000000        -7.309889660199122E-103
   78.6429000000000        -1.672259902342703E-102
   78.8823000000000        -2.958325126195626E-102
   79.1217000000000        -4.477084403431244E-102
   79.3611000000000        -5.926882480475542E-102
   79.6005000000000        -6.739326432650606E-102
   79.8399000000000        -6.020790435637569E-102
   80.0793000000000        -2.550104377039942E-102
   80.3187000000000         5.114520545702824E-102
   80.5581000000000         1.835446784625840E-101
   80.7975000000000         3.797004506989803E-101
   81.0369000000000         6.337528220845105E-101
   81.2763000000000         9.151751963200507E-101
   81.5157000000000         1.156306646164888E-100
   81.7551000000000         1.240831029650327E-100
   81.9945000000000         9.978209717064841E-101
   82.2339000000000         2.082300491480249E-101
   82.4733000000000        -1.367275638823673E-100
   82.7127000000000        -3.929376281035010E-100
   82.9521000000000        -7.541778845151946E-100
   83.1915000000000        -1.199068317149916E-099
   83.4309000000000        -1.661016519635824E-099
   83.6703000000000        -2.009930259397411E-099
   83.9097000000000        -2.038134676497334E-099
   84.1491000000000        -1.458448256642734E-099
   84.3885000000000         7.474703489437562E-101
   84.6279000000000         2.908696874525240E-099
   84.8673000000000         7.287430018766545E-099
   85.1067000000000         1.319116374829394E-098
   85.3461000000000         2.012290141326989E-098
   85.5855000000000         2.686352764626035E-098
   85.8249000000000         3.124336590304385E-098
   86.0643000000000         3.001166312011263E-098
   86.3037000000000         1.892115592071750E-098
   86.5431000000000        -6.826174793143184E-099
   86.7825000000000        -5.161766001857461E-098
   87.0219000000000        -1.178288138884706E-097
   87.2613000000000        -2.035487828470403E-097
   87.5007000000000        -2.997677555259154E-097
   87.7401000000000        -3.874201344085727E-097
   87.9795000000000        -4.350172481993242E-097
   88.2189000000000        -3.979878316112847E-097
   88.4583000000000        -2.211962056796212E-097
   88.6977000000000         1.536971905976981E-097
   88.9371000000000         7.745000760907177E-097
   89.1765000000000         1.657501646501120E-096
   89.4159000000000         2.759733507159943E-096
   89.6553000000000         3.947194225245630E-096
   89.8947000000000         4.964791636767707E-096
   90.1341000000000         5.417348332247138E-096
   90.3735000000000         4.774553568541591E-096
   90.6129000000000         2.415221553645209E-096
   90.8523000000000        -2.273767304434636E-096
   91.0917000000000        -9.732571848393912E-096
   91.3311000000000        -1.999614020730188E-095
   91.5705000000000        -3.240997496980258E-095
   91.8099000000000        -4.533296177787504E-095
   92.0493000000000        -5.589500514001435E-095
   92.2887000000000        -5.990645577747714E-095
   92.5281000000000        -5.203862609247500E-095
   92.7675000000000        -2.639977462675508E-095
   93.0069000000000         2.239323258569998E-095
   93.2463000000000         9.761226493472280E-095
   93.4857000000000         1.983618430748199E-094
   93.7251000000000         3.173064993381029E-094
   93.9645000000000         4.386086565262187E-094
   94.2039000000000         5.366915930057979E-094
   94.4433000000000         5.765737777479053E-094
   94.6827000000000         5.165279461071916E-094
   94.9221000000000         3.136270755387398E-094
   95.1615000000000        -6.770891481414011E-095
   95.4009000000000        -6.447733591467642E-094
   95.6403000000000        -1.404782247884361E-093
   95.8797000000000        -2.294756715948769E-093
   96.1191000000000        -3.216341393323366E-093
   96.3585000000000        -4.028917974800101E-093
   96.5979000000000        -4.563377644973829E-093
   96.8373000000000        -4.646448363510075E-093
   97.0767000000000        -4.131410211862640E-093
   97.3161000000000        -2.925744306372119E-093
   97.5555000000000        -1.000858850269602E-093
   97.7949000000000         1.634448879715358E-093
   98.0343000000000         5.013749198450146E-093
   98.2737000000000         9.353089025653356E-093
   98.5131000000000         1.523693053749698E-092
   98.7525000000000         2.379998952995653E-092
   98.9919000000000         3.680732830196776E-092
   99.2313000000000         5.648206848709400E-092
   99.4707000000000         8.488660096784800E-092
   99.7101000000000         1.226530108335537E-091
   99.9495000000000         1.669138933734402E-091
   100.188900000000         2.084427832588683E-091
   100.428300000000         2.283074824058597E-091
   100.667700000000         1.947860159660288E-091
   100.907100000000         6.187436515339051E-092
   101.146500000000        -2.286497681346551E-091
   101.385900000000        -7.391087126116163E-091
   101.625300000000        -1.519070064184794E-090
   101.864700000000        -2.577579642588764E-090
   102.104100000000        -3.843898365393223E-090
   102.343500000000        -5.119215143505600E-090
   102.582900000000        -6.026563877077493E-090
   102.822300000000        -5.972546836286411E-090
   103.061700000000        -4.141844939789744E-090
   103.301100000000         4.474891565765197E-091
   103.540500000000         8.795594690930897E-090
   103.779900000000         2.164839085598687E-089
   104.019300000000         3.908176477073224E-089
   104.258700000000         5.994838958509357E-089
   104.498100000000         8.123603596406310E-089
   104.737500000000         9.744743656184026E-089
   104.976900000000         1.001880202819203E-088
   105.216300000000         7.822940926536096E-089
   105.455700000000         1.838535086767277E-089
   105.695100000000        -9.243480599399535E-089
   105.934500000000        -2.636781575399782E-088
   106.173900000000        -4.959551940438307E-088
   106.413300000000        -7.743750194923029E-088
   106.652700000000        -1.061089801849840E-087
   106.892100000000        -1.288416893223504E-087
   107.131500000000        -1.354721849012438E-087
   107.370900000000        -1.126066569999736E-087
   107.610300000000        -4.472489586807356E-088
   107.849700000000         8.340095643186896E-088
   108.089100000000         2.826701445083801E-087
   108.328500000000         5.538953384657191E-087
   108.567900000000         8.805777810810159E-087
   108.807300000000         1.221007896763643E-086
   109.046700000000         1.501185649721453E-086
   109.286100000000         1.610857250661649E-086
   109.525500000000         1.405736862124998E-086
   109.764900000000         7.195151630906398E-087
   110.004300000000        -6.107351170960594E-087
   110.243700000000        -2.703007494608461E-086
   110.483100000000        -5.572001076848529E-086
   110.722500000000        -9.056890581576154E-086
   110.961900000000        -1.274339797781187E-085
   111.201300000000        -1.589499270127494E-085
   111.440700000000        -1.741545481049394E-085
   111.680100000000        -1.587191642682326E-085
   111.919500000000        -9.611891961061404E-086
   112.158900000000         2.992887817164494E-086
   112.398300000000         2.315184848889718E-085
   112.637700000000         5.110614953786410E-085
   112.877100000000         8.545392338650809E-085
   113.116500000000         1.224271653580023E-084
   113.355900000000         1.552565785025854E-084
   113.595300000000         1.738253427516384E-084
   113.834700000000         1.648711861401714E-084
   114.074100000000         1.130310281272549E-084
   114.313500000000         3.011476662240654E-086
   114.552900000000        -1.769138314877442E-084
   114.792300000000        -4.300571554328145E-084
   115.031700000000        -7.453882811562919E-084
   115.271100000000        -1.091200019670901E-083
   115.510500000000        -1.409542110116757E-083
   115.749900000000        -1.613132856564750E-083
   115.989300000000        -1.586928787327643E-083
   116.228700000000        -1.196796129869762E-083
   116.468100000000        -3.076022031040992E-084
   116.707500000000         1.187671377717927E-083
   116.946900000000         3.327685654418846E-083
   117.186300000000         6.033657719182941E-083
   117.425700000000         9.057005210486422E-083
   117.665100000000         1.193327023485860E-082
   117.904500000000         1.395604865135975E-082
   118.143900000000         1.418822890764941E-082
   118.383300000000         1.152969226934307E-082
   118.622700000000         4.859347826650237E-083
   118.862100000000        -6.736530259823258E-083
   119.101500000000        -2.364956499975057E-082
   119.340900000000        -4.536665523643523E-082
   119.580300000000        -7.006309607775051E-082
   119.819700000000        -9.424485603997962E-082
   120.059100000000        -1.125440539370975E-081
   120.298500000000        -1.177969854245781E-081
   120.537900000000        -1.015456224590187E-081
   120.777300000000        -5.509127747096897E-082
   121.016700000000         2.881736049330266E-082
   121.256100000000         1.536691093094892E-081
   121.495500000000         3.163921587513244E-081
   121.734900000000         5.043974115555725E-081
   121.974300000000         6.929969563001272E-081
   122.213700000000         8.439400987535267E-081
   122.453100000000         9.059731499498927E-081
   122.692500000000         8.183891956856242E-081
   122.931900000000         5.184226031656128E-081
   123.171300000000        -4.700691015318561E-082
   123.410700000000        -9.053356298869384E-081
   123.650100000000        -2.039264018661406E-080
   123.889500000000        -3.366826515588959E-080
   124.128900000000        -4.724281454746419E-080
   124.368300000000        -5.856784842574127E-080
   124.607700000000        -6.422754970923503E-080
   124.847100000000        -6.018033731448919E-080
   125.086500000000        -4.224985095243060E-080
   125.325900000000        -6.891541255378651E-081
   125.565300000000         4.778215087388576E-080
   125.804700000000         1.207964168750938E-079
   126.044100000000         2.070826585322508E-079
   126.283500000000         2.964567071141344E-079
   126.522900000000         3.731155794234159E-079
   126.762300000000         4.160072646846658E-079
   127.001700000000         4.004230619854383E-079
   127.241100000000         3.010828718403855E-079
   127.480500000000         9.681110236712297E-080
   127.719900000000        -2.233748062917478E-079
   127.959300000000        -6.533119857720562E-079
   128.198700000000        -1.162858932370524E-078
   128.438100000000        -1.692602474008904E-078
   128.677500000000        -2.151878150810289E-078
   128.916900000000        -2.422030189694233E-078
   129.156300000000        -2.366665446111120E-078
   129.395700000000        -1.850043035157768E-078
   129.635100000000        -7.636103354237615E-079
   129.874500000000         9.409575463785432E-079
   130.113900000000         3.215929156068664E-078
   130.353300000000         5.884859858298419E-078
   130.592700000000         8.621096536247500E-078
   130.832100000000         1.094671493991813E-077
   131.071500000000         1.226107887876035E-077
   131.310900000000         1.190615615251707E-077
   131.550300000000         9.271232700827563E-078
   131.789700000000         3.932578342426776E-078
   132.029100000000        -4.185729156817331E-078
   132.268500000000        -1.465423388682060E-077
   132.507900000000        -2.641836234563511E-077
   132.747300000000        -3.775836527968110E-077
   132.986700000000        -4.637222875670229E-077
   133.226100000000        -4.961740078140805E-077
   133.465500000000        -4.492834834584275E-077
   133.704900000000        -3.039557381397127E-077
   133.944300000000        -5.448866642057047E-078
   134.183700000000         2.846257048684657E-077
   134.423100000000         6.735006360331658E-077
   134.662500000000         1.045199310853194E-076
   134.901900000000         1.309679623913322E-076
   135.141300000000         1.365085038671675E-076
   135.380700000000         1.117263034802001E-076
   135.620100000000         5.068952658038740E-077
   135.859500000000        -4.584799683328779E-077
   136.098900000000        -1.672804966262406E-076
   136.338300000000        -2.908051350048246E-076
   136.577700000000        -3.808940437101871E-076
   136.817100000000        -3.916683864330710E-076
   137.056500000000        -2.731438909981896E-076
   137.295900000000         1.808061739662446E-077
   137.535300000000         5.038556203487740E-076
   137.774700000000         1.166479532505617E-075
   138.014100000000         1.930272558234397E-075
   138.253500000000         2.646823560985684E-075
   138.492900000000         3.089357593563790E-075
   138.732300000000         2.962515642524470E-075