  -1.79550000000000         0.000000000000000E+000
  -1.55610000000000         0.000000000000000E+000
  -1.31670000000000         0.000000000000000E+000
  -1.07730000000000         0.000000000000000E+000
 -0.837900000000000         0.000000000000000E+000
 -0.598500000000000         0.000000000000000E+000
 -0.359100000000000         0.000000000000000E+000
 -0.119700000000000         0.000000000000000E+000
  0.119700000000000         0.000000000000000E+000
  0.359100000000000         0.000000000000000E+000
  0.598500000000000         0.000000000000000E+000
  0.837900000000000         0.000000000000000E+000
   1.07730000000000         0.000000000000000E+000
   1.31670000000000         0.000000000000000E+000
   1.55610000000000         0.000000000000000E+000
   1.79550000000000         0.000000000000000E+000
   2.03490000000000         0.000000000000000E+000
   2.27430000000000         0.000000000000000E+000
   2.51370000000000         0.000000000000000E+000
   2.75310000000000         0.000000000000000E+000
   2.99250000000000         0.000000000000000E+000
   3.23190000000000         0.000000000000000E+000
   3.47130000000000         0.000000000000000E+000
   3.71070000000000         0.000000000000000E+000
   3.95010000000000         0.000000000000000E+000
   4.18950000000000         0.000000000000000E+000
   4.42890000000000         0.000000000000000E+000
   4.66830000000000         0.000000000000000E+000
   4.90770000000000         0.000000000000000E+000
   5.14710000000000         0.000000000000000E+000
   5.38650000000000         0.000000000000000E+000
   5.62590000000000         0.000000000000000E+000
   5.86530000000000         0.000000000000000E+000
   6.10470000000000         0.000000000000000E+000
   6.34410000000000         0.000000000000000E+000
   6.58350000000000         0.000000000000000E+000
   6.82290000000000         0.000000000000000E+000
   7.06230000000000         0.000000000000000E+000
   7.30170000000000         0.000000000000000E+000
   7.54110000000000         0.000000000000000E+000
   7.78050000000000         0.000000000000000E+000
   8.01990000000000         0.000000000000000E+000
   8.25930000000000         0.000000000000000E+000
   8.49870000000000         0.000000000000000E+000
   8.73810000000000         0.000000000000000E+000
   8.97750000000000         0.000000000000000E+000
   9.21690000000000         0.000000000000000E+000
   9.45630000000000         0.000000000000000E+000
   9.69570000000000         0.000000000000000E+000
   9.93510000000000         0.000000000000000E+000
   10.1745000000000         0.000000000000000E+000
   10.4139000000000         0.000000000000000E+000
   10.6533000000000         3.368462463325241E-222
   10.8927000000000        -5.503215376855331E-216
   11.1321000000000         6.213362471946421E-212
   11.3715000000000        -1.676865678376556E-209
   11.6109000000000        -2.109456245287931E-207
   11.8503000000000        -6.763547615959793E-206
   12.0897000000000         4.027347875223857E-205
   12.3291000000000         1.004908563170331E-202
   12.5685000000000         4.035034164718251E-201
   12.8079000000000         9.897906374067729E-200
   13.0473000000000         1.738218553160887E-198
   13.2867000000000         2.269940306433789E-197
   13.5261000000000         2.108710916627144E-196
   13.7655000000000         9.926024829563865E-196
   14.0049000000000        -9.000508079553250E-195
   14.2443000000000        -2.999989006873220E-193
   14.4837000000000        -4.639921216168549E-192
   14.7231000000000        -5.379538909918409E-191
   14.9625000000000        -5.160554289927609E-190
   15.2019000000000        -4.242209993747216E-189
   15.4413000000000        -3.012882543978879E-188
   15.6807000000000        -1.812022935573400E-187
   15.9201000000000        -8.410425512851902E-187
   16.1595000000000        -1.640733868670301E-186
   16.3989000000000         2.441140432572479E-185
   16.6383000000000         4.462036574495703E-184
   16.8777000000000         5.082133596100062E-183
   17.1171000000000         4.847737394795089E-182
   17.3565000000000         4.163325701110322E-181
   17.5959000000000         3.309096493269526E-180
   17.8353000000000         2.465314623965510E-179
   18.0747000000000         1.733430875873585E-178
   18.3141000000000         1.155350104024505E-177
   18.5535000000000         7.323868566805788E-177
   18.7929000000000         4.428462721971638E-176
   19.0323000000000         2.561287460146469E-175
   19.2717000000000         1.420894795624604E-174
   19.5111000000000         7.582149900586149E-174
   19.7505000000000         3.903091185496860E-173
   19.9899000000000         1.943984479496463E-172
   20.2293000000000         9.395616686287738E-172
   20.4687000000000         4.419194255997090E-171
   20.7081000000000         2.028052150429593E-170
   20.9475000000000         9.101020970958395E-170
   21.1869000000000         4.000222640467859E-169
   21.4263000000000         1.723705532540133E-168
   21.6657000000000         7.282714183301103E-168
   21.9051000000000         3.015166135165890E-167
   22.1445000000000         1.221684891744738E-166
   22.3839000000000         4.835448464986757E-166
   22.6233000000000         1.865307588668132E-165
   22.8627000000000         6.994276441850138E-165
   23.1021000000000         2.541468780582828E-164
   23.3415000000000         8.916927287443212E-164
   23.5809000000000         3.007462424110870E-163
   23.8203000000000         9.692962097223188E-163
   24.0597000000000         2.959397881499229E-162
   24.2991000000000         8.438725394230095E-162
   24.5385000000000         2.188502605284230E-161
   24.7779000000000         4.856557063523762E-161
   25.0173000000000         7.480035839731750E-161
   25.2567000000000        -3.768828191202398E-161
   25.4961000000000        -9.982890075236742E-160
   25.7355000000000        -5.750202514913253E-159
   25.9749000000000        -2.514205003676420E-158
   26.2143000000000        -9.596385798410679E-158
   26.4537000000000        -3.348766517276119E-157
   26.6931000000000        -1.090595366843910E-156
   26.9325000000000        -3.349289846519905E-156
   27.1719000000000        -9.751165009523934E-156
   27.4113000000000        -2.697366333039824E-155
   27.6507000000000        -7.088517284307715E-155
   27.8901000000000        -1.765519226828463E-154
   28.1295000000000        -4.146059911459927E-154
   28.3689000000000        -9.092692816830992E-154
   28.6083000000000        -1.829520597112963E-153
   28.8477000000000        -3.255924261815173E-153
   29.0871000000000        -4.658312788697746E-153
   29.3265000000000        -3.375598178282527E-153
   29.5659000000000         9.080472937844380E-153
   29.8053000000000         5.467481918786186E-152
   30.0447000000000         1.818409769172595E-151
   30.2841000000000         4.808691555536855E-151
   30.5235000000000         1.084360816117925E-150
   30.7629000000000         2.104007139172735E-150
   31.0023000000000         3.417895830575143E-150
   31.2417000000000         4.286851931627681E-150
   31.4811000000000         3.388001271813720E-150
   31.7205000000000         2.436341363781567E-150
   31.9599000000000         2.505515014255478E-149
   32.1993000000000         1.865461230649657E-148
   32.4387000000000         9.104611906343937E-148
   32.6781000000000         3.523421116049200E-147
   32.9175000000000         1.172953158232722E-146
   33.1569000000000         3.492062491938486E-146
   33.3963000000000         9.483303025295187E-146
   33.6357000000000         2.371074129026388E-145
   33.8751000000000         5.467460950042719E-145
   34.1145000000000         1.155611664672905E-144
   34.3539000000000         2.197838368928539E-144
   34.5933000000000         3.588971311530338E-144
   34.8327000000000         4.332080795829955E-144
   35.0721000000000         7.320730590865915E-145
   35.3115000000000        -1.759341146567868E-143
   35.5509000000000        -7.550644636235836E-143
   35.7903000000000        -2.252376474535113E-142
   36.0297000000000        -5.622326372994239E-142
   36.2691000000000        -1.229636616575281E-141
   36.5085000000000        -2.364464868534157E-141
   36.7479000000000        -3.864466907931018E-141
   36.9873000000000        -4.708729249250312E-141
   37.2267000000000        -1.319329005958485E-141
   37.4661000000000         1.587158922625834E-140
   37.7055000000000         6.868217192953021E-140
   37.9449000000000         2.006963414064680E-139
   38.1843000000000         4.873321499072545E-139
   38.4237000000000         1.034384376546187E-138
   38.6631000000000         1.930354756640835E-138
   38.9025000000000         3.070877577804811E-138
   39.1419000000000         3.688343115302297E-138
   39.3813000000000         1.289131324726433E-138
   39.6207000000000        -1.044876935228188E-137
   39.8601000000000        -4.530918165414248E-137
   40.0995000000000        -1.297821883782911E-136
   40.3389000000000        -3.083361127023592E-136
   40.5783000000000        -6.426603369191741E-136
   40.8177000000000        -1.188906064710852E-135
   41.0571000000000        -1.917910162338023E-135
   41.2965000000000        -2.511701522756059E-135
   41.5359000000000        -1.926055094762008E-135
   41.7753000000000         2.431253246251875E-135
   42.0147000000000         1.604303464644277E-134
   42.2541000000000         4.909279771043630E-134
   42.4935000000000         1.180753341260313E-133
   42.7329000000000         2.450688785590416E-133
   42.9723000000000         4.495543576675055E-133
   43.2117000000000         7.224502182301326E-133
   43.4511000000000         9.642286866164702E-133
   43.6905000000000         8.598818311573939E-133
   43.9299000000000        -3.413886638809758E-133
   44.1693000000000        -4.160315045765888E-132
   44.4087000000000        -1.329218579384988E-131
   44.6481000000000        -3.187471537474302E-131
   44.8875000000000        -6.506371329017169E-131
   45.1269000000000        -1.167266358090581E-130
   45.3663000000000        -1.830679177145437E-130
   45.6057000000000        -2.387146294445297E-130
   45.8451000000000        -2.106905609873916E-130
   46.0845000000000         6.388456702450386E-131
   46.3239000000000         8.957668698773085E-130
   46.5633000000000         2.802312822869163E-129
   46.8027000000000         6.520075959055181E-129
   47.0421000000000         1.286437884693916E-128
   47.2815000000000         2.223183437818755E-128
   47.5209000000000         3.340965984605379E-128
   47.7603000000000         4.122217172587067E-128
   47.9997000000000         3.251101263223344E-128
   48.2391000000000        -1.976722979493593E-128
   48.4785000000000        -1.635291210168036E-127
   48.7179000000000        -4.724670785300055E-127
   48.9573000000000        -1.041134411096291E-126
   49.1967000000000        -1.954966273451607E-126
   49.4361000000000        -3.209486050593318E-126
   49.6755000000000        -4.541510292111985E-126
   49.9149000000000        -5.129286351280287E-126
   50.1543000000000        -3.132486487884491E-126
   50.3937000000000         4.897107972874446E-126
   50.6331000000000         2.455713003477236E-125
   50.8725000000000         6.362647414911045E-125
   51.1119000000000         1.306537609321501E-124
   51.3513000000000         2.305042043147594E-124
   51.5907000000000         3.545239736545177E-124
   51.8301000000000         4.625224051792303E-124
   52.0695000000000         4.543841202824017E-124
   52.3089000000000         1.322067426400280E-124
   52.5483000000000        -8.384659186212806E-124
   52.7877000000000        -2.944842909893169E-123
   53.0271000000000        -6.772614314832493E-123
   53.2665000000000        -1.279940803852701E-122
   53.5059000000000        -2.091699320470617E-122
   53.7453000000000        -2.954093638944187E-122
   53.9847000000000        -3.419661830233955E-122
   54.2241000000000        -2.561740490679273E-122
   54.4635000000000         1.225360911364193E-122
   54.7029000000000         1.032966093514450E-121
   54.9423000000000         2.771609558490580E-121
   55.1817000000000         5.606010975628027E-121
   55.4211000000000         9.572717430828814E-121
   55.6605000000000         1.410483779576290E-120
   55.8999000000000         1.745312630966197E-120
   56.1393000000000         1.593357897882841E-120
   56.3787000000000         3.187223771464364E-121
   56.6181000000000        -3.009335938351804E-120
   56.8575000000000        -9.512105073700778E-120
   57.0969000000000        -2.013355272866843E-119
   57.3363000000000        -3.484016914868249E-119
   57.5757000000000        -5.123077160355084E-119
   57.8151000000000        -6.252179856906469E-119
   58.0545000000000        -5.520100880616087E-119
   58.2939000000000        -7.277170962579655E-120
   58.5333000000000         1.109370950465445E-118
   58.7727000000000         3.302509775432168E-118
   59.0121000000000         6.656903111587084E-118
   59.2515000000000         1.084337917839330E-117
   59.4909000000000         1.455098442422384E-117
   59.7303000000000         1.484603281114506E-117
   59.9697000000000         6.585272962553151E-118
   60.2091000000000        -1.766543030079011E-117
   60.4485000000000        -6.638512853812355E-117
   60.6879000000000        -1.452800072156254E-116
   60.9273000000000        -2.493542376445370E-116
   61.1667000000000        -3.495349730603708E-116
   61.4061000000000        -3.738493687584797E-116
   61.6455000000000        -1.864978768942895E-116
   61.8849000000000         4.254655981043441E-116
   62.1243000000000         1.738037334662445E-115
   62.3637000000000         4.015531942971954E-115
   62.6031000000000         7.328230452333907E-115
   62.8425000000000         1.120876184105996E-114
   63.0819000000000         1.410821265612042E-114
   63.3213000000000         1.267149053008080E-114
   63.5607000000000         9.841880077597853E-116
   63.8001000000000        -2.981773093727228E-114
   64.0395000000000        -9.081961835882497E-114
   64.2789000000000        -1.922581799249476E-113
   64.5183000000000        -3.364267936935408E-113
   64.7577000000000        -5.046786831621094E-113
   64.9971000000000        -6.371952470145015E-113
   65.2365000000000        -6.062023438864709E-113
   65.4759000000000        -1.877612446973144E-113
   65.7153000000000         9.548744714335869E-113
   65.9547000000000         3.251494753780295E-112
   66.1941000000000         7.128799818444468E-112
   66.4335000000000         1.278286231251457E-111
   66.6729000000000         1.975778316877122E-111
   66.9123000000000         2.628232116503123E-111
   67.1517000000000         2.837318308102630E-111
   67.3911000000000         1.884086167599074E-111
   67.6305000000000        -1.343986787222751E-111
   67.8699000000000        -8.328990184931888E-111
   68.1093000000000        -2.068680926061960E-110
   68.3487000000000        -3.955881999059523E-110
   68.5881000000000        -6.444239473971182E-110
   68.8275000000000        -9.129742386250032E-110
   69.0669000000000        -1.099003800455241E-109
   69.3063000000000        -1.007319108695913E-109
   69.5457000000000        -3.225491221966725E-110
   69.7851000000000         1.396805045545476E-109
   70.0245000000000         4.674058194785236E-109
   70.2639000000000         9.978133079605974E-109
   70.5033000000000         1.744461227874637E-108
   70.7427000000000         2.640559117550911E-108
   70.9821000000000         3.470649752809698E-108
   71.2215000000000         3.785569196149363E-108
   71.4609000000000         2.817975020595016E-108
   71.7003000000000        -5.642191876403297E-109
   71.9397000000000        -7.801934124284111E-108
   72.1791000000000        -2.039095717176506E-107
   72.4185000000000        -3.930839121795397E-107
   72.6579000000000        -6.399380406478287E-107
   72.8973000000000        -9.080316107955650E-107
   73.1367000000000        -1.109808471428183E-106
   73.3761000000000        -1.084458220549502E-106
   73.6155000000000        -5.809554017181906E-107
   73.8549000000000         7.409871043765219E-107
   74.0943000000000         3.272533639328258E-106
   74.3337000000000         7.354102773403880E-106
   74.5731000000000         1.308195710486089E-105
   74.8125000000000         2.000017545649047E-105
   75.0519000000000         2.667611663751115E-105
   75.2913000000000         3.020152912849738E-105
   75.5307000000000         2.573568762633138E-105
   75.7701000000000         6.314000045693312E-106
   76.0095000000000        -3.672194616848565E-105
   76.2489000000000        -1.121838005698835E-104
   76.4883000000000        -2.258131445012248E-104
   76.7277000000000        -3.748534748661479E-104
   76.9671000000000        -5.401960071857822E-104
   77.2065000000000        -6.765690836430771E-104
   77.4459000000000        -7.024570693173859E-104
   77.6853000000000        -4.932466399975228E-104
   77.9247000000000         1.165746767924199E-104
   78.1641000000000         1.313853672952530E-103
   78.4035000000000         3.259634970141004E-103
   78.6429000000000         6.004238079520795E-103
   78.8823000000000         9.358050541787709E-103
   79.1217000000000         1.272125593006213E-102
   79.3611000000000         1.489371367595983E-102
   79.6005000000000         1.391396494880565E-102
   79.8399000000000         7.013228393475753E-103
   80.0793000000000        -9.188222606789647E-103
   80.3187000000000        -3.807913428860592E-102
   80.5581000000000        -8.187471525311979E-102
   80.7975000000000        -1.397168926799064E-101
   81.0369000000000        -2.050433375673764E-101
   81.2763000000000        -2.624528181174918E-101
   81.5157000000000        -2.846809807723531E-101
   81.7551000000000        -2.308312581988454E-101
   81.9945000000000        -4.762872448921419E-102
   82.2339000000000         3.239497639174884E-101
   82.4733000000000         9.340024010033937E-101
   82.7127000000000         1.798630018952988E-100
   82.9521000000000         2.863495937352585E-100
   83.1915000000000         3.958004859380784E-100
   83.4309000000000         4.747004322984057E-100
   83.6703000000000         4.693870286878146E-100
   83.9097000000000         3.057303094328777E-100
   84.1491000000000        -1.047372264533228E-100
   84.3885000000000        -8.485943842899774E-100
   84.6279000000000        -1.980706666767715E-099
   84.8673000000000        -3.478718097833897E-099
   85.1067000000000        -5.183089446197472E-099
   85.3461000000000        -6.729658553183420E-099
   85.5855000000000        -7.490061955200138E-099
   85.8249000000000        -6.545829162789669E-099
   86.0643000000000        -2.732921036840186E-099
   86.3037000000000         5.198197793756187E-099
   86.5431000000000         1.826105711180907E-098
   86.7825000000000         3.671753483019352E-098
   87.0219000000000         5.936981561442158E-098
   87.2613000000000         8.272390177594728E-098
   87.5007000000000         1.001813949181089E-097
   87.7401000000000         1.015350084620465E-097
   87.9795000000000         7.317140943584319E-098
   88.2189000000000        -5.103492971673284E-100
   88.4583000000000        -1.339271006395400E-097
   88.6977000000000        -3.349638176195572E-097
   88.9371000000000        -5.973651428599735E-097
   89.1765000000000        -8.914130670465565E-097
   89.4159000000000        -1.154396634330650E-096
   89.6553000000000        -1.283623701335706E-096
   89.8947000000000        -1.136089481050680E-096
   90.1341000000000        -5.400714844190882E-097
   90.3735000000000         6.756555129462102E-097
   90.6129000000000         2.630293371400654E-096
   90.8523000000000         5.315708093137370E-096
   91.0917000000000         8.501986229757749E-096
   91.3311000000000         1.163789151133827E-095
   91.5705000000000         1.377244748374726E-095
   91.8099000000000         1.353725537763469E-095
   92.0493000000000         9.240491230532350E-096
   92.2887000000000        -8.722421025186702E-097
   92.5281000000000        -1.814457157912834E-095
   92.7675000000000        -4.280860748456220E-095
   93.0069000000000        -7.310019733511152E-095
   93.2463000000000        -1.043221157705289E-094
   93.4857000000000        -1.281010493126196E-094
   93.7251000000000        -1.322071692094438E-094
   93.9645000000000        -1.014055345352375E-094
   94.2039000000000        -1.983842866748118E-095
   94.4433000000000         1.246650886956515E-094
   94.6827000000000         3.342587311465420E-094
   94.9221000000000         5.931911000834718E-094
   95.1615000000000         8.596514684415183E-094
   95.4009000000000         1.059681397500672E-093
   95.6403000000000         1.086571776861427E-093
   95.8797000000000         8.099915041616463E-094
   96.1191000000000         9.920383124626020E-095
   96.3585000000000        -1.136453981012437E-093
   96.5979000000000        -2.889721341311554E-093
   96.8373000000000        -4.985502017984220E-093
   97.0767000000000        -7.012012058350515E-093
   97.3161000000000        -8.275679524267847E-093
   97.5555000000000        -7.812113247046963E-093
   97.7949000000000        -4.492148414958797E-093
   98.0343000000000         2.738599012188070E-093
   98.2737000000000         1.446140592640601E-092
   98.5131000000000         3.023325356036075E-092
   98.7525000000000         4.794174033651404E-092
   98.9919000000000         6.319998014482946E-092
   99.2313000000000         6.900533580405975E-092
   99.4707000000000         5.597421554075191E-092
   99.7101000000000         1.352327230271962E-092
   99.9495000000000        -6.764575098287302E-092
   100.188900000000        -1.915344456227051E-091
   100.428300000000        -3.513917862031409E-091
   100.667700000000        -5.234084898115667E-091
   100.907100000000        -6.608749539285624E-091
   101.146500000000        -6.909773032857823E-091
   101.385900000000        -5.172560178802300E-091
   101.625300000000        -3.132511824481483E-092
   101.864700000000         8.626321349185356E-091
   102.104100000000         2.208276891163764E-090
   102.343500000000         3.942919884800957E-090
   102.582900000000         5.833944113872775E-090
   102.822300000000         7.417801588815191E-090
   103.061700000000         7.961744401361526E-090
   103.301100000000         6.476809557198751E-090
   103.540500000000         1.816771422719147E-090
   103.779900000000        -7.101570369215122E-090
   104.019300000000        -2.093050523386396E-089
   104.258700000000        -3.937299108158099E-089
   104.498100000000        -6.055191152772544E-089
   104.737500000000        -8.036532011668814E-089
   104.976900000000        -9.200159427122846E-089
   105.216300000000        -8.586932753074204E-089
   105.455700000000        -5.026406019874298E-089
   105.695100000000         2.688085712384211E-089
   105.934500000000         1.548655582255574E-088
   106.173900000000         3.355963355484214E-088
   106.413300000000         5.576671416604283E-088
   106.652700000000         7.898592180445297E-088
   106.892100000000         9.754272704360781E-088
   107.131500000000         1.029286704963450E-087
   107.370900000000         8.409076084891460E-088
   107.610300000000         2.861335669946680E-088
   107.849700000000        -7.490239883348907E-088
   108.089100000000        -2.330662261209675E-087
   108.328500000000        -4.425745688864438E-087
   108.567900000000        -6.841620228522596E-087
   108.807300000000        -9.165904441474406E-087
   109.046700000000        -1.072280122552741E-086
   109.286100000000        -1.056840920169276E-086
   109.525500000000        -7.552633299653575E-087
   109.764900000000        -4.764973043218324E-088
   110.004300000000         1.163177537679265E-086
   110.243700000000         2.911357441572199E-086
   110.483100000000         5.116829694358648E-086
   110.722500000000         7.529193434308006E-086
   110.961900000000         9.677547432105476E-086
   111.201300000000         1.084290685791498E-085
   111.440700000000         1.007487595082177E-085
   111.680100000000         6.277163815758674E-086
   111.919500000000        -1.614850266292521E-086
   112.158900000000        -1.434933709634355E-085
   112.398300000000        -3.196776317419796E-085
   112.637700000000        -5.333805080542992E-085
   112.877100000000        -7.567714616712240E-085
   113.116500000000        -9.417312923031798E-085
   113.355900000000        -1.018617313663062E-084
   113.595300000000        -8.994690257102337E-085
   113.834700000000        -4.876531647675680E-085
   114.074100000000         3.043708076825517E-085
   114.313500000000         1.528401310536408E-084
   114.552900000000         3.165858616996102E-084
   114.792300000000         5.088514516161408E-084
   115.031700000000         7.021081058370969E-084
   115.271100000000         8.515642464308151E-084
   115.510500000000         8.951135315070000E-084
   115.749900000000         7.573112037306140E-084
   115.989300000000         3.588678659477327E-084
   116.228700000000        -3.672537787056466E-084
   116.468100000000        -1.452948512810893E-083
   116.707500000000        -2.866558174762303E-083
   116.946900000000        -4.482239684250675E-083
   117.186300000000        -6.052850808569065E-083
   117.425700000000        -7.194626192497995E-083
   117.665100000000        -7.394012098654142E-083
   117.904500000000        -6.047956413687351E-083
   118.143900000000        -2.547834177500182E-083
   118.383300000000         3.586875709093757E-083
   118.622700000000         1.252679993393255E-082
   118.862100000000         2.391616178572553E-082
   119.101500000000         3.665029917949617E-082
   119.340900000000         4.869344519971504E-082
   119.580300000000         5.699990282660046E-082
   119.819700000000         5.761394562900876E-082
   120.059100000000         4.602598438649757E-082
   120.298500000000         1.784880240095338E-082
   120.537900000000        -3.015766018695846E-082
   120.777300000000        -9.874530618240165E-082
   121.016700000000        -1.846396827677169E-081
   121.256100000000        -2.790310517523308E-081
   121.495500000000        -3.664370359339806E-081
   121.734900000000        -4.243826168310263E-081
   121.974300000000        -4.244053412868051E-081
   122.213700000000        -3.348790405603556E-081
   122.453100000000        -1.260211065574062E-081
   122.692500000000         2.228253897967924E-081
   122.931900000000         7.139796485558492E-081
   123.171300000000         1.321215506533473E-080
   123.410700000000         1.980188558639997E-080
   123.650100000000         2.581837698501697E-080
   123.889500000000         2.971680015088505E-080
   124.128900000000         2.958178954809638E-080
   124.368300000000         2.333092714371056E-080
   124.607700000000         9.056919890566781E-081
   124.847100000000        -1.449186051199286E-080
   125.086500000000        -4.732156443344548E-080
   125.325900000000        -8.755990090517669E-080
   125.565300000000        -1.308878598343724E-079
   125.804700000000        -1.701840217043608E-079
   126.044100000000        -1.955587226919188E-079
   126.283500000000        -1.949627937185534E-079
   126.522900000000        -1.555290354495090E-079
   126.762300000000        -6.573313788682963E-080
   127.001700000000         8.166247526746213E-080
   127.241100000000         2.860929671165539E-079
   127.480500000000         5.355294920255206E-079
   127.719900000000         8.033282641065682E-079
   127.959300000000         1.046454377223410E-078
   128.198700000000         1.206076483687425E-078
   128.438100000000         1.211523769157491E-078
   128.677500000000         9.883935550323168E-079
   128.916900000000         4.711462178486823E-079
   129.156300000000        -3.801991964237530E-079
   129.395700000000        -1.560629720706499E-078
   129.635100000000        -3.000470626939927E-078
   129.874500000000        -4.549160755906182E-078
   130.113900000000        -5.967119238683723E-078
   130.353300000000        -6.930851791243391E-078
   130.592700000000        -7.056168512956807E-078
   130.832100000000        -5.943049731681712E-078
   131.071500000000        -3.243104561674404E-078
   131.310900000000         1.253317852712816E-078
   131.550300000000         7.518281750683108E-078
   131.789700000000         1.518917292527242E-077
   132.029100000000         2.349219874994751E-077
   132.268500000000         3.120931899333288E-077
   132.507900000000         3.671278082638779E-077
   132.747300000000         3.808874843580024E-077
   132.986700000000         3.336369133732387E-077
   133.226100000000         2.083363507251446E-077
   133.465500000000        -5.226405561722210E-079
   133.704900000000        -3.058840971635137E-077
   133.944300000000        -6.767804567853396E-077
   134.183700000000        -1.082179249761576E-076
   134.423100000000        -1.466401331263964E-076
   134.662500000000        -1.755895054782175E-076
   134.901900000000        -1.865251891649737E-076
   135.141300000000        -1.707560594811356E-076
   135.380700000000        -1.208843797149471E-076
   135.620100000000        -3.254772000621809E-077
   135.859500000000         9.374582027784529E-077
   136.098900000000         2.509853610798645E-076
   136.338300000000         4.245929699526761E-076
   136.577700000000         5.923168728969613E-076
   136.817100000000         7.254307919070953E-076
   137.056500000000         7.914657044132388E-076
   137.295900000000         7.584904702512413E-076
   137.535300000000         6.006696560385621E-076
   137.774700000000         3.044890108627936E-076
   138.014100000000        -1.252991242057183E-076
   138.253500000000        -6.612281580079035E-076
   138.492900000000        -1.251505840925265E-075
   138.732300000000        -1.822467620400562E-075