  -1.79550000000000         0.000000000000000E+000
  -1.55610000000000         0.000000000000000E+000
  -1.31670000000000         0.000000000000000E+000
  -1.07730000000000         0.000000000000000E+000
 -0.837900000000000         0.000000000000000E+000
 -0.598500000000000         0.000000000000000E+000
 -0.359100000000000         0.000000000000000E+000
 -0.119700000000000         0.000000000000000E+000
  0.119700000000000         0.000000000000000E+000
  0.359100000000000         0.000000000000000E+000
  0.598500000000000         0.000000000000000E+000
  0.837900000000000         0.000000000000000E+000
   1.07730000000000         0.000000000000000E+000
   1.31670000000000         0.000000000000000E+000
   1.55610000000000         0.000000000000000E+000
   1.79550000000000         0.000000000000000E+000
   2.03490000000000         0.000000000000000E+000
   2.27430000000000         0.000000000000000E+000
   2.51370000000000         0.000000000000000E+000
   2.75310000000000         0.000000000000000E+000
   2.99250000000000         0.000000000000000E+000
   3.23190000000000         0.000000000000000E+000
   3.47130000000000         0.000000000000000E+000
   3.71070000000000         0.000000000000000E+000
   3.95010000000000         0.000000000000000E+000
   4.18950000000000         0.000000000000000E+000
   4.42890000000000         0.000000000000000E+000
   4.66830000000000         0.000000000000000E+000
   4.90770000000000         0.000000000000000E+000
   5.14710000000000         0.000000000000000E+000
   5.38650000000000         0.000000000000000E+000
   5.62590000000000         0.000000000000000E+000
   5.86530000000000         0.000000000000000E+000
   6.10470000000000         0.000000000000000E+000
   6.34410000000000         0.000000000000000E+000
   6.58350000000000         0.000000000000000E+000
   6.82290000000000         0.000000000000000E+000
   7.06230000000000         0.000000000000000E+000
   7.30170000000000         0.000000000000000E+000
   7.54110000000000         0.000000000000000E+000
   7.78050000000000         0.000000000000000E+000
   8.01990000000000         0.000000000000000E+000
   8.25930000000000         0.000000000000000E+000
   8.49870000000000         0.000000000000000E+000
   8.73810000000000         0.000000000000000E+000
   8.97750000000000         0.000000000000000E+000
   9.21690000000000         0.000000000000000E+000
   9.45630000000000         0.000000000000000E+000
   9.69570000000000         0.000000000000000E+000
   9.93510000000000         0.000000000000000E+000
   10.1745000000000         0.000000000000000E+000
   10.4139000000000         0.000000000000000E+000
   10.6533000000000         0.000000000000000E+000
   10.8927000000000        -1.966002981776267E-221
   11.1321000000000         1.798136586508437E-211
   11.3715000000000        -4.953376681054185E-209
   11.6109000000000        -6.096237500107870E-207
   11.8503000000000        -2.268193984593078E-205
   12.0897000000000        -3.097854462381158E-204
   12.3291000000000         4.843957772435761E-203
   12.5685000000000         3.427702115640101E-201
   12.8079000000000         9.423701261901092E-200
   13.0473000000000         1.802488818749335E-198
   13.2867000000000         2.721926069685584E-197
   13.5261000000000         3.428707825345238E-196
   13.7655000000000         3.715947347483840E-195
   14.0049000000000         3.537855399565856E-194
   14.2443000000000         3.012429496252236E-193
   14.4837000000000         2.343210037412724E-192
   14.7231000000000         1.717696071736081E-191
   14.9625000000000         1.240362634179362E-190
   15.2019000000000         9.240004447532855E-190
   15.4413000000000         7.244423264583448E-189
   15.6807000000000         5.857300654222746E-188
   15.9201000000000         4.696914136645010E-187
   16.1595000000000         3.626554886980116E-186
   16.3989000000000         2.669702127530479E-185
   16.6383000000000         1.891284422123264E-184
   16.8777000000000         1.322110357784727E-183
   17.1171000000000         9.422139085269343E-183
   17.3565000000000         7.006878292201079E-182
   17.5959000000000         5.430078053226350E-181
   17.8353000000000         4.285351520885588E-180
   18.0747000000000         3.348768330708356E-179
   18.3141000000000         2.537303515007559E-178
   18.5535000000000         1.842074640041028E-177
   18.7929000000000         1.274877398695294E-176
   19.0323000000000         8.401001747911920E-176
   19.2717000000000         5.275065483760069E-175
   19.5111000000000         3.161315307925698E-174
   19.7505000000000         1.811683113783134E-173
   19.9899000000000         9.947113453197108E-173
   20.2293000000000         5.241695746801036E-172
   20.4687000000000         2.655044686661031E-171
   20.7081000000000         1.294364846733561E-170
   20.9475000000000         6.079598772328321E-170
   21.1869000000000         2.753339295180753E-169
   21.4263000000000         1.202880891799777E-168
   21.6657000000000         5.070387830494391E-168
   21.9051000000000         2.061758582018695E-167
   22.1445000000000         8.082464663363136E-167
   22.3839000000000         3.050979558578826E-166
   22.6233000000000         1.106755138981281E-165
   22.8627000000000         3.845713943415996E-165
   23.1021000000000         1.273360065948523E-164
   23.3415000000000         3.982779924839222E-164
   23.5809000000000         1.158445997396238E-163
   23.8203000000000         3.035236058189780E-163
   24.0597000000000         6.607798606083078E-163
   24.2991000000000         8.459345924335630E-163
   24.5385000000000        -2.044406503146981E-162
   24.7779000000000        -2.311742921235034E-161
   25.0173000000000        -1.281781538563273E-160
   25.2567000000000        -5.763584644851714E-160
   25.4961000000000        -2.319280662877072E-159
   25.7355000000000        -8.667343392732915E-159
   25.9749000000000        -3.062649787067538E-158
   26.2143000000000        -1.033571647495101E-157
   26.4537000000000        -3.351570129787688E-157
   26.6931000000000        -1.048276104553747E-156
   26.9325000000000        -3.169972297873846E-156
   27.1719000000000        -9.280576613615574E-156
   27.4113000000000        -2.631832669001527E-155
   27.6507000000000        -7.227486214400370E-155
   27.8901000000000        -1.919861467316715E-154
   28.1295000000000        -4.922043383162688E-154
   28.3689000000000        -1.213362258288113E-153
   28.6083000000000        -2.858481355743266E-153
   28.8477000000000        -6.368866929913327E-153
   29.0871000000000        -1.316803110282308E-152
   29.3265000000000        -2.427630250486516E-152
   29.5659000000000        -3.576808282648436E-152
   29.8053000000000        -2.242004087847704E-152
   30.0447000000000         1.126365392856638E-151
   30.2841000000000         6.781165900126300E-151
   30.5235000000000         2.555064140393740E-150
   30.7629000000000         8.057886505763422E-150
   31.0023000000000         2.283727379026332E-149
   31.2417000000000         5.970813657448973E-149
   31.4811000000000         1.453695160232603E-148
   31.7205000000000         3.294556152047681E-148
   31.9599000000000         6.880223445113545E-148
   32.1993000000000         1.289120124299340E-147
   32.4387000000000         2.019018135548333E-147
   32.6781000000000         1.992936733820721E-147
   32.9175000000000        -2.128737407280569E-147
   33.1569000000000        -2.044633879180759E-146
   33.3963000000000        -7.988676723072622E-146
   33.6357000000000        -2.458094582749748E-145
   33.8751000000000        -6.642237227435547E-145
   34.1145000000000        -1.634788028783988E-144
   34.3539000000000        -3.713877202704525E-144
   34.5933000000000        -7.797550215677834E-144
   34.8327000000000        -1.498383013584774E-143
   35.0721000000000        -2.563257020190699E-143
   35.3115000000000        -3.619198442635668E-143
   35.5509000000000        -3.067921189266750E-143
   35.7903000000000         3.920440120339186E-143
   36.0297000000000         2.954246908655227E-142
   36.2691000000000         1.009904732004344E-141
   36.5085000000000         2.724783086913265E-141
   36.7479000000000         6.394030446628138E-141
   36.9873000000000         1.342047239352863E-140
   37.2267000000000         2.519816540114097E-140
   37.4661000000000         4.119111524921450E-140
   37.7055000000000         5.346891219635625E-140
   37.9449000000000         3.379253908611383E-140
   38.1843000000000        -9.301281987832453E-140
   38.4237000000000        -4.970813807937158E-139
   38.6631000000000        -1.516344906143367E-138
   38.9025000000000        -3.735748568116182E-138
   39.1419000000000        -7.989468835957486E-138
   39.3813000000000        -1.504702512569484E-137
   39.6207000000000        -2.442093940329437E-137
   39.8601000000000        -3.114537284129711E-137
   40.0995000000000        -1.845934381715029E-137
   40.3389000000000         5.677266654547165E-137
   40.5783000000000         2.896014972052652E-136
   40.8177000000000         8.649630504357684E-136
   41.0571000000000         2.099449844700996E-135
   41.2965000000000         4.450078408720864E-135
   41.5359000000000         8.389093652907596E-135
   41.7753000000000         1.391707296503326E-134
   42.0147000000000         1.926695533803394E-134
   42.2541000000000         1.802720779094723E-134
   42.4935000000000        -6.452351053997458E-135
   42.7329000000000        -9.064707895522108E-134
   42.9723000000000        -3.049214720947655E-133
   43.2117000000000        -7.693223551494810E-133
   43.4511000000000        -1.659848596548354E-132
   43.6905000000000        -3.175583542304236E-132
   43.9299000000000        -5.402666460158350E-132
   44.1693000000000        -7.954792337745947E-132
   44.4087000000000        -9.192434789184224E-132
   44.6481000000000        -4.745608762706125E-132
   44.8875000000000         1.494279121667829E-131
   45.1269000000000         6.811039848803522E-131
   45.3663000000000         1.854798848296702E-130
   45.6057000000000         4.117533403762468E-130
   45.8451000000000         7.983514603571758E-130
   46.0845000000000         1.374251553773374E-129
   46.3239000000000         2.071622159829905E-129
   46.5633000000000         2.570382144523406E-129
   46.8027000000000         2.016003467552969E-129
   47.0421000000000        -1.428525905904144E-129
   47.2815000000000        -1.118414672147862E-128
   47.5209000000000        -3.285077275320231E-128
   47.7603000000000        -7.431435243644609E-128
   47.9997000000000        -1.442879181712556E-127
   48.2391000000000        -2.472492513486803E-127
   48.4785000000000        -3.714292812196685E-127
   48.7179000000000        -4.651490778947154E-127
   48.9573000000000        -3.963135984478267E-127
   49.1967000000000         1.077381728699922E-127
   49.4361000000000         1.533842360855736E-126
   49.6755000000000         4.642427528595484E-126
   49.9149000000000         1.044326775914569E-125
   50.1543000000000         1.994800934519282E-125
   50.3937000000000         3.345905751566062E-125
   50.6331000000000         4.903715693879986E-125
   50.8725000000000         5.970760325300951E-125
   51.1119000000000         4.903563080085489E-125
   51.3513000000000        -1.485297209999119E-125
   51.5907000000000        -1.855531884529673E-124
   51.8301000000000        -5.413185681985529E-124
   52.0695000000000        -1.176890344929347E-123
   52.3089000000000        -2.170358068165487E-123
   52.5483000000000        -3.503739411710930E-123
   52.7877000000000        -4.909676689339073E-123
   53.0271000000000        -5.617463498815834E-123
   53.2665000000000        -3.990715948690893E-123
   53.5059000000000         2.895774627096539E-123
   53.7453000000000         1.957712872307838E-122
   53.9847000000000         5.205405938347975E-122
   54.2241000000000         1.065221437647428E-121
   54.4635000000000         1.859475854412361E-121
   54.7029000000000         2.831436081942567E-121
   54.9423000000000         3.689974490887760E-121
   55.1817000000000         3.752980683683911E-121
   55.4211000000000         1.739753228961312E-121
   55.6605000000000        -4.405467002787177E-121
   55.8999000000000        -1.750832478154517E-120
   56.1393000000000        -4.070656540916997E-120
   56.3787000000000        -7.612724191773341E-120
   56.6181000000000        -1.221769385293404E-119
   56.8575000000000        -1.689580634147141E-119
   57.0969000000000        -1.916984181079699E-119
   57.3363000000000        -1.430754316200819E-119
   57.5757000000000         5.274308184612937E-120
   57.8151000000000         4.983915581570420E-119
   58.0545000000000         1.303783412742068E-118
   58.2939000000000         2.534291652858919E-118
   58.5333000000000         4.110109845330743E-118
   58.7727000000000         5.645151971498872E-118
   59.0121000000000         6.233003755542904E-118
   59.2515000000000         4.230492030555700E-118
   59.4909000000000        -2.834155726191017E-118
   59.7303000000000        -1.798858602593708E-117
   59.9697000000000        -4.380369262420771E-117
   60.2091000000000        -8.015733001276777E-117
   60.4485000000000        -1.203161123185456E-116
   60.6879000000000        -1.452228946210656E-116
   60.9273000000000        -1.168161591429008E-116
   61.1667000000000         2.693748949768803E-117
   61.4061000000000         3.695871182961637E-116
   61.6455000000000         9.964608702389400E-116
   61.8849000000000         1.943336714326890E-115
   62.1243000000000         3.096633443238056E-115
   62.3637000000000         4.031874650504150E-115
   62.6031000000000         3.794148717851031E-115
   62.8425000000000         6.644670501275418E-116
   63.0819000000000        -7.969651834811879E-115
   63.3213000000000        -2.540472338256954E-114
   63.5607000000000        -5.468497126241773E-114
   63.8001000000000        -9.639335339695368E-114
   64.0395000000000        -1.445436155311473E-113
   64.2789000000000        -1.800993599677796E-113
   64.5183000000000        -1.622804170750040E-113
   64.7577000000000        -1.927268821213799E-114
   64.9971000000000         3.573898927604471E-113
   65.2365000000000         1.106391855700354E-112
   65.4759000000000         2.364346011201354E-112
   65.7153000000000         4.188125781581347E-112
   65.9547000000000         6.408864991014199E-112
   66.1941000000000         8.398401351302280E-112
   66.4335000000000         8.747651239769635E-112
   66.6729000000000         4.900807978655346E-112
   66.9123000000000        -7.128542097628863E-112
   67.1517000000000        -3.270394456274295E-111
   67.3911000000000        -7.774487458879860E-111
   67.6305000000000        -1.465127425119590E-110
   67.8699000000000        -2.372333149202279E-110
   68.1093000000000        -3.348215547626673E-110
   68.3487000000000        -4.004113502161910E-110
   68.5881000000000        -3.585325052126364E-110
   68.8275000000000        -8.497753390537488E-111
   69.0669000000000         5.980283752941437E-110
   69.3063000000000         1.907735655662936E-109
   69.5457000000000         4.050313509352902E-109
   69.7851000000000         7.111005151532923E-109
   70.0245000000000         1.086072190926018E-108
   70.2639000000000         1.446250780548084E-108
   70.5033000000000         1.608583504789453E-108
   70.7427000000000         1.248745685546721E-108
   70.9821000000000        -1.296356703916848E-109
   71.2215000000000        -3.187549470061560E-108
   71.4609000000000        -8.662078203202177E-108
   71.7003000000000        -1.713789537518221E-107
   71.9397000000000        -2.861030456800032E-107
   72.1791000000000        -4.177970909447568E-107
   72.4185000000000        -5.306091409012222E-107
   72.6579000000000        -5.539138607089378E-107
   72.8973000000000        -3.710378102088951E-107
   73.1367000000000         1.859413724310858E-107
   73.3761000000000         1.326200910205986E-106
   73.6155000000000         3.261749370095539E-106
   73.8549000000000         6.124001375200118E-106
   74.0943000000000         9.818422940282356E-106
   74.3337000000000         1.380637088181702E-105
   74.5731000000000         1.682030038200755E-105
   74.8125000000000         1.655176523936280E-105
   75.0519000000000         9.405494110823957E-106
   75.2913000000000        -9.511657165529921E-106
   75.5307000000000        -4.590716868209532E-105
   75.7701000000000        -1.049775700327891E-104
   76.0095000000000        -1.888475430602172E-104
   76.2489000000000        -2.924342946320826E-104
   76.4883000000000        -3.976393614706365E-104
   76.7277000000000        -4.663002384014481E-104
   76.9671000000000        -4.332522630074809E-104
   77.2065000000000        -2.022117704700435E-104
   77.4459000000000         3.510596964711582E-104
   77.6853000000000         1.361966224484725E-103
   77.9247000000000         2.938856565107486E-103
   78.1641000000000         5.095480696511186E-103
   78.4035000000000         7.648935563164259E-103
   78.6429000000000         1.008518750416515E-102
   78.8823000000000         1.140800341151795E-102
   79.1217000000000         1.000876399334231E-102
   79.3611000000000         3.624171295055260E-103
   79.6005000000000        -1.051649967502891E-102
   79.8399000000000        -3.522050313872193E-102
   80.0793000000000        -7.238618435372897E-102
   80.3187000000000        -1.214517815055575E-101
   80.5581000000000        -1.771911860673732E-101
   80.7975000000000        -2.269892856298829E-101
   81.0369000000000        -2.480337196714081E-101
   81.2763000000000        -2.053005269979866E-101
   81.5157000000000        -5.176517563241653E-102
   81.7551000000000         2.671448365980836E-101
   81.9945000000000         8.023928235377386E-101
   82.2339000000000         1.580974884046365E-100
   82.4733000000000         2.574631569348744E-100
   82.7127000000000         3.657935542200547E-100
   82.9521000000000         4.559834514430024E-100
   83.1915000000000         4.818552537546200E-100
   83.4309000000000         3.757546916668038E-100
   83.6703000000000         5.091897183362454E-101
   83.9097000000000        -5.878876026252166E-100
   84.1491000000000        -1.621543477095760E-099
   84.3885000000000        -3.078064744882436E-099
   84.6279000000000        -4.876886999823826E-099
   84.8673000000000        -6.758502853796457E-099
   85.1067000000000        -8.208847525486095E-099
   85.3461000000000        -8.397528767086146E-099
   85.5855000000000        -6.160978435357933E-099
   85.8249000000000        -7.404275809735515E-101
   86.0643000000000         1.133704665336342E-098
   86.3037000000000         2.918638166935992E-098
   86.5431000000000         5.358552490860929E-098
   86.7825000000000         8.276564300894069E-098
   87.0219000000000         1.120349195319415E-097
   87.2613000000000         1.327487538546244E-097
   87.5007000000000         1.316110304233206E-097
   87.7401000000000         9.078375467009285E-098
   87.9795000000000        -1.057337891200566E-098
   88.2189000000000        -1.926370037906028E-097
   88.4583000000000        -4.685024819281267E-097
   88.6977000000000        -8.347004788034208E-097
   88.9371000000000        -1.258979567918387E-096
   89.1765000000000        -1.666738352820225E-096
   89.4159000000000        -1.928953742117485E-096
   89.6553000000000        -1.856217351357801E-096
   89.8947000000000        -1.205279884290287E-096
   90.1341000000000         2.941826690890639E-097
   90.3735000000000         2.884758176780494E-096
   90.6129000000000         6.692644731793985E-096
   90.8523000000000         1.160451968090474E-095
   91.0917000000000         1.711844887269484E-095
   91.3311000000000         2.219083356654455E-095
   91.5705000000000         2.511856399525923E-095
   91.8099000000000         2.351428129615199E-095
   92.0493000000000         1.444885558088309E-095
   92.2887000000000        -5.157412316611821E-096
   92.5281000000000        -3.782301406396964E-095
   92.7675000000000        -8.443702913515952E-095
   93.0069000000000        -1.428694293742875E-094
   93.2463000000000        -2.064050938246658E-094
   93.4857000000000        -2.622935075556753E-094
   93.7251000000000        -2.908744116695279E-094
   93.9645000000000        -2.658985064800487E-094
   94.2039000000000        -1.567625583667637E-094
   94.4433000000000         6.664586877695748E-095
   94.6827000000000         4.260226584863126E-094
   94.9221000000000         9.236627755881637E-094
   95.1615000000000         1.529246076535607E-093
   95.4009000000000         2.166326077331234E-093
   95.6403000000000         2.701750575776168E-093
   95.8797000000000         2.942506293541116E-093
   96.1191000000000         2.645351897081484E-093
   96.3585000000000         1.544608622363164E-093
   96.5979000000000        -5.979202056074101E-094
   96.8373000000000        -3.920211219920624E-093
   97.0767000000000        -8.369196188277120E-093
   97.3161000000000        -1.360395696988788E-092
   97.5555000000000        -1.891352492788699E-092
   97.7949000000000        -2.317776068174819E-092
   98.0343000000000        -2.490453127711256E-092
   98.2737000000000        -2.237476231851957E-092
   98.5131000000000        -1.391556852758603E-092
   98.7525000000000         1.701976973686088E-093
   98.9919000000000         2.478018482127168E-092
   99.2313000000000         5.421265797304928E-092
   99.4707000000000         8.713495768434772E-092
   99.7101000000000         1.188737594706312E-091
   99.9495000000000         1.433610629864755E-091
   100.188900000000         1.541260191953958E-091
   100.428300000000         1.458488145702647E-091
   100.667700000000         1.162507582160434E-091
   100.907100000000         6.781628160568585E-092
   101.146500000000         8.543603112650366E-093
   101.385900000000        -4.930844919958395E-092
   101.625300000000        -9.353493690765327E-092
   101.864700000000        -1.200712032921913E-091
   102.104100000000        -1.446728414964889E-091
   102.343500000000        -2.164616044486819E-091
   102.582900000000        -4.294111661115215E-091
   102.822300000000        -9.252353379525656E-091
   103.061700000000        -1.878673806684526E-090
   103.301100000000        -3.454789547045315E-090
   103.540500000000        -5.728921422442060E-090
   103.779900000000        -8.564952029855870E-090
   104.019300000000        -1.145808458013866E-089
   104.258700000000        -1.336534843056442E-089
   104.498100000000        -1.257027543156534E-089
   104.737500000000        -6.655183680558372E-090
   104.976900000000         7.320135872369947E-090
   105.216300000000         3.231979371438052E-089
   105.455700000000         7.040810767694659E-089
   105.695100000000         1.213422615146227E-088
   105.934500000000         1.807223212701628E-088
   106.173900000000         2.379026405286663E-088
   106.413300000000         2.740948713943310E-088
   106.652700000000         2.613636032718304E-088
   106.892100000000         1.634865272438405E-088
   107.131500000000        -6.015448915575506E-089
   107.370900000000        -4.464764477226200E-088
   107.610300000000        -1.015530120698028E-087
   107.849700000000        -1.752180570958521E-087
   108.089100000000        -2.583900914954761E-087
   108.328500000000        -3.357915631367076E-087
   108.567900000000        -3.823409748205893E-087
   108.807300000000        -3.627200002535315E-087
   109.046700000000        -2.333566212332228E-087
   109.286100000000         5.200029816458796E-088
   109.525500000000         5.320711726072007E-087
   109.764900000000         1.222651357253670E-086
   110.004300000000         2.096455730970921E-086
   110.243700000000         3.060143704616884E-086
   110.483100000000         3.932500777399515E-086
   110.722500000000         4.430123590075683E-086
   110.961900000000         4.169278795707940E-086
   111.201300000000         2.694261711302913E-086
   111.440700000000        -4.572827487665599E-087
   111.680100000000        -5.644012093088873E-086
   111.919500000000        -1.296340662322478E-085
   112.158900000000        -2.205536874898561E-085
   112.398300000000        -3.188999441442098E-085
   112.637700000000        -4.058127711463574E-085
   112.877100000000        -4.528875454931174E-085
   113.116500000000        -4.228698069388614E-085
   113.355900000000        -2.729237398795586E-085
   113.595300000000         3.868966206182335E-086
   113.834700000000         5.419865400431273E-085
   114.074100000000         1.240758227865541E-084
   114.313500000000         2.095232625000415E-084
   114.552900000000         3.004248258910616E-084
   114.792300000000         3.790839487356943E-084
   115.031700000000         4.196696350921174E-084
   115.271100000000         3.892184373286149E-084
   115.510500000000         2.508997066536758E-084
   115.749900000000        -2.985175706392777E-085
   115.989300000000        -4.760361392046418E-084
   116.228700000000        -1.086876107706416E-083
   116.468100000000        -1.823764948694246E-083
   116.707500000000        -2.596500253074997E-083
   116.946900000000        -3.253103635216360E-083
   117.186300000000        -3.577629162079314E-083
   117.425700000000        -3.301098542526737E-083
   117.665100000000        -2.130693348635820E-083
   117.904500000000         1.988363862989522E-084
   118.143900000000         3.850314629161719E-083
   118.383300000000         8.789144221333874E-083
   118.622700000000         1.467784458090233E-082
   118.862100000000         2.077755667469293E-082
   119.101500000000         2.588216794506348E-082
   119.340900000000         2.831780771710080E-082
   119.580300000000         2.604425352511287E-082
   119.819700000000         1.689262378486727E-082
   120.059100000000        -1.037156208308033E-083
   120.298500000000        -2.881758412596342E-082
   120.537900000000        -6.600617643306348E-082
   120.777300000000        -1.099076758115277E-081
   121.016700000000        -1.549172520027765E-081
   121.256100000000        -1.921292939161468E-081
   121.495500000000        -2.094382357225389E-081
   121.734900000000        -1.923733144702380E-081
   121.974300000000        -1.258810189357188E-081
   122.213700000000         2.819555566878939E-083
   122.453100000000         2.003447983182012E-081
   122.692500000000         4.624926111441533E-081
   122.931900000000         7.694046574542198E-081
   123.171300000000         1.081462115670803E-080
   123.410700000000         1.337152979623194E-080
   123.650100000000         1.454374695384391E-080
   123.889500000000         1.336670999665829E-080
   124.128900000000         8.856423298321098E-081
   124.368300000000         2.012064727046943E-082
   124.607700000000        -1.298398613903917E-080
   124.847100000000        -3.036119728622201E-080
   125.086500000000        -5.057052264982207E-080
   125.325900000000        -7.098834426736348E-080
   125.565300000000        -8.762059496765651E-080
   125.804700000000        -9.522004215067653E-080
   126.044100000000        -8.771505830780521E-080
   126.283500000000        -5.901729883474065E-080
   126.522900000000        -4.232199179411245E-081
   126.762300000000         7.877331391499660E-080
   127.001700000000         1.875855271641315E-079
   127.241100000000         3.134920506726285E-079
   127.480500000000         4.401289284239913E-079
   127.719900000000         5.429887675557051E-079
   127.959300000000         5.903022175517676E-079
   128.198700000000         5.457774568230965E-079
   128.438100000000         3.735453765849641E-079
   128.677500000000         4.538765042773899E-080
   128.916900000000        -4.500882405828806E-079
   129.156300000000        -1.097203816618058E-078
   129.395700000000        -1.843392696466955E-078
   129.635100000000        -2.591928440054020E-078
   129.874500000000        -3.199805325807315E-078
   130.113900000000        -3.483591572783582E-078
   130.353300000000        -3.235835462557428E-078
   130.592700000000        -2.253755477175483E-078
   130.832100000000        -3.803716115867455E-079
   131.071500000000         2.444089731850664E-078
   131.310900000000         6.125653830880163E-078
   131.550300000000         1.036339024240469E-077
   131.789700000000         1.461123921164840E-077
   132.029100000000         1.806902717001686E-077
   132.268500000000         1.971769627694492E-077
   132.507900000000         1.841217996336054E-077
   132.747300000000         1.304050082350913E-077
   132.986700000000         2.749009789414671E-078
   133.226100000000        -1.277883633998593E-077
   133.465500000000        -3.301851370066556E-077
   133.704900000000        -5.632110434980377E-077
   133.944300000000        -7.971308968771765E-077
   134.183700000000        -9.885416411786447E-077
   134.423100000000        -1.082319374458987E-076
   134.662500000000        -1.016634528478687E-076
   134.901900000000        -7.314755467369164E-077
   135.141300000000        -1.806660589118094E-077
   135.380700000000         6.532938578405291E-077
   135.620100000000         1.743052579793604E-076
   135.859500000000         3.001298237609180E-076
   136.098900000000         4.269988483830608E-076
   136.338300000000         5.317848412200689E-076
   136.577700000000         5.850295492085245E-076
   136.817100000000         5.535520627099977E-076
   137.056500000000         4.049153281531424E-076
   137.295900000000         1.137617458228216E-076
   137.535300000000        -3.303086105543975E-076
   137.774700000000        -9.140712670490167E-076
   138.014100000000        -1.592457237130867E-075
   138.253500000000        -2.282485892569601E-075
   138.492900000000        -2.861429396363917E-075
   138.732300000000        -3.171449325410062E-075