  -1.79550000000000         0.000000000000000E+000
  -1.55610000000000         0.000000000000000E+000
  -1.31670000000000         0.000000000000000E+000
  -1.07730000000000         0.000000000000000E+000
 -0.837900000000000         0.000000000000000E+000
 -0.598500000000000         0.000000000000000E+000
 -0.359100000000000         0.000000000000000E+000
 -0.119700000000000         0.000000000000000E+000
  0.119700000000000         0.000000000000000E+000
  0.359100000000000         0.000000000000000E+000
  0.598500000000000         0.000000000000000E+000
  0.837900000000000         0.000000000000000E+000
   1.07730000000000         0.000000000000000E+000
   1.31670000000000         0.000000000000000E+000
   1.55610000000000         0.000000000000000E+000
   1.79550000000000         0.000000000000000E+000
   2.03490000000000         0.000000000000000E+000
   2.27430000000000         0.000000000000000E+000
   2.51370000000000         0.000000000000000E+000
   2.75310000000000         0.000000000000000E+000
   2.99250000000000         0.000000000000000E+000
   3.23190000000000         0.000000000000000E+000
   3.47130000000000         0.000000000000000E+000
   3.71070000000000         0.000000000000000E+000
   3.95010000000000         0.000000000000000E+000
   4.18950000000000         0.000000000000000E+000
   4.42890000000000         0.000000000000000E+000
   4.66830000000000         0.000000000000000E+000
   4.90770000000000         0.000000000000000E+000
   5.14710000000000         0.000000000000000E+000
   5.38650000000000         0.000000000000000E+000
   5.62590000000000         0.000000000000000E+000
   5.86530000000000         0.000000000000000E+000
   6.10470000000000         0.000000000000000E+000
   6.34410000000000         0.000000000000000E+000
   6.58350000000000         0.000000000000000E+000
   6.82290000000000         0.000000000000000E+000
   7.06230000000000         0.000000000000000E+000
   7.30170000000000         0.000000000000000E+000
   7.54110000000000         0.000000000000000E+000
   7.78050000000000         0.000000000000000E+000
   8.01990000000000         0.000000000000000E+000
   8.25930000000000         0.000000000000000E+000
   8.49870000000000         0.000000000000000E+000
   8.73810000000000         0.000000000000000E+000
   8.97750000000000         0.000000000000000E+000
   9.21690000000000         0.000000000000000E+000
   9.45630000000000         0.000000000000000E+000
   9.69570000000000         0.000000000000000E+000
   9.93510000000000         0.000000000000000E+000
   10.1745000000000         0.000000000000000E+000
   10.4139000000000         0.000000000000000E+000
   10.6533000000000         0.000000000000000E+000
   10.8927000000000         0.000000000000000E+000
   11.1321000000000         0.000000000000000E+000
   11.3715000000000        -3.631920786043994E-229
   11.6109000000000        -4.768665204223119E-224
   11.8503000000000         1.526668166717881E-221
   12.0897000000000        -2.542033670066026E-219
   12.3291000000000        -3.326136889901266E-217
   12.5685000000000        -2.981083706851534E-215
   12.8079000000000        -1.745071360075859E-213
   13.0473000000000         1.988678179134661E-209
   13.2867000000000        -7.530623021299692E-204
   13.5261000000000         3.063417502886593E-202
   13.7655000000000         6.952086913257197E-200
   14.0049000000000         3.986867030418867E-198
   14.2443000000000         1.314339715710246E-196
   14.4837000000000         2.904876389396541E-195
   14.7231000000000         4.446963298405316E-194
   14.9625000000000         4.387508477416205E-193
   15.2019000000000         1.689821909856547E-192
   15.4413000000000        -1.846549487437848E-191
   15.6807000000000        -1.990294461072921E-191
   15.9201000000000         1.536493944637668E-188
   16.1595000000000         5.188290368975982E-187
   16.3989000000000         1.098689948670541E-185
   16.6383000000000         1.812633638194726E-184
   16.8777000000000         2.516761045717506E-183
   17.1171000000000         3.057270794458922E-182
   17.3565000000000         3.325820937232494E-181
   17.5959000000000         3.290725528062790E-180
   17.8353000000000         2.994757658887571E-179
   18.0747000000000         2.527966520070348E-178
   18.3141000000000         1.992457514443873E-177
   18.5535000000000         1.474081307846997E-176
   18.7929000000000         1.028152613469821E-175
   19.0323000000000         6.785210624179711E-175
   19.2717000000000         4.249558780101817E-174
   19.5111000000000         2.532127233419147E-173
   19.7505000000000         1.438411973182465E-172
   19.9899000000000         7.802903604751634E-172
   20.2293000000000         4.047186248802201E-171
   20.4687000000000         2.008850492969084E-170
   20.7081000000000         9.545966236703743E-170
   20.9475000000000         4.342320272621337E-169
   21.1869000000000         1.889356638927437E-168
   21.4263000000000         7.849753827238778E-168
   21.6657000000000         3.104651588624233E-167
   21.9051000000000         1.162754920567756E-166
   22.1445000000000         4.085797277513973E-166
   22.3839000000000         1.324152408391699E-165
   22.6233000000000         3.817718509040119E-165
   22.8627000000000         8.887947452846163E-165
   23.1021000000000         1.020768836799640E-164
   23.3415000000000        -5.215242981550535E-164
   23.5809000000000        -5.222755823358146E-163
   23.8203000000000        -3.044927971559129E-162
   24.0597000000000        -1.469198198560454E-161
   24.2991000000000        -6.367275200960212E-161
   24.5385000000000        -2.559892197423186E-160
   24.7779000000000        -9.700197847180118E-160
   25.0173000000000        -3.494776842439056E-159
   25.2567000000000        -1.203102485752820E-158
   25.4961000000000        -3.968270590999679E-158
   25.7355000000000        -1.255363328255437E-157
   25.9749000000000        -3.807432050969853E-157
   26.2143000000000        -1.104923803716251E-156
   26.4537000000000        -3.055685854250997E-156
   26.6931000000000        -7.994237024847989E-156
   26.9325000000000        -1.952254276015328E-155
   27.1719000000000        -4.333863015177032E-155
   27.4113000000000        -8.211150385722145E-155
   27.6507000000000        -1.060488837375011E-154
   27.8901000000000         6.508491718042415E-155
   28.1295000000000         1.166645868536063E-153
   28.3689000000000         5.748651276981904E-153
   28.6083000000000         2.182117501740772E-152
   28.8477000000000         7.278037132358966E-152
   29.0871000000000         2.229756164375509E-151
   29.3265000000000         6.401113280440487E-151
   29.5659000000000         1.739377786162005E-150
   29.8053000000000         4.497108832604879E-150
   30.0447000000000         1.108846515790354E-149
   30.2841000000000         2.608032123948637E-149
   30.5235000000000         5.842696438480322E-149
   30.7629000000000         1.242793018192176E-148
   31.0023000000000         2.497637371955623E-148
   31.2417000000000         4.711139036953089E-148
   31.4811000000000         8.280911182022999E-148
   31.7205000000000         1.353922453018094E-147
   31.9599000000000         2.114053924920542E-147
   32.1993000000000         3.542132674125769E-147
   32.4387000000000         7.959615182828120E-147
   32.6781000000000         2.499205234961481E-146
   32.9175000000000         8.833681391366926E-146
   33.1569000000000         3.026181844896226E-145
   33.3963000000000         9.636369360229069E-145
   33.6357000000000         2.843596927165157E-144
   33.8751000000000         7.814905359636889E-144
   34.1145000000000         2.009130961516848E-143
   34.3539000000000         4.839568922343848E-143
   34.5933000000000         1.089513703216998E-142
   34.8327000000000         2.272472569659613E-142
   35.0721000000000         4.302123049750469E-142
   35.3115000000000         7.030492896339696E-142
   35.5509000000000         8.418712267518056E-142
   35.7903000000000         3.474820332899763E-143
   36.0297000000000        -4.205810589167658E-141
   36.2691000000000        -1.855110932571588E-140
   36.5085000000000        -5.935837513731359E-140
   36.7479000000000        -1.639867331832244E-139
   36.9873000000000        -4.125801072276098E-139
   37.2267000000000        -9.669851511261846E-139
   37.4661000000000        -2.134032313889881E-138
   37.7055000000000        -4.454969816494759E-138
   37.9449000000000        -8.800975127874148E-138
   38.1843000000000        -1.639544956167721E-137
   38.4237000000000        -2.855025302923455E-137
   38.6631000000000        -4.563934167519281E-137
   38.9025000000000        -6.437554419169856E-137
   39.1419000000000        -7.178212720632912E-137
   39.3813000000000        -3.351934406316596E-137
   39.6207000000000         1.259012722180932E-136
   39.8601000000000         5.511996559331386E-136
   40.0995000000000         1.484118160170787E-135
   40.3389000000000         3.258995574483618E-135
   40.5783000000000         6.182201629829240E-135
   40.8177000000000         1.010962689056711E-134
   41.0571000000000         1.335965145834183E-134
   41.2965000000000         1.033424027750452E-134
   41.5359000000000        -1.308985621898181E-134
   41.7753000000000        -8.749977419846215E-134
   42.0147000000000        -2.717913811196467E-133
   42.2541000000000        -6.670812588271902E-133
   42.4935000000000        -1.424177876692613E-132
   42.7329000000000        -2.721085431486449E-132
   42.9723000000000        -4.657454754512703E-132
   43.2117000000000        -6.961190305007979E-132
   43.4511000000000        -8.323043142961483E-132
   43.6905000000000        -5.074134697905355E-132
   43.9299000000000         1.116201747542499E-131
   44.1693000000000         5.716515183602213E-131
   44.4087000000000         1.630553309392385E-130
   44.6481000000000         3.770640655284735E-130
   44.8875000000000         7.657177956371157E-130
   45.1269000000000         1.399026093823249E-129
   45.3663000000000         2.299758037221687E-129
   45.6057000000000         3.319632915122883E-129
   45.8451000000000         3.883994996639545E-129
   46.0845000000000         2.526516379730966E-129
   46.3239000000000        -3.865172141475732E-129
   46.5633000000000        -2.111283062989779E-128
   46.8027000000000        -5.894368601084567E-128
   47.0421000000000        -1.316804556162714E-127
   47.2815000000000        -2.568683407445756E-127
   47.5209000000000        -4.486800866363723E-127
   47.7603000000000        -7.004779739203059E-127
   47.9997000000000        -9.476905283002383E-127
   48.2391000000000        -9.990220185248923E-127
   48.4785000000000        -4.233452447305078E-127
   48.7179000000000         1.613372019525216E-126
   48.9573000000000         6.542437600118327E-126
   49.1967000000000         1.654203033166668E-125
   49.4361000000000         3.445302726378748E-125
   49.6755000000000         6.307742400517398E-125
   49.9149000000000         1.031799706509307E-124
   50.1543000000000         1.491293584348977E-124
   50.3937000000000         1.807356899250927E-124
   50.6331000000000         1.497225923564795E-124
   50.8725000000000        -4.004223056451008E-125
   51.1119000000000        -5.569616201589947E-124
   51.3513000000000        -1.663343317016808E-123
   51.5907000000000        -3.715457661632511E-123
   51.8301000000000        -7.103804173506321E-123
   52.0695000000000        -1.206607048590148E-122
   52.3089000000000        -1.826714699888401E-122
   52.5483000000000        -2.400179615844376E-122
   52.7877000000000        -2.485837304555625E-122
   53.0271000000000        -1.173262318462011E-122
   53.2665000000000         3.171826277049077E-122
   53.5059000000000         1.316089839255866E-121
   53.7453000000000         3.248305828381270E-121
   53.9847000000000         6.553951137101180E-121
   54.2241000000000         1.160539433233790E-120
   54.4635000000000         1.837762015889628E-120
   54.7029000000000         2.580473476951374E-120
   54.9423000000000         3.067743109200920E-120
   55.1817000000000         2.595968972736596E-120
   55.4211000000000        -1.469733693741573E-121
   55.6605000000000        -7.332151178586058E-120
   55.8999000000000        -2.216646202887485E-119
   56.1393000000000        -4.878421673309510E-119
   56.3787000000000        -9.146517072601877E-119
   56.6181000000000        -1.525483056006265E-118
   56.8575000000000        -2.281284639451676E-118
   57.0969000000000        -3.003870799432556E-118
   57.3363000000000        -3.254098819053514E-118
   57.5757000000000        -2.159387965496113E-118
   57.8151000000000         1.797247849706204E-118
   58.0545000000000         1.097648960376465E-117
   58.2939000000000         2.865090815586939E-117
   58.5333000000000         5.871063009073987E-117
   58.7727000000000         1.046131230769162E-116
   59.0121000000000         1.669790738333070E-116
   59.2515000000000         2.390275839768018E-116
   59.4909000000000         2.989281836157957E-116
   59.7303000000000         2.983171439228565E-116
   59.9697000000000         1.470137734666760E-116
   60.2091000000000        -3.041089700872461E-116
   60.4485000000000        -1.276394481668594E-115
   60.6879000000000        -3.060702784517302E-115
   60.9273000000000        -5.976854023061666E-115
   61.1667000000000        -1.026006865471241E-114
   61.4061000000000        -1.582393274738861E-114
   61.6455000000000        -2.183647247260721E-114
   61.8849000000000        -2.604500739992355E-114
   62.1243000000000        -2.381416613772615E-114
   62.3637000000000        -6.928137840002681E-115
   62.6031000000000         3.760643690223353E-114
   62.8425000000000         1.281857476921493E-113
   63.0819000000000         2.875559841726223E-113
   63.3213000000000         5.382141152712823E-113
   63.5607000000000         8.914494494643522E-113
   63.8001000000000         1.326279010848198E-112
   64.0395000000000         1.754062160422827E-112
   64.2789000000000         1.965445576702022E-112
   64.5183000000000         1.559921611120850E-112
   64.7577000000000        -1.332189621548408E-113
   64.9971000000000        -4.117703864057849E-112
   65.2365000000000        -1.172559281556295E-111
   65.4759000000000        -2.445517051517000E-111
   65.7153000000000        -4.351202028890252E-111
   65.9547000000000        -6.886176555402294E-111
   66.1941000000000        -9.756858739548084E-111
   66.4335000000000        -1.212162902414202E-110
   66.6729000000000        -1.223536647515738E-110
   66.9123000000000        -7.026880826350196E-111
   67.1517000000000         8.289978653639889E-111
   67.3911000000000         4.035356325510481E-110
   67.6305000000000         9.714944670010517E-110
   67.8699000000000         1.862498438316787E-109
   68.1093000000000         3.109450652479085E-109
   68.3487000000000         4.632441220619959E-109
   68.5881000000000         6.127813360825235E-109
   68.8275000000000         6.912210786848280E-109
   69.0669000000000         5.731861076270332E-109
   69.3063000000000         5.752638718300244E-110
   69.5457000000000        -1.142614115282851E-108
   69.7851000000000        -3.385679909000263E-108
   70.0245000000000        -7.039570563603246E-108
   70.2639000000000        -1.233823657339728E-107
   70.5033000000000        -1.911709322671353E-107
   70.7427000000000        -2.638930121518660E-107
   70.9821000000000        -3.174511401612915E-107
   71.2215000000000        -3.060829687621389E-107
   71.4609000000000        -1.548346687448134E-107
   71.7003000000000         2.450789687325821E-107
   71.9397000000000         1.032684111921656E-106
   72.1791000000000         2.357098179411143E-106
   72.4185000000000         4.329371284623688E-106
   72.6579000000000         6.932711969328746E-106
   72.8973000000000         9.878273551593572E-106
   73.1367000000000         1.240047069005360E-105
   73.3761000000000         1.300278266610907E-105
   73.6155000000000         9.197084083073530E-106
   73.8549000000000        -2.668767504016987E-106
   74.0943000000000        -2.732715553348069E-105
   74.3337000000000        -6.999241075480948E-105
   74.5731000000000        -1.348978296541438E-104
   74.8125000000000        -2.225582464745639E-104
   75.0519000000000        -3.253794300744157E-104
   75.2913000000000        -4.214448718531177E-104
   75.5307000000000        -4.668135081301929E-104
   75.7701000000000        -3.875881647568954E-104
   76.0095000000000        -7.447435897976085E-105
   76.2489000000000         6.154280507612559E-104
   76.4883000000000         1.842420256934049E-103
   76.7277000000000         3.744012967248390E-103
   76.9671000000000         6.359749767954627E-103
   77.2065000000000         9.511135298339880E-103
   77.4459000000000         1.263259716465842E-102
   77.6853000000000         1.456284375100019E-102
   77.9247000000000         1.333005246906835E-102
   78.1641000000000         6.001395140360363E-103
   78.4035000000000        -1.128238452240314E-102
   78.6429000000000        -4.290767291551653E-102
   78.8823000000000        -9.278853296703490E-102
   79.1217000000000        -1.625019228635601E-101
   79.3611000000000        -2.483253576884628E-101
   79.6005000000000        -3.370918116329026E-101
   79.8399000000000        -4.011006859387188E-101
   80.0793000000000        -3.928887252312949E-101
   80.3187000000000        -2.415150738498976E-101
   80.5581000000000         1.468598082216796E-101
   80.7975000000000         8.800344187918962E-101
   81.0369000000000         2.057228241211991E-100
   81.2763000000000         3.727162295208748E-100
   81.5157000000000         5.821840188272874E-100
   81.7551000000000         8.064454623966472E-100
   81.9945000000000         9.856922892925436E-100
   82.2339000000000         1.016458122804872E-099
   82.4733000000000         7.433265823906320E-100
   82.7127000000000        -4.030809744368873E-101
   82.9521000000000        -1.574060848499375E-099
   83.1915000000000        -4.084358879098214E-099
   83.4309000000000        -7.698746911581673E-099
   83.6703000000000        -1.231120591180466E-098
   83.9097000000000        -1.739587715489294E-098
   84.1491000000000        -2.178063664248092E-098
   84.3885000000000        -2.341526881575481E-098
   84.6279000000000        -1.920256931870858E-098
   84.8673000000000        -5.003271319980591E-099
   85.1067000000000         2.402803647819085E-098
   85.3461000000000         7.257999289790703E-098
   85.5855000000000         1.435858639822959E-097
   85.8249000000000         2.357212343881589E-097
   86.0643000000000         3.399585866161728E-097
   86.3037000000000         4.353938633917643E-097
   86.5431000000000         4.849729289676491E-097
   86.7825000000000         4.323293183372615E-097
   87.0219000000000         2.016699435118585E-097
   87.2613000000000        -2.965840731934474E-097
   87.5007000000000        -1.151071560953465E-096
   87.7401000000000        -2.422189072838681E-096
   87.9795000000000        -4.099462495063388E-096
   88.2189000000000        -6.043034471246661E-096
   88.4583000000000        -7.912929502101142E-096
   88.6977000000000        -9.096470621836377E-096
   88.9371000000000        -8.653544528212995E-096
   89.1765000000000        -5.310798901624478E-096
   89.4159000000000         2.452295499532735E-096
   89.6553000000000         1.617333101258408E-095
   89.8947000000000         3.697876491913203E-095
   90.1341000000000         6.491578056613158E-095
   90.3735000000000         9.803651812651425E-095
   90.6129000000000         1.312912795489263E-094
   90.8523000000000         1.553878537277542E-094
   91.0917000000000         1.559116484266268E-094
   91.3311000000000         1.131667509659609E-094
   91.5705000000000         3.367160754754917E-096
   91.8099000000000        -1.980642020996093E-094
   92.0493000000000        -5.103116695542635E-094
   92.2887000000000        -9.375020817287536E-094
   92.5281000000000        -1.455451892601076E-093
   92.7675000000000        -1.995622038043217E-093
   93.0069000000000        -2.428468888113765E-093
   93.2463000000000        -2.550260134903693E-093
   93.4857000000000        -2.079657791782050E-093
   93.7251000000000        -6.726214859254505E-094
   93.9645000000000         2.034141983941791E-093
   94.2039000000000         6.340755353270235E-093
   94.4433000000000         1.235479000828510E-092
   94.6827000000000         1.981338283619029E-092
   94.9221000000000         2.786703893617694E-092
   95.1615000000000         3.485319562719530E-092
   95.4009000000000         3.811153578782102E-092
   95.6403000000000         3.392115970942444E-092
   95.8797000000000         1.766778688172596E-092
   96.1191000000000        -1.563023149532948E-092
   96.3585000000000        -7.030602036076778E-092
   96.5979000000000        -1.484374089861962E-091
   96.8373000000000        -2.476265563490767E-091
   97.0767000000000        -3.582846080182282E-091
   97.3161000000000        -4.607538130155962E-091
   97.5555000000000        -5.228832477012206E-091
   97.7949000000000        -4.990057421566522E-091
   98.0343000000000        -3.315925989482835E-091
   98.2737000000000         4.289596542782366E-092
   98.5131000000000         6.824163242004492E-091
   98.7525000000000         1.620792044351972E-090
   98.9919000000000         2.841878766986318E-090
   99.2313000000000         4.247695948626873E-090
   99.4707000000000         5.624162154340880E-090
   99.7101000000000         6.611221051503401E-090
   99.9495000000000         6.687814032300362E-090
   100.188900000000         5.185795725208510E-090
   100.428300000000         1.349585926912623E-090
   100.667700000000        -5.541202159021693E-090
   100.907100000000        -1.597236926798609E-089
   101.146500000000        -2.991434840762858E-089
   101.385900000000        -4.647193560755949E-089
   101.625300000000        -6.350130192252914E-089
   101.864700000000        -7.726388670380220E-089
   102.104100000000        -8.222502266478242E-089
   102.343500000000        -7.114327817983119E-089
   102.582900000000        -3.562534791549369E-089
   102.822300000000         3.267213674091396E-089
   103.061700000000         1.400445516477295E-088
   103.301100000000         2.878841028174776E-088
   103.540500000000         4.690676577005044E-088
   103.779900000000         6.639308750760693E-088
   104.019300000000         8.364938193704955E-088
   104.258700000000         9.319798655994982E-088
   104.498100000000         8.770488633559862E-088
   104.737500000000         5.844610293128078E-088
   104.976900000000        -3.602200500673603E-089
   105.216300000000        -1.058960172865393E-087
   105.455700000000        -2.516034541209001E-087
   105.695100000000        -4.361042359917855E-087
   105.934500000000        -6.430039947966046E-087
   106.173900000000        -8.402561739326115E-087
   106.413300000000        -9.773353770092603E-087
   106.652700000000        -9.847644741900605E-087
   106.892100000000        -7.775876785463185E-087
   107.131500000000        -2.644954382100596E-087
   107.370900000000         6.358901363708561E-087
   107.610300000000         1.970716079642329E-086
   107.849700000000         3.720981999028320E-086
   108.089100000000         5.764332803933867E-086
   108.328500000000         7.837486759096591E-086
   108.567900000000         9.506326871360074E-086
   108.807300000000         1.015491076541521E-085
   109.046700000000         9.007374561800656E-086
   109.286100000000         5.198020089496002E-086
   109.525500000000        -2.096348133611060E-086
   109.764900000000        -1.345278024382894E-085
   110.004300000000        -2.892814608126083E-085
   110.243700000000        -4.773134002395369E-085
   110.483100000000        -6.787984174993691E-085
   110.722500000000        -8.590478316153862E-085
   110.961900000000        -9.669635230055544E-085
   111.201300000000        -9.360574140307499E-085
   111.440700000000        -6.893379208875639E-085
   111.680100000000        -1.493096680371773E-085
   111.919500000000         7.460185026241557E-085
   112.158900000000         2.020966521215267E-084
   112.398300000000         3.634913566219565E-084
   112.637700000000         5.452664879281052E-084
   112.877100000000         7.217270812178222E-084
   113.116500000000         8.532376731665482E-084
   113.355900000000         8.863264458113632E-084
   113.595300000000         7.567111338039588E-084
   113.834700000000         3.962952681976557E-084
   114.074100000000        -2.550397905725148E-084
   114.313500000000        -1.232540960266867E-083
   114.552900000000        -2.525156419978439E-083
   114.792300000000        -4.051393376452845E-083
   115.031700000000        -5.635854638665440E-083
   115.271100000000        -6.991610416241675E-083
   115.510500000000        -7.715254009066316E-083
   115.749900000000        -7.302728918471411E-083
   115.989300000000        -5.194299047053246E-083
   116.228700000000        -8.557811993938937E-084
   116.468100000000         6.100218065952715E-083
   116.707500000000         1.575529974992177E-082
   116.946900000000         2.769953983234856E-082
   117.186300000000         4.084143926380730E-082
   117.425700000000         5.324904103555260E-082
   117.665100000000         6.207076826650619E-082
   117.904500000000         6.359499634652169E-082
   118.143900000000         5.351174019140316E-082
   118.383300000000         2.743399122817181E-082
   118.622700000000        -1.828410796954388E-082
   118.862100000000        -8.543359344385374E-082
   119.101500000000        -1.726016023871665E-081
   119.340900000000        -2.737250546719206E-081
   119.580300000000        -3.767775138383125E-081
   119.819700000000        -4.629154403866736E-081
   120.059100000000        -5.064924978508215E-081
   120.298500000000        -4.763966200672747E-081
   120.537900000000        -3.391462906577518E-081
   120.777300000000        -6.407011728140567E-082
   121.016700000000         3.693395679512117E-081
   121.256100000000         9.621798903751762E-081
   121.495500000000         1.685787196214619E-080
   121.734900000000         2.471691962442327E-080
   121.974300000000         3.203953021667616E-080
   122.213700000000         3.716553818475873E-080
   122.453100000000         3.798949404846655E-080
   122.692500000000         3.212876256657572E-080
   122.931900000000         1.722980350186210E-080
   123.171300000000        -8.575033373796373E-081
   123.410700000000        -4.607007144557902E-080
   123.650100000000        -9.425956395545916E-080
   123.889500000000        -1.496523607431631E-079
   124.128900000000        -2.056524985850329E-079
   124.368300000000        -2.522223792373891E-079
   124.607700000000        -2.760169733722738E-079
   124.847100000000        -2.611978338660796E-079
   125.086500000000        -1.911121948109739E-079
   125.325900000000        -5.095294736610400E-080
   125.565300000000         1.686095917593463E-079
   125.804700000000         4.670171014391267E-079
   126.044100000000         8.290641755044432E-079
   126.283500000000         1.220493617169230E-078
   126.522900000000         1.584923402541469E-078
   126.762300000000         1.843309252715551E-078
   127.001700000000         1.897261285732652E-078
   127.241100000000         1.637461511147814E-078
   127.480500000000         9.580961152069592E-079
   127.719900000000        -2.224396552830102E-079
   127.959300000000        -1.935317978915953E-078
   128.198700000000        -4.131640359733455E-078
   128.438100000000        -6.653090635702434E-078
   128.677500000000        -9.208265776796082E-078
   128.916900000000        -1.136156578856053E-077
   129.156300000000        -1.254247856227420E-077
   129.395700000000        -1.208309180936878E-077
   129.635100000000        -9.290265738589443E-078
   129.874500000000        -3.555721676968964E-078
   130.113900000000         5.497898820384172E-078
   130.353300000000         1.784416517995864E-077
   130.592700000000         3.287120353796744E-077
   130.832100000000         4.921897291912248E-077
   131.071500000000         6.467238017670054E-077
   131.310900000000         7.615400973409524E-077
   131.550300000000         7.986256634413651E-077
   131.789700000000         7.159850399181083E-077
   132.029100000000         4.730449726801069E-077
   132.268500000000         3.823770641276397E-078
   132.507900000000        -6.015664234253892E-077
   132.747300000000        -1.430566357352152E-076
   132.986700000000        -2.393792494845941E-076
   133.226100000000        -3.388968879304358E-076
   133.465500000000        -4.262768163591713E-076
   133.704900000000        -4.814006568689120E-076
   133.944300000000        -4.806262868384428E-076
   134.183700000000        -3.991901052972741E-076
   134.423100000000        -2.148428819357125E-076
   134.662500000000         8.735212390202772E-077
   134.901900000000         5.093523091477744E-076
   135.141300000000         1.034161242760899E-075
   135.380700000000         1.620395816590113E-075
   135.620100000000         2.198514871732285E-075
   135.859500000000         2.670031261720172E-075
   136.098900000000         2.911102426293107E-075
   136.338300000000         2.781774105195742E-075
   136.577700000000         2.141777795144321E-075
   136.817100000000         8.731105526945964E-076
   137.056500000000        -1.091359984237829E-075
   137.295900000000        -3.735295394739850E-075
   137.535300000000        -6.925799807734756E-075
   137.774700000000        -1.038489441837316E-074
   138.014100000000        -1.367198712524988E-074
   138.253500000000        -1.618472983662040E-074
   138.492900000000        -1.718586607408901E-074
   138.732300000000        -1.586279555847877E-074