  -1.79550000000000         0.000000000000000E+000
  -1.55610000000000         0.000000000000000E+000
  -1.31670000000000         0.000000000000000E+000
  -1.07730000000000         0.000000000000000E+000
 -0.837900000000000         0.000000000000000E+000
 -0.598500000000000         0.000000000000000E+000
 -0.359100000000000         0.000000000000000E+000
 -0.119700000000000         0.000000000000000E+000
  0.119700000000000         0.000000000000000E+000
  0.359100000000000         0.000000000000000E+000
  0.598500000000000         0.000000000000000E+000
  0.837900000000000         0.000000000000000E+000
   1.07730000000000         0.000000000000000E+000
   1.31670000000000         0.000000000000000E+000
   1.55610000000000         0.000000000000000E+000
   1.79550000000000         0.000000000000000E+000
   2.03490000000000         0.000000000000000E+000
   2.27430000000000         0.000000000000000E+000
   2.51370000000000         0.000000000000000E+000
   2.75310000000000         0.000000000000000E+000
   2.99250000000000         0.000000000000000E+000
   3.23190000000000         0.000000000000000E+000
   3.47130000000000         0.000000000000000E+000
   3.71070000000000         0.000000000000000E+000
   3.95010000000000         0.000000000000000E+000
   4.18950000000000         0.000000000000000E+000
   4.42890000000000         0.000000000000000E+000
   4.66830000000000         0.000000000000000E+000
   4.90770000000000         0.000000000000000E+000
   5.14710000000000         0.000000000000000E+000
   5.38650000000000         0.000000000000000E+000
   5.62590000000000         0.000000000000000E+000
   5.86530000000000         0.000000000000000E+000
   6.10470000000000         0.000000000000000E+000
   6.34410000000000         0.000000000000000E+000
   6.58350000000000         0.000000000000000E+000
   6.82290000000000         0.000000000000000E+000
   7.06230000000000         0.000000000000000E+000
   7.30170000000000         0.000000000000000E+000
   7.54110000000000         0.000000000000000E+000
   7.78050000000000         0.000000000000000E+000
   8.01990000000000         0.000000000000000E+000
   8.25930000000000         0.000000000000000E+000
   8.49870000000000         0.000000000000000E+000
   8.73810000000000         0.000000000000000E+000
   8.97750000000000         0.000000000000000E+000
   9.21690000000000         0.000000000000000E+000
   9.45630000000000         0.000000000000000E+000
   9.69570000000000         0.000000000000000E+000
   9.93510000000000         0.000000000000000E+000
   10.1745000000000         0.000000000000000E+000
   10.4139000000000         0.000000000000000E+000
   10.6533000000000         0.000000000000000E+000
   10.8927000000000         0.000000000000000E+000
   11.1321000000000         6.542634011331252E-229
   11.3715000000000         4.052945596943808E-223
   11.6109000000000        -1.623167925824920E-220
   11.8503000000000         3.708650001802893E-218
   12.0897000000000         4.248117011546812E-216
   12.3291000000000         4.332706021775493E-214
   12.5685000000000         2.902568613397293E-212
   12.8079000000000        -1.382851840020427E-209
   13.0473000000000        -3.987870089757510E-203
   13.2867000000000         1.922938084813972E-201
   13.5261000000000         4.153485097566675E-199
   13.7655000000000         2.266444272119189E-197
   14.0049000000000         6.667171751380806E-196
   14.2443000000000         1.138535318356727E-194
   14.4837000000000         6.982999691692206E-194
   14.7231000000000        -2.087532339779556E-192
   14.9625000000000        -7.832131285755909E-191
   15.2019000000000        -1.458814193531267E-189
   15.4413000000000        -1.729263257829079E-188
   15.6807000000000        -9.552582534595703E-188
   15.9201000000000         1.286223711378816E-186
   16.1595000000000         4.900166403306618E-185
   16.3989000000000         9.225300274574617E-184
   16.6383000000000         1.327720573551409E-182
   16.8777000000000         1.613730551781046E-181
   17.1171000000000         1.727620638119116E-180
   17.3565000000000         1.667195991779232E-179
   17.5959000000000         1.471665099335596E-178
   17.8353000000000         1.200444976174298E-177
   18.0747000000000         9.117153652296347E-177
   18.3141000000000         6.484560250308814E-176
   18.5535000000000         4.339103217698642E-175
   18.7929000000000         2.741701950974944E-174
   19.0323000000000         1.640728480844936E-173
   19.2717000000000         9.321597528321462E-173
   19.5111000000000         5.037313809597508E-172
   19.7505000000000         2.592820192000988E-171
   19.9899000000000         1.272365379084852E-170
   20.2293000000000         5.955157407967264E-170
   20.4687000000000         2.657833482763938E-169
   20.7081000000000         1.130025618162372E-168
   20.9475000000000         4.567487542915944E-168
   21.1869000000000         1.748578996440912E-167
   21.4263000000000         6.299698719108549E-167
   21.6657000000000         2.111563946710769E-166
   21.9051000000000         6.440530123788176E-166
   22.1445000000000         1.700286335888349E-165
   22.3839000000000         3.321026875667673E-165
   22.6233000000000         6.155623237140032E-166
   22.8627000000000        -3.962165685661128E-164
   23.1021000000000        -2.837435691531499E-163
   23.3415000000000        -1.452676418775713E-162
   23.5809000000000        -6.389676687310262E-162
   23.8203000000000        -2.553059827959017E-161
   24.0597000000000        -9.493175735841319E-161
   24.2991000000000        -3.325674788501753E-160
   24.5385000000000        -1.104992977759340E-159
   24.7779000000000        -3.493990601324573E-159
   25.0173000000000        -1.052494371534062E-158
   25.2567000000000        -3.016955281464156E-158
   25.4961000000000        -8.198777253119437E-158
   25.7355000000000        -2.096004161134932E-157
   25.9749000000000        -4.963977571093549E-157
   26.2143000000000        -1.053742756044859E-156
   26.4537000000000        -1.836329662751774E-156
   26.6931000000000        -1.736857756174159E-156
   26.9325000000000         4.889948994540284E-156
   27.1719000000000         4.012386213051825E-155
   27.4113000000000         1.805227091675130E-154
   27.6507000000000         6.735294668503829E-154
   27.8901000000000         2.283204603767972E-153
   28.1295000000000         7.296349070598702E-153
   28.3689000000000         2.240916058543377E-152
   28.6083000000000         6.692246190770011E-152
   28.8477000000000         1.958004477767196E-151
   29.0871000000000         5.639672078903072E-151
   29.3265000000000         1.603753186523390E-150
   29.5659000000000         4.508627177505041E-150
   29.8053000000000         1.253267425019559E-149
   30.0447000000000         3.442201464306394E-149
   30.2841000000000         9.329914215473222E-149
   30.5235000000000         2.491593544362153E-148
   30.7629000000000         6.544306424860381E-148
   31.0023000000000         1.687393843100980E-147
   31.2417000000000         4.262505904800419E-147
   31.4811000000000         1.052583263088656E-146
   31.7205000000000         2.534494139863436E-146
   31.9599000000000         5.932186256469569E-146
   32.1993000000000         1.344118097055417E-145
   32.4387000000000         2.931024249059833E-145
   32.6781000000000         6.096249574705470E-145
   32.9175000000000         1.191208942649810E-144
   33.1569000000000         2.123843019054538E-144
   33.3963000000000         3.222878556253833E-144
   33.6357000000000         3.207299929791115E-144
   33.8751000000000        -2.660582382841517E-144
   34.1145000000000        -2.872095970232498E-143
   34.3539000000000        -1.138127077810101E-142
   34.5933000000000        -3.551850843170804E-142
   34.8327000000000        -9.811457219899874E-142
   35.0721000000000        -2.496926017283095E-141
   35.3115000000000        -5.955993068268009E-141
   35.5509000000000        -1.341546466870257E-140
   35.7903000000000        -2.858257089468680E-140
   36.0297000000000        -5.742583935940278E-140
   36.2691000000000        -1.078248645986102E-139
   36.5085000000000        -1.855753099407629E-139
   36.7479000000000        -2.801529547660224E-139
   36.9873000000000        -3.257925639790153E-139
   37.2267000000000        -1.093651709493906E-139
   37.4661000000000         9.251686907509969E-139
   37.7055000000000         4.051196334051272E-138
   37.9449000000000         1.189541352484264E-137
   38.1843000000000         2.934091009232080E-137
   38.4237000000000         6.437714972386323E-137
   38.6631000000000         1.276426820395157E-136
   38.9025000000000         2.271620520492070E-136
   39.1419000000000         3.499993789010067E-136
   39.3813000000000         4.133994904640787E-136
   39.6207000000000         1.523527813121790E-136
   39.8601000000000        -1.112385443245201E-135
   40.0995000000000        -4.906891629674883E-135
   40.3389000000000        -1.432416051300037E-134
   40.5783000000000        -3.504569865519404E-134
   40.8177000000000        -7.639122511483738E-134
   41.0571000000000        -1.513477152039087E-133
   41.2965000000000        -2.727761117450553E-133
   41.5359000000000        -4.394948300178258E-133
   41.7753000000000        -5.997006021104651E-133
   42.0147000000000        -5.694036759627410E-133
   42.2541000000000         1.291410644246490E-133
   42.4935000000000         2.554617870636882E-132
   42.7329000000000         8.798205191829224E-132
   42.9723000000000         2.257769507046772E-131
   43.2117000000000         4.976444438655565E-131
   43.4511000000000         9.818593499789081E-131
   43.6905000000000         1.751312055688317E-130
   43.9299000000000         2.793275309721576E-130
   44.1693000000000         3.815019092051787E-130
   44.4087000000000         3.840331951982849E-130
   44.6481000000000         4.660834605562190E-131
   44.8875000000000        -1.135647896833680E-129
   45.1269000000000        -4.104957689502636E-129
   45.3663000000000        -1.043228542618494E-128
   45.6057000000000        -2.240736000990391E-128
   45.8451000000000        -4.272671027332968E-128
   46.0845000000000        -7.315228554070658E-128
   46.3239000000000        -1.109915483693950E-127
   46.5633000000000        -1.415375547210624E-127
   46.8027000000000        -1.238683258250190E-127
   47.0421000000000         3.283599958481127E-128
   47.2815000000000         5.038217864201103E-127
   47.5209000000000         1.589910834313775E-126
   47.7603000000000         3.747234855652921E-126
   47.9997000000000         7.559323940546419E-126
   48.2391000000000         1.355502258498487E-125
   48.4785000000000         2.169671527967611E-125
   48.7179000000000         3.025716101346053E-125
   48.9573000000000         3.369406053204393E-125
   49.1967000000000         1.909238811020319E-125
   49.4361000000000        -3.906143963585956E-125
   49.6755000000000        -1.852742445531979E-124
   49.9149000000000        -4.883241834943793E-124
   50.1543000000000        -1.039566543993628E-123
   50.3937000000000        -1.932191041209483E-123
   50.6331000000000        -3.199831650250011E-123
   50.8725000000000        -4.680496824693638E-123
   51.1119000000000        -5.759503745958523E-123
   51.3513000000000        -4.941443169838714E-123
   51.5907000000000         7.758711765621866E-124
   51.8301000000000         1.667054931533484E-122
   52.0695000000000         5.096159943042495E-122
   52.3089000000000         1.147496017615884E-121
   52.5483000000000         2.199829385171992E-121
   52.7877000000000         3.732664477993155E-121
   53.0271000000000         5.621598240660716E-121
   53.2665000000000         7.295344408696033E-121
   53.5059000000000         7.313947566855866E-121
   53.7453000000000         2.759723925691000E-121
   53.9847000000000        -1.150299457542821E-120
   54.2241000000000        -4.346868587426695E-120
   54.4635000000000        -1.039757164561227E-119
   54.7029000000000        -2.049489550195370E-119
   54.9423000000000        -3.540589029691075E-119
   55.1817000000000        -5.430598718889246E-119
   55.4211000000000        -7.263272440506385E-119
   55.6605000000000        -7.862041532337379E-119
   55.8999000000000        -4.839649586673080E-119
   56.1393000000000         5.984208161026855E-119
   56.3787000000000         3.107048157754145E-118
   56.6181000000000         7.912595555302564E-118
   56.8575000000000         1.597424680624958E-117
   57.0969000000000         2.793972311607106E-117
   57.3363000000000         4.329365369618698E-117
   57.5757000000000         5.882718125087343E-117
   57.8151000000000         6.622705029675929E-117
   58.0545000000000         4.875610872739306E-117
   58.2939000000000        -2.255263612678263E-117
   58.5333000000000        -1.918698197206765E-116
   58.7727000000000        -5.178684809243940E-116
   59.0121000000000        -1.064237987441790E-115
   59.2515000000000        -1.873403495041124E-115
   59.4909000000000        -2.912508578765406E-115
   59.7303000000000        -3.979234339452494E-115
   59.9697000000000        -4.557844943133487E-115
   60.2091000000000        -3.627668250036810E-115
   60.4485000000000         5.462068637230583E-116
   60.6879000000000         1.055866043995232E-114
   60.9273000000000         2.978210737434424E-114
   61.1667000000000         6.177400500288258E-114
   61.4061000000000         1.087523294706636E-113
   61.6455000000000         1.685923720867125E-113
   61.8849000000000         2.297718267481941E-113
   62.1243000000000         2.639106392945891E-113
   62.3637000000000         2.162449931021007E-113
   62.6031000000000        -4.154594464042444E-115
   62.8425000000000        -5.300261873362161E-113
   63.0819000000000        -1.529076168581386E-112
   63.3213000000000        -3.171068209126353E-112
   63.5607000000000        -5.549495235296829E-112
   63.8001000000000        -8.534260746704994E-112
   64.0395000000000        -1.153310185713925E-111
   64.2789000000000        -1.315294533749052E-111
   64.5183000000000        -1.078752978429591E-111
   64.7577000000000        -2.262141582283837E-113
   64.9971000000000         2.450764721857672E-111
   65.2365000000000         7.071661696203302E-111
   65.4759000000000         1.454117632778565E-110
   65.7153000000000         2.517411559898743E-110
   65.9547000000000         3.825823836965265E-110
   66.1941000000000         5.105759288944234E-110
   66.4335000000000         5.745575150572355E-110
   66.6729000000000         4.638981849228896E-110
   66.9123000000000         5.070661605246694E-112
   67.1517000000000        -1.040856613499437E-109
   67.3911000000000        -2.955131828842524E-109
   67.6305000000000        -5.991095625657742E-109
   67.8699000000000        -1.022936096519842E-108
   68.1093000000000        -1.532969222475852E-108
   68.3487000000000        -2.016045230767427E-108
   68.5881000000000        -2.231573268492750E-108
   68.8275000000000        -1.759019628580235E-108
   69.0669000000000         4.167383414971312E-110
   69.3063000000000         4.024603161614841E-108
   69.5457000000000         1.115604852413795E-107
   69.7851000000000         2.224467472748044E-107
   70.0245000000000         3.741791806948316E-107
   70.2639000000000         5.526321067780740E-107
   70.5033000000000         7.159582345653253E-107
   70.7427000000000         7.792349626696703E-107
   70.9821000000000         5.988208826379686E-107
   71.2215000000000        -3.757618160312056E-108
   71.4609000000000        -1.404574656218318E-106
   71.7003000000000        -3.800538366116771E-106
   71.9397000000000        -7.455525178702691E-106
   72.1791000000000        -1.236191146934774E-105
   72.4185000000000        -1.800767041070686E-105
   72.6579000000000        -2.300822481981857E-105
   72.8973000000000        -2.466793057092247E-105
   73.1367000000000        -1.856391051239840E-105
   73.3761000000000         1.661817603697262E-106
   73.6155000000000         4.399287604813107E-105
   73.8549000000000         1.167646358517080E-104
   74.0943000000000         2.258623987541295E-104
   74.3337000000000         3.698006654471070E-104
   74.5731000000000         5.322589252604907E-104
   74.8125000000000         6.721525335896493E-104
   75.0519000000000         7.123238282720315E-104
   75.2913000000000         5.296022292195480E-104
   75.5307000000000        -4.862747286668990E-105
   75.7701000000000        -1.233217901505357E-103
   76.0095000000000        -3.236165573049890E-103
   76.2489000000000        -6.194151727176331E-103
   76.4883000000000        -1.003961001298892E-102
   76.7277000000000        -1.431171331087968E-102
   76.9671000000000        -1.791353054339228E-102
   77.2065000000000        -1.884730972773863E-102
   77.4459000000000        -1.400015303383778E-102
   77.6853000000000         8.924155485989467E-104
   77.9247000000000         3.091196693151553E-102
   78.1641000000000         8.099578207968959E-102
   78.4035000000000         1.540567776133098E-101
   78.6429000000000         2.479235578199588E-101
   78.8823000000000         3.509909055617917E-101
   79.1217000000000         4.368090471791391E-101
   79.3611000000000         4.584295004678070E-101
   79.6005000000000         3.442075336726276E-101
   79.8399000000000        -2.082748382436941E-103
   80.0793000000000        -6.926649791947455E-101
   80.3187000000000        -1.833411901245827E-100
   80.5581000000000        -3.481986904880091E-100
   80.7975000000000        -5.581783012557149E-100
   81.0369000000000        -7.870580184517745E-100
   81.2763000000000        -9.770219738153538E-100
   81.5157000000000        -1.027581239775785E-099
   81.7551000000000        -7.880531032630566E-100
   81.9945000000000        -5.940636516025086E-101
   82.2339000000000         1.386373471844284E-099
   82.4733000000000         3.759385756616585E-099
   82.7127000000000         7.167043575702839E-099
   82.9521000000000         1.148379824445079E-098
   83.1915000000000         1.617534837029947E-098
   83.4309000000000         2.009185248143465E-098
   83.6703000000000         2.126768556744600E-098
   83.9097000000000         1.679709172467630E-098
   84.1491000000000         2.893477761757257E-099
   84.3885000000000        -2.472116135631946E-098
   84.6279000000000        -6.992290450683220E-098
   84.8673000000000        -1.346176104852199E-097
   85.1067000000000        -2.163848191352489E-097
   85.3461000000000        -3.053649979035524E-097
   85.5855000000000        -3.806812388237324E-097
   85.8249000000000        -4.070829582266809E-097
   86.0643000000000        -3.330285498574997E-097
   86.3037000000000        -9.203930987636587E-098
   86.5431000000000         3.902546164578455E-097
   86.7825000000000         1.180594272200158E-096
   87.0219000000000         2.311482482700685E-096
   87.2613000000000         3.741958749885536E-096
   87.5007000000000         5.306693504494651E-096
   87.7401000000000         6.658586348335479E-096
   87.9795000000000         7.216322851966171E-096
   88.2189000000000         6.136463460799551E-096
   88.4583000000000         2.338751980273052E-096
   88.6977000000000        -5.378403075116852E-096
   88.9371000000000        -1.809100017544535E-095
   89.1765000000000        -3.633388438592070E-095
   89.4159000000000        -5.949751100173248E-095
   89.6553000000000        -8.505632229101989E-095
   89.8947000000000        -1.077118242380078E-094
   90.1341000000000        -1.186249263812735E-094
   90.3735000000000        -1.050273683138334E-094
   90.6129000000000        -5.062739406945486E-095
   90.8523000000000         6.266709506539226E-095
   91.0917000000000         2.511378232413697E-094
   91.3311000000000         5.232632766584059E-094
   91.5705000000000         8.711215850578084E-094
   91.8099000000000         1.259514194826203E-093
   92.0493000000000         1.614018908719573E-093
   92.2887000000000         1.810417153019755E-093
   92.5281000000000         1.669461435700564E-093
   92.7675000000000         9.625572266872780E-094
   93.0069000000000        -5.647425534257360E-094
   93.2463000000000        -3.144067787829062E-093
   93.4857000000000        -6.904194396181830E-093
   93.7251000000000        -1.175717205882716E-092
   93.9645000000000        -1.725534038057762E-092
   94.2039000000000        -2.243528979047567E-092
   94.4433000000000        -2.568036004699943E-092
   94.6827000000000        -2.465200521040555E-092
   94.9221000000000        -1.635969920944240E-092
   95.1615000000000         2.545636750480548E-093
   95.4009000000000         3.516541083604685E-092
   95.6403000000000         8.336094942996703E-092
   95.8797000000000         1.463480910094810E-091
   96.1191000000000         2.189394007313410E-091
   96.3585000000000         2.896297192593635E-091
   96.5979000000000         3.389029568728376E-091
   96.8373000000000         3.383542470043341E-091
   97.0767000000000         2.514406880925326E-091
   97.3161000000000         3.684212129349672E-092
   97.5555000000000        -3.445480177775745E-091
   97.7949000000000        -9.181738431917799E-091
   98.0343000000000        -1.679618415896837E-090
   98.2737000000000        -2.574349562154647E-090
   98.5131000000000        -3.475605963969466E-090
   98.7525000000000        -4.164619549006733E-090
   98.9919000000000        -4.319715565008706E-090
   99.2313000000000        -3.523178279762566E-090
   99.4707000000000        -1.296539064905735E-090
   99.7101000000000         2.824695245631364E-090
   99.9495000000000         9.167948356505068E-090
   100.188900000000         1.774888632953745E-089
   100.428300000000         2.805225205948998E-089
   100.667700000000         3.879094601826137E-089
   100.907100000000         4.768669155307877E-089
   101.146500000000         5.133961449524073E-089
   101.385900000000         4.527791234728843E-089
   101.625300000000         2.429667864649336E-089
   101.864700000000        -1.680131615341489E-089
   102.104100000000        -8.197069449565549E-089
   102.343500000000        -1.721582006643102E-088
   102.582900000000        -2.830721352701316E-088
   102.822300000000        -4.027035566597632E-088
   103.061700000000        -5.090162757152553E-088
   103.301100000000        -5.684547104746550E-088
   103.540500000000        -5.361492666698454E-088
   103.779900000000        -3.588735414652731E-088
   104.019300000000         1.814983771919344E-089
   104.258700000000         6.396812734377930E-088
   104.498100000000         1.523730638647749E-087
   104.737500000000         2.640180064105684E-087
   104.976900000000         3.886675466610829E-087
   105.216300000000         5.065528650907574E-087
   105.455700000000         5.867498381701362E-087
   105.695100000000         5.870445517022999E-087
   105.934500000000         4.562504123651971E-087
   106.173900000000         1.399910931935873E-087
   106.413300000000        -4.091827203164766E-087
   106.652700000000        -1.216904897500258E-086
   106.892100000000        -2.267687046563548E-086
   107.131500000000        -3.482742656100408E-086
   107.370900000000        -4.698072762169717E-086
   107.610300000000        -5.647793527215676E-086
   107.849700000000        -5.959558971779808E-086
   108.089100000000        -5.170430951719925E-086
   108.328500000000        -2.772122257422115E-086
   108.567900000000         1.706487996188927E-086
   108.807300000000         8.575020378191968E-086
   109.046700000000         1.781722294446165E-085
   109.286100000000         2.889802585463217E-085
   109.525500000000         4.056641477808542E-085
   109.764900000000         5.069380475019119E-085
   110.004300000000         5.620335292164946E-085
   110.243700000000         5.315878219013105E-085
   110.483100000000         3.708748748847679E-085
   110.722500000000         3.606651458399218E-086
   110.961900000000        -5.060294901332391E-085
   111.201300000000        -1.264780450979900E-084
   111.440700000000        -2.209853237782272E-084
   111.680100000000        -3.254416785173905E-084
   111.919500000000        -4.240388684871829E-084
   112.158900000000        -4.929958117243428E-084
   112.398300000000        -5.008721814524798E-084
   112.637700000000        -4.106393095205089E-084
   112.877100000000        -1.840788742190309E-084
   113.116500000000         2.110772230168244E-084
   113.355900000000         7.911818012592647E-084
   113.595300000000         1.544327885241002E-083
   113.834700000000         2.416802857099046E-083
   114.074100000000         3.300416926835142E-083
   114.313500000000         4.023752652800660E-083
   114.552900000000         4.351270667652717E-083
   114.792300000000         3.994788431834662E-083
   115.031700000000         2.641840443536806E-083
   115.271100000000         4.512613949673244E-086
   115.510500000000        -4.109785320858907E-083
   115.749900000000        -9.707714558083945E-083
   115.989300000000        -1.650674520196509E-082
   116.228700000000        -2.383278231551120E-082
   116.468100000000        -3.053932328960412E-082
   116.707500000000        -3.497560555105750E-082
   116.946900000000        -3.503624813480566E-082
   117.186300000000        -2.832624254499353E-082
   117.425700000000        -1.247060505830350E-082
   117.665100000000         1.441463520629975E-082
   117.904500000000         5.309593678742965E-082
   118.143900000000         1.024791860236118E-081
   118.383300000000         1.588318898106052E-081
   118.622700000000         2.151018013274533E-081
   118.862100000000         2.605128961735274E-081
   119.101500000000         2.806603827542159E-081
   119.340900000000         2.583458467183430E-081
   119.580300000000         1.753771049498564E-081
   119.819700000000         1.548974574119864E-082
   120.059100000000        -2.315844201628685E-081
   120.298500000000        -5.650801965597561E-081
   120.537900000000        -9.676441890372577E-081
   120.777300000000        -1.400039301034969E-080
   121.016700000000        -1.797229905344228E-080
   121.256100000000        -2.067276861257467E-080
   121.495500000000        -2.094667189281848E-080
   121.734900000000        -1.749694733161795E-080
   121.974300000000        -9.051962125921221E-081
   122.213700000000         5.387601863348831E-081
   122.453100000000         2.622803008377951E-080
   122.692500000000         5.291008104189977E-080
   122.931900000000         8.352712826547110E-080
   123.171300000000         1.144989266759982E-079
   123.410700000000         1.403877514868683E-079
   123.650100000000         1.539602556029421E-079
   123.889500000000         1.466043330100337E-079
   124.128900000000         1.091993659847415E-079
   124.368300000000         3.350436209000177E-080
   124.607700000000        -8.593323742563112E-080
   124.847100000000        -2.494370928993360E-079
   125.086500000000        -4.496386306115611E-079
   125.325900000000        -6.690393034877990E-079
   125.565300000000        -8.781911346589980E-079
   125.804700000000        -1.035113622889782E-078
   126.044100000000        -1.086640717708020E-078
   126.283500000000        -9.723808651781411E-079
   126.522900000000        -6.318376832623651E-079
   126.762300000000        -1.494428096541906E-080
   127.001700000000         9.042119312342964E-079
   127.241100000000         2.111356250534986E-078
   127.480500000000         3.535380344446466E-078
   127.719900000000         5.033673716519046E-078
   127.959300000000         6.382888594341406E-078
   128.198700000000         7.279263773101108E-078
   128.438100000000         7.352905068518501E-078
   128.677500000000         6.200066893616286E-078
   128.916900000000         3.436276979521237E-078
   129.156300000000        -1.229087092688023E-078
   129.395700000000        -7.899514633360428E-078
   129.635100000000        -1.638653291151173E-077
   129.874500000000        -2.610571018350174E-077
   130.113900000000        -3.599137402104378E-077
   130.353300000000        -4.445293605331004E-077
   130.592700000000        -4.939916979422542E-077
   130.832100000000        -4.835742552376136E-077
   131.071500000000        -3.871122146965374E-077
   131.310900000000        -1.807064160224504E-077
   131.550300000000         1.522545957361687E-077
   131.789700000000         6.149862998798334E-077
   132.029100000000         1.190628813604031E-076
   132.268500000000         1.835837369656493E-076
   132.507900000000         2.475818171622062E-076
   132.747300000000         3.002278008074159E-076
   132.986700000000         3.275941375885990E-076
   133.226100000000         3.135289070236849E-076
   133.465500000000         2.412904889632332E-076
   133.704900000000         9.602062181540164E-077
   133.944300000000        -1.319675183564550E-076
   134.183700000000        -4.432519717300796E-076
   134.423100000000        -8.250606714328058E-076
   134.662500000000        -1.247276008843172E-075
   134.901900000000        -1.659443284074994E-075
   135.141300000000        -1.989721071637840E-075
   135.380700000000        -2.146822094810905E-075
   135.620100000000        -2.025985373074005E-075
   135.859500000000        -1.519842043213490E-075
   136.098900000000        -5.346397927908256E-076
   136.338300000000         9.883613787884320E-076
   136.577700000000         3.047427564630978E-075
   136.817100000000         5.553087032139285E-075
   137.056500000000         8.302648776017265E-075
   137.295900000000         1.096143502479229E-074
   137.535300000000         1.305682593246968E-074
   137.774700000000         1.399193046884981E-074
   138.014100000000         1.308563891067715E-074
   138.253500000000         9.644631558797656E-075
   138.492900000000         3.070288508601530E-075
   138.732300000000        -7.000876201856846E-075