  -1.79550000000000         0.000000000000000E+000
  -1.55610000000000         0.000000000000000E+000
  -1.31670000000000         0.000000000000000E+000
  -1.07730000000000         0.000000000000000E+000
 -0.837900000000000         0.000000000000000E+000
 -0.598500000000000         0.000000000000000E+000
 -0.359100000000000         0.000000000000000E+000
 -0.119700000000000         0.000000000000000E+000
  0.119700000000000         0.000000000000000E+000
  0.359100000000000         0.000000000000000E+000
  0.598500000000000         0.000000000000000E+000
  0.837900000000000         0.000000000000000E+000
   1.07730000000000         0.000000000000000E+000
   1.31670000000000         0.000000000000000E+000
   1.55610000000000         0.000000000000000E+000
   1.79550000000000         0.000000000000000E+000
   2.03490000000000         0.000000000000000E+000
   2.27430000000000         0.000000000000000E+000
   2.51370000000000         0.000000000000000E+000
   2.75310000000000         0.000000000000000E+000
   2.99250000000000         0.000000000000000E+000
   3.23190000000000         0.000000000000000E+000
   3.47130000000000         0.000000000000000E+000
   3.71070000000000         0.000000000000000E+000
   3.95010000000000         0.000000000000000E+000
   4.18950000000000         0.000000000000000E+000
   4.42890000000000         0.000000000000000E+000
   4.66830000000000         0.000000000000000E+000
   4.90770000000000         0.000000000000000E+000
   5.14710000000000         0.000000000000000E+000
   5.38650000000000         0.000000000000000E+000
   5.62590000000000         0.000000000000000E+000
   5.86530000000000         0.000000000000000E+000
   6.10470000000000         0.000000000000000E+000
   6.34410000000000         0.000000000000000E+000
   6.58350000000000         0.000000000000000E+000
   6.82290000000000         0.000000000000000E+000
   7.06230000000000         0.000000000000000E+000
   7.30170000000000         0.000000000000000E+000
   7.54110000000000         0.000000000000000E+000
   7.78050000000000         0.000000000000000E+000
   8.01990000000000         0.000000000000000E+000
   8.25930000000000         0.000000000000000E+000
   8.49870000000000         0.000000000000000E+000
   8.73810000000000         0.000000000000000E+000
   8.97750000000000         0.000000000000000E+000
   9.21690000000000         0.000000000000000E+000
   9.45630000000000         0.000000000000000E+000
   9.69570000000000         0.000000000000000E+000
   9.93510000000000         0.000000000000000E+000
   10.1745000000000         0.000000000000000E+000
   10.4139000000000         0.000000000000000E+000
   10.6533000000000         0.000000000000000E+000
   10.8927000000000         0.000000000000000E+000
   11.1321000000000         0.000000000000000E+000
   11.3715000000000         3.132613164625404E-229
   11.6109000000000         1.940550351816695E-223
   11.8503000000000        -7.771727997523586E-221
   12.0897000000000         1.775721026366743E-218
   12.3291000000000         2.033920707848639E-216
   12.5685000000000         2.074677215328743E-214
   12.8079000000000         1.389953244165409E-212
   13.0473000000000        -6.620887142296279E-210
   13.2867000000000        -1.909392197585943E-203
   13.5261000000000         9.207027483880423E-202
   13.7655000000000         1.988497725495165E-199
   14.0049000000000         1.085265587765507E-197
   14.2443000000000         3.194230332286626E-196
   14.4837000000000         5.462159760169665E-195
   14.7231000000000         3.375402555705095E-194
   14.9625000000000        -9.940483245262812E-193
   15.2019000000000        -3.746649057064224E-191
   15.4413000000000        -6.994742841872970E-190
   15.6807000000000        -8.317178969056271E-189
   15.9201000000000        -4.643723945983154E-188
   16.1595000000000         6.075267340391201E-187
   16.3989000000000         2.341555949957225E-185
   16.6383000000000         4.423149038806719E-184
   16.8777000000000         6.380541665663721E-183
   17.1171000000000         7.770773372315717E-182
   17.3565000000000         8.335653031970966E-181
   17.5959000000000         8.060242142362119E-180
   17.8353000000000         7.129689025938545E-179
   18.0747000000000         5.828332967346159E-178
   18.3141000000000         4.436590058978877E-177
   18.5535000000000         3.163090777521321E-176
   18.7929000000000         2.121928521223899E-175
   19.0323000000000         1.344357801902016E-174
   19.2717000000000         8.068000818407948E-174
   19.5111000000000         4.597616676750518E-173
   19.7505000000000         2.492545860219366E-172
   19.9899000000000         1.287418474697579E-171
   20.2293000000000         6.341340021080206E-171
   20.4687000000000         2.980071214404484E-170
   20.7081000000000         1.335984071758175E-169
   20.9475000000000         5.708569781201885E-169
   21.1869000000000         2.320511442723971E-168
   21.4263000000000         8.943053213079273E-168
   21.6657000000000         3.248346890981570E-167
   21.9051000000000         1.100447349815909E-166
   22.1445000000000         3.408560512367935E-166
   22.3839000000000         9.241418326049324E-166
   22.6233000000000         1.930963719306475E-165
   22.8627000000000         1.218873073199194E-165
   23.1021000000000        -1.703988558363901E-164
   23.3415000000000        -1.346375478373290E-163
   23.5809000000000        -7.125813548934506E-163
   23.8203000000000        -3.194014745721483E-162
   24.0597000000000        -1.293663181116123E-161
   24.2991000000000        -4.864734016892972E-161
   24.5385000000000        -1.721699406846251E-160
   24.7779000000000        -5.777179779201016E-160
   25.0173000000000        -1.845092640598832E-159
   25.2567000000000        -5.617061028825193E-159
   25.4961000000000        -1.629027452824921E-158
   25.7355000000000        -4.487280651676106E-158
   25.9749000000000        -1.166469537633898E-157
   26.2143000000000        -2.825480526207203E-157
   26.4537000000000        -6.211789853576681E-157
   26.6931000000000        -1.161782695146269E-156
   26.9325000000000        -1.452786479013855E-156
   27.1719000000000         1.179524883439620E-156
   27.4113000000000         1.775851870907829E-155
   27.6507000000000         8.761379803284485E-155
   27.8901000000000         3.402444274370417E-154
   28.1295000000000         1.180812162316950E-153
   28.3689000000000         3.833736362439701E-153
   28.6083000000000         1.191031825062264E-152
   28.8477000000000         3.587621112384651E-152
   29.0871000000000         1.056595726461161E-151
   29.3265000000000         3.059037102617257E-151
   29.5659000000000         8.735365983535155E-151
   29.8053000000000         2.464634402851141E-150
   30.0447000000000         6.874181029347164E-150
   30.2841000000000         1.894589501395016E-149
   30.5235000000000         5.154581029303294E-149
   30.7629000000000         1.382433939180100E-148
   31.0023000000000         3.648872019153481E-148
   31.2417000000000         9.461675659947592E-148
   31.4811000000000         2.405775029133788E-147
   31.7205000000000         5.985936229663243E-147
   31.9599000000000         1.454093297079992E-146
   32.1993000000000         3.438924402563954E-146
   32.4387000000000         7.889730745781325E-146
   32.6781000000000         1.747266850706244E-145
   32.9175000000000         3.707857370947112E-145
   33.1569000000000         7.450775268113534E-145
   33.3963000000000         1.387681774618024E-144
   33.6357000000000         2.288191779545688E-144
   33.8751000000000         2.923336981002009E-144
   34.1145000000000         1.014304934641169E-144
   34.3539000000000        -1.082825852447119E-143
   34.5933000000000        -5.347921955090650E-143
   34.8327000000000        -1.808908768954893E-142
   35.0721000000000        -5.232517912397124E-142
   35.3115000000000        -1.376419053970636E-141
   35.5509000000000        -3.374981272326436E-141
   35.7903000000000        -7.799743537345425E-141
   36.0297000000000        -1.706031621670247E-140
   36.2691000000000        -3.529523542262747E-140
   36.5085000000000        -6.868686138651706E-140
   36.7479000000000        -1.241486938222647E-139
   36.9873000000000        -2.028240961284886E-139
   37.2267000000000        -2.801381734554173E-139
   37.4661000000000        -2.551881399790568E-139
   37.7055000000000         1.628325956761594E-139
   37.9449000000000         1.684524664764693E-138
   38.1843000000000         5.858356591370817E-138
   38.4237000000000         1.573295241696789E-137
   38.6631000000000         3.668213587915653E-137
   38.9025000000000         7.684826857748802E-137
   39.1419000000000         1.454473264003168E-136
   39.3813000000000         2.444279711952900E-136
   39.6207000000000         3.433830024345176E-136
   39.8601000000000         3.173744828875612E-136
   40.0995000000000        -1.892271477912841E-136
   40.3389000000000        -2.032045229400772E-135
   40.5783000000000        -7.047635201415863E-135
   40.8177000000000        -1.881192574550768E-134
   41.0571000000000        -4.362375378640000E-134
   41.2965000000000        -9.127721178513916E-134
   41.5359000000000        -1.742289560899325E-133
   41.7753000000000        -3.017073363976741E-133
   42.0147000000000        -4.613656043804231E-133
   42.2541000000000        -5.743378164486344E-133
   42.4935000000000        -3.995328627339012E-133
   42.7329000000000         6.488132200123050E-133
   42.9723000000000         3.813047783113932E-132
   43.2117000000000         1.145901361975225E-131
   43.4511000000000         2.764026375539678E-131
   43.6905000000000         5.847043929674236E-131
   43.9299000000000         1.114930849817534E-130
   44.1693000000000         1.922124611262114E-130
   44.4087000000000         2.941561991091929E-130
   44.6481000000000         3.760875549871502E-130
   44.8875000000000         3.164722752006245E-130
   45.1269000000000        -1.676606580168163E-130
   45.3663000000000        -1.648981466533237E-129
   45.6057000000000        -5.162638920074162E-129
   45.8451000000000        -1.237762543927523E-128
   46.0845000000000        -2.562018779894441E-128
   46.3239000000000        -4.740293975616555E-128
   46.5633000000000        -7.876294115821071E-128
   46.8027000000000        -1.151711209566102E-127
   47.0421000000000        -1.380710955632298E-127
   47.2815000000000        -9.944924435540260E-128
   47.5209000000000         1.031587757747190E-127
   47.7603000000000         6.618000631140329E-127
   47.9997000000000         1.897334824661337E-126
   48.2391000000000         4.281204365847658E-126
   48.4785000000000         8.387479638352096E-126
   48.7179000000000         1.466959164175657E-125
   48.9573000000000         2.287460833159701E-125
   49.1967000000000         3.080230782449921E-125
   49.4361000000000         3.201604375876228E-125
   49.6755000000000         1.209969052684965E-125
   49.9149000000000        -5.669326453330886E-125
   50.1543000000000        -2.217099285302591E-124
   50.3937000000000        -5.544377257974578E-124
   50.6331000000000        -1.146842999061360E-123
   50.8725000000000        -2.086517119937163E-123
   51.1119000000000        -3.387864878724674E-123
   51.3513000000000        -4.844167513502103E-123
   51.5907000000000        -5.753827868443451E-123
   51.8301000000000        -4.472680394164125E-123
   52.0695000000000         2.228031143738875E-123
   52.3089000000000         1.992773341312334E-122
   52.5483000000000         5.717014046718739E-122
   52.7877000000000         1.252555643751583E-121
   53.0271000000000         2.358901156734996E-121
   53.2665000000000         3.944176881379935E-121
   53.5059000000000         5.851912059618658E-121
   53.7453000000000         7.446094976390526E-121
   53.9847000000000         7.173267875239506E-121
   54.2241000000000         1.938461173675503E-121
   54.4635000000000        -1.363953892135951E-120
   54.7029000000000        -4.784511186551605E-120
   54.9423000000000        -1.117690985847138E-119
   55.1817000000000        -2.173685146071247E-119
   55.4211000000000        -3.717861652451310E-119
   55.6605000000000        -5.651339990585704E-119
   55.8999000000000        -7.482207138134446E-119
   56.1393000000000        -7.968564212684776E-119
   56.3787000000000        -4.616968270634790E-119
   56.6181000000000         6.907982366642072E-119
   56.8575000000000         3.326853924815388E-118
   57.0969000000000         8.339267607496509E-118
   57.3363000000000         1.670439335279021E-117
   57.5757000000000         2.906826899723084E-117
   57.8151000000000         4.487084773570840E-117
   58.0545000000000         6.077778067931916E-117
   58.2939000000000         6.821527259438420E-117
   58.5333000000000         4.997957850181565E-117
   58.7727000000000        -2.365199708787572E-117
   59.0121000000000        -1.979758501647843E-116
   59.2515000000000        -5.332091454750050E-116
   59.4909000000000        -1.094961443590475E-115
   59.7303000000000        -1.927718252987882E-115
   59.9697000000000        -3.000218845320329E-115
   60.2091000000000        -4.110014411760196E-115
   60.4485000000000        -4.737146403437954E-115
   60.6879000000000        -3.848490565409594E-115
   60.9273000000000         3.183402152112165E-116
   61.1667000000000         1.041118244542643E-114
   61.4061000000000         2.989573381059139E-114
   61.6455000000000         6.248179779598018E-114
   61.8849000000000         1.106177615657093E-113
   62.1243000000000         1.724965484430155E-113
   62.3637000000000         2.369781756599585E-113
   62.6031000000000         2.760346511403013E-113
   62.8425000000000         2.349889558305751E-113
   63.0819000000000         2.225811264372103E-114
   63.3213000000000        -4.971327136861925E-113
   63.5607000000000        -1.496049345885976E-112
   63.8001000000000        -3.154231032346314E-112
   64.0395000000000        -5.582253391408327E-112
   64.2789000000000        -8.676280201544585E-112
   64.5183000000000        -1.187988361899879E-111
   64.7577000000000        -1.384134946226547E-111
   64.9971000000000        -1.198819495795855E-111
   65.2365000000000        -2.107087974010940E-112
   65.4759000000000         2.187092124346287E-111
   65.7153000000000         6.751606428342673E-111
   65.9547000000000         1.424045867314147E-110
   66.1941000000000         2.506965095973236E-110
   66.4335000000000         3.868683414860646E-110
   66.6729000000000         5.257946478067280E-110
   66.9123000000000         6.089827924271441E-110
   67.1517000000000         5.282224805833201E-110
   67.3911000000000         1.106206458836139E-110
   67.6305000000000        -8.866946390664807E-110
   67.8699000000000        -2.757915939681313E-109
   68.1093000000000        -5.784512669203486E-109
   68.3487000000000        -1.009777257689569E-108
   68.5881000000000        -1.543733723411792E-108
   68.8275000000000        -2.078254538643899E-108
   69.0669000000000        -2.385952321576009E-108
   69.3063000000000        -2.058301106853016E-108
   69.5457000000000        -4.589723277948231E-109
   69.7851000000000         3.283214926504235E-108
   70.0245000000000         1.019177793172281E-107
   70.2639000000000         2.119891409817278E-107
   70.5033000000000         3.665180320425700E-107
   70.7427000000000         5.547899436916055E-107
   70.9821000000000         7.396157321688080E-107
   71.2215000000000         8.415053822986650E-107
   71.4609000000000         7.216242564172338E-107
   71.7003000000000         1.689950369013342E-107
   71.9397000000000        -1.098073513279476E-106
   72.1791000000000        -3.400710418661515E-106
   72.4185000000000        -7.016956724803173E-106
   72.6579000000000        -1.202278301130796E-105
   72.8973000000000        -1.803329476853230E-105
   73.1367000000000        -2.383378816866564E-105
   73.3761000000000        -2.692169512186866E-105
   73.6155000000000        -2.303810990001539E-105
   73.8549000000000        -5.857906070023503E-106
   74.0943000000000         3.286879774578240E-105
   74.3337000000000         1.022850104534537E-104
   74.5731000000000         2.099293563618572E-104
   74.8125000000000         3.571305838681766E-104
   75.0519000000000         5.317559894445813E-104
   75.2913000000000         6.981912328448253E-104
   75.5307000000000         7.853295367949009E-104
   75.7701000000000         6.749083988362540E-104
   76.0095000000000         1.948648055541356E-104
   76.2489000000000        -8.745676775400333E-104
   76.4883000000000        -2.770895041417891E-103
   76.7277000000000        -5.681532951759131E-103
   76.9671000000000        -9.623343374667082E-103
   77.2065000000000        -1.425853137593535E-102
   77.4459000000000        -1.864743527230834E-102
   77.6853000000000        -2.096180464853688E-102
   77.9247000000000        -1.822014670763916E-102
   78.1641000000000        -6.161154881727244E-103
   78.4035000000000         2.056063375211621E-102
   78.6429000000000         6.760123023952546E-102
   78.8823000000000         1.392664332363125E-101
   79.1217000000000         2.356556758225113E-101
   79.3611000000000         3.484106050256842E-101
   79.6005000000000         4.551517206464972E-101
   79.8399000000000         5.132171721481383E-101
   80.0793000000000         4.541545007209865E-101
   80.3187000000000         1.815691801096941E-101
   80.5581000000000        -4.236831175955158E-101
   80.7975000000000        -1.485606149946893E-100
   81.0369000000000        -3.096240824007879E-100
   81.2763000000000        -5.254039942293990E-100
   81.5157000000000        -7.774222034635793E-100
   81.7551000000000        -1.017409891834045E-099
   81.9945000000000        -1.154742029305931E-099
   82.2339000000000        -1.045853659472773E-099
   82.4733000000000        -4.909464109868877E-100
   82.7127000000000         7.541402407952482E-100
   82.9521000000000         2.940634053059632E-099
   83.1915000000000         6.252582840238286E-099
   83.4309000000000         1.068539085275902E-098
   83.6703000000000         1.587256180834919E-098
   83.9097000000000         2.086835870245216E-098
   84.1491000000000         2.391500932612421E-098
   84.3885000000000         2.225375585478153E-098
   84.6279000000000         1.207851726871845E-098
   84.8673000000000        -1.122533082308972E-098
   85.1067000000000        -5.237639463160484E-098
   85.3461000000000        -1.148303822250469E-097
   85.5855000000000        -1.985851556278257E-097
   85.8249000000000        -2.971005593738499E-097
   86.0643000000000        -3.934964760267606E-097
   86.3037000000000        -4.565546290456207E-097
   86.5431000000000        -4.375648975955645E-097
   86.7825000000000        -2.697007186856044E-097
   87.0219000000000         1.277036399338713E-097
   87.2613000000000         8.370370940314838E-097
   87.5007000000000         1.919353489379066E-096
   87.7401000000000         3.377881943983522E-096
   87.9795000000000         5.107484632962094E-096
   88.2189000000000         6.833057325504926E-096
   88.4583000000000         8.045623337992919E-096
   88.6977000000000         7.952851773659663E-096
   88.9371000000000         5.470443945626968E-096
   89.1765000000000        -7.091191103435741E-097
   89.4159000000000        -1.192621989835186E-095
   89.6553000000000        -2.919652737797308E-095
   89.8947000000000        -5.265118701129217E-095
   90.1341000000000        -8.076894882313121E-095
   90.3735000000000        -1.094488017626459E-094
   90.6129000000000        -1.310560527717946E-094
   90.8523000000000        -1.336891980431009E-094
   91.0917000000000        -1.010510476544848E-094
   91.3311000000000        -1.344440827513310E-095
   91.5705000000000         1.494874092095599E-094
   91.8099000000000         4.036486066505456E-094
   92.0493000000000         7.525428056923459E-094
   92.2887000000000         1.176440860145477E-093
   92.5281000000000         1.619370538558205E-093
   92.7675000000000         1.975778995558907E-093
   93.0069000000000         2.080242938696073E-093
   93.2463000000000         1.705380260978665E-093
   93.4857000000000         5.748632818835184E-094
   93.7251000000000        -1.600348015913196E-093
   93.9645000000000        -5.054470699882926E-093
   94.2039000000000        -9.862204990133764E-093
   94.4433000000000        -1.579648745156268E-092
   94.6827000000000        -2.215796138063709E-092
   94.9221000000000        -2.759986754630486E-092
   95.1615000000000        -2.999098536211811E-092
   95.4009000000000        -2.638101667017477E-092
   95.6403000000000        -1.315378665381888E-092
   95.8797000000000         1.353220591689343E-092
   96.1191000000000         5.691767932152064E-092
   96.3585000000000         1.183603909870595E-091
   96.5979000000000         1.955923889029039E-091
   96.8373000000000         2.806271267377741E-091
   97.0767000000000         3.575964023685790E-091
   97.3161000000000         4.010169281964786E-091
   97.5555000000000         3.752364100439053E-091
   97.7949000000000         2.360473372845760E-091
   98.0343000000000        -6.438522607631902E-092
   98.2737000000000        -5.681539602468298E-091
   98.5131000000000        -1.296983796435964E-090
   98.7525000000000        -2.232274095795410E-090
   98.9919000000000        -3.291003636500388E-090
   99.2313000000000        -4.300553908321579E-090
   99.4707000000000        -4.977901396850705E-090
   99.7101000000000        -4.921336812598445E-090
   99.9495000000000        -3.625437313242408E-090
   100.188900000000        -5.317231395038206E-091
   100.428300000000         4.872729461340121E-090
   100.667700000000         1.289969514657999E-089
   100.907100000000         2.344583441488366E-089
   101.146500000000         3.573208306219410E-089
   101.385900000000         4.802724183520492E-089
   101.625300000000         5.741114749407580E-089
   101.864700000000         5.966049157114596E-089
   102.104100000000         4.936667731982075E-089
   102.343500000000         2.041292304662610E-089
   102.582900000000        -3.306266915825098E-089
   102.822300000000        -1.151220153207129E-088
   103.061700000000        -2.258771320869456E-088
   103.301100000000        -3.588390081331771E-088
   103.540500000000        -4.980532474622104E-088
   103.779900000000        -6.155472770146991E-088
   104.019300000000        -6.698818991157831E-088
   104.258700000000        -6.068571347147494E-088
   104.498100000000        -3.636025053937677E-088
   104.737500000000         1.227050950697930E-088
   104.976900000000         9.005157093000337E-088
   105.216300000000         1.983645308483058E-087
   105.455700000000         3.325890827354581E-087
   105.695100000000         4.793003533641670E-087
   105.934500000000         6.136660140905193E-087
   106.173900000000         6.977530508046234E-087
   106.413300000000         6.806937495116089E-087
   106.652700000000         5.018363643170946E-087
   106.892100000000         9.803968458848559E-088
   107.131500000000        -5.839321935775320E-087
   107.370900000000        -1.569497499152390E-086
   107.610300000000        -2.833369432104393E-086
   107.849700000000        -4.273661039983257E-086
   108.089100000000        -5.686806267792566E-086
   108.328500000000        -6.749263379666756E-086
   108.567900000000        -7.014098404646274E-086
   108.807300000000        -5.932196927091498E-086
   109.046700000000        -2.908378647567961E-086
   109.286100000000         2.598689418716738E-086
   109.525500000000         1.092799613162992E-085
   109.764900000000         2.202188881446403E-085
   110.004300000000         3.520018984602146E-085
   110.243700000000         4.893205419334980E-085
   110.483100000000         6.065261475865621E-085
   110.722500000000         6.668954320283248E-085
   110.961900000000         6.237947947693776E-085
   111.201300000000         4.246085121525300E-085
   111.440700000000         1.821791484020122E-086
   111.680100000000        -6.334692180976220E-085
   111.919500000000        -1.539996841901064E-084
   112.158900000000        -2.663767320414254E-084
   112.398300000000        -3.900460788437217E-084
   112.637700000000        -5.061943325208726E-084
   112.877100000000        -5.866601802421414E-084
   113.116500000000        -5.943312974969447E-084
   113.355900000000        -4.855964058616858E-084
   113.595300000000        -2.155134510540087E-084
   113.834700000000         2.538277855917060E-084
   114.074100000000         9.416517569250146E-084
   114.313500000000         1.834067410160372E-083
   114.552900000000         2.868224527085971E-083
   114.792300000000         3.917455805832493E-083
   115.031700000000         4.780929228248406E-083
   115.271100000000         5.182369010197916E-083
   115.510500000000         4.783089867807511E-083
   115.749900000000         3.214603798570672E-083
   115.989300000000         1.350361373969179E-084
   116.228700000000        -4.688825804130216E-083
   116.468100000000        -1.127610003526984E-082
   116.707500000000        -1.931105379519268E-082
   116.946900000000        -2.802241997311618E-082
   117.186300000000        -3.608640940213762E-082
   117.425700000000        -4.158502490365909E-082
   117.665100000000        -4.205733510405333E-082
   117.904500000000        -3.468329756688276E-082
   118.143900000000        -1.663500057023202E-082
   118.383300000000         1.438373670122256E-082
   118.622700000000         5.941370827108575E-082
   118.862100000000         1.173744791768072E-081
   119.101500000000         1.841472829589707E-081
   119.340900000000         2.517546704395258E-081
   119.580300000000         3.078432743677133E-081
   119.819700000000         3.357252282895170E-081
   120.059100000000         3.152597646285992E-081
   120.298500000000         2.248426079155356E-081
   120.537900000000         4.469936651578800E-082
   120.777300000000        -2.384654297955035E-081
   121.016700000000        -6.256394508197550E-081
   121.256100000000        -1.098979108474319E-080
   121.495500000000        -1.615451611989830E-080
   121.734900000000        -2.101905758702468E-080
   121.974300000000        -2.453205450227697E-080
   122.213700000000        -2.535313705291576E-080
   122.453100000000        -2.195247073010555E-080
   122.692500000000        -1.279515624880213E-080
   122.931900000000         3.380876072756058E-081
   123.171300000000         2.719763276470543E-080
   123.410700000000         5.820296216522400E-080
   123.650100000000         9.441528817661799E-080
   123.889500000000         1.319191325479127E-079
   124.128900000000         1.646094428218221E-079
   124.368300000000         1.842037889814069E-079
   124.607700000000         1.806513313905149E-079
   124.847100000000         1.430589549020147E-079
   125.086500000000         6.122085131031284E-080
   125.325900000000        -7.222802143480073E-080
   125.565300000000        -2.591151671996452E-079
   125.804700000000        -4.927059367095288E-079
   126.044100000000        -7.547275698392732E-079
   126.283500000000        -1.012989512348129E-078
   126.522900000000        -1.220303528086567E-078
   126.762300000000        -1.315513395094149E-078
   127.001700000000        -1.227458849812810E-078
   127.241100000000        -8.825767224191679E-079
   127.480500000000        -2.165414770566586E-079
   127.719900000000         8.101633865017998E-079
   127.959300000000         2.193581498412661E-078
   128.198700000000         3.866290445472466E-078
   128.438100000000         5.678892992973472E-078
   128.677500000000         7.386861392279125E-078
   128.916900000000         8.647485021636949E-078
   129.156300000000         9.032150810073893E-078
   129.395700000000         8.058998121657922E-078
   129.635100000000         5.249863203620919E-078
   129.874500000000         2.131261636261082E-079
   130.113900000000        -7.249550832239714E-078
   130.353300000000        -1.701954371764965E-077
   130.592700000000        -2.853361661456456E-077
   130.832100000000        -4.067186621512478E-077
   131.071500000000        -5.168715195534151E-077
   131.310900000000        -5.920679905479499E-077
   131.550300000000        -6.033937515449643E-077
   131.789700000000        -5.191684901094723E-077
   132.029100000000        -3.089383111625000E-077
   132.268500000000         5.090458584413805E-078
   132.507900000000         5.700606214290288E-077
   132.747300000000         1.236326326416781E-076
   132.986700000000         2.007551331694936E-076
   133.226100000000         2.804847057190993E-076
   133.465500000000         3.508727738524339E-076
   133.704900000000         3.960145918346953E-076
   133.944300000000         3.968474475776482E-076
   134.183700000000         3.328285440456246E-076
   134.423100000000         1.846184035132861E-076
   134.662500000000        -6.221050543640270E-077
   134.901900000000        -4.125773495208247E-076
   135.141300000000        -8.567519498515101E-076
   135.380700000000        -1.365255798621023E-075
   135.620100000000        -1.884650368846972E-075
   135.859500000000        -2.335297595248856E-075
   136.098900000000        -2.612350739137590E-075
   136.338300000000        -2.591283128037102E-075
   136.577700000000        -2.139123310973689E-075
   136.817100000000        -1.132174810091791E-075
   137.056500000000         5.196947600146006E-076
   137.295900000000         2.843133423865276E-075
   137.535300000000         5.768029849885146E-075
   137.774700000000         9.094741680331760E-075
   138.014100000000         1.246736615837044E-074
   138.253500000000         1.536014559076398E-074
   138.492900000000         1.708521574872275E-074
   138.732300000000         1.683019972868239E-074