  -1.79550000000000         0.000000000000000E+000
  -1.55610000000000         0.000000000000000E+000
  -1.31670000000000         0.000000000000000E+000
  -1.07730000000000         0.000000000000000E+000
 -0.837900000000000         0.000000000000000E+000
 -0.598500000000000         0.000000000000000E+000
 -0.359100000000000         0.000000000000000E+000
 -0.119700000000000         0.000000000000000E+000
  0.119700000000000         0.000000000000000E+000
  0.359100000000000         0.000000000000000E+000
  0.598500000000000         0.000000000000000E+000
  0.837900000000000         0.000000000000000E+000
   1.07730000000000         0.000000000000000E+000
   1.31670000000000         0.000000000000000E+000
   1.55610000000000         0.000000000000000E+000
   1.79550000000000         0.000000000000000E+000
   2.03490000000000         0.000000000000000E+000
   2.27430000000000         0.000000000000000E+000
   2.51370000000000         0.000000000000000E+000
   2.75310000000000         0.000000000000000E+000
   2.99250000000000         0.000000000000000E+000
   3.23190000000000         0.000000000000000E+000
   3.47130000000000         0.000000000000000E+000
   3.71070000000000         0.000000000000000E+000
   3.95010000000000         0.000000000000000E+000
   4.18950000000000         0.000000000000000E+000
   4.42890000000000         0.000000000000000E+000
   4.66830000000000         0.000000000000000E+000
   4.90770000000000         0.000000000000000E+000
   5.14710000000000         0.000000000000000E+000
   5.38650000000000         0.000000000000000E+000
   5.62590000000000         0.000000000000000E+000
   5.86530000000000         0.000000000000000E+000
   6.10470000000000         0.000000000000000E+000
   6.34410000000000         0.000000000000000E+000
   6.58350000000000         0.000000000000000E+000
   6.82290000000000         0.000000000000000E+000
   7.06230000000000         0.000000000000000E+000
   7.30170000000000         0.000000000000000E+000
   7.54110000000000         0.000000000000000E+000
   7.78050000000000         0.000000000000000E+000
   8.01990000000000         0.000000000000000E+000
   8.25930000000000         0.000000000000000E+000
   8.49870000000000         0.000000000000000E+000
   8.73810000000000         0.000000000000000E+000
   8.97750000000000         0.000000000000000E+000
   9.21690000000000         0.000000000000000E+000
   9.45630000000000         0.000000000000000E+000
   9.69570000000000         0.000000000000000E+000
   9.93510000000000         0.000000000000000E+000
   10.1745000000000         0.000000000000000E+000
   10.4139000000000         0.000000000000000E+000
   10.6533000000000         0.000000000000000E+000
   10.8927000000000         0.000000000000000E+000
   11.1321000000000        -4.481683323931767E-230
   11.3715000000000         4.028078247250028E-223
   11.6109000000000         7.727536060365769E-221
   11.8503000000000        -1.946495429415912E-217
   12.0897000000000        -1.625841459339857E-215
   12.3291000000000        -1.273637695417405E-213
   12.5685000000000        -8.343954570391601E-212
   12.8079000000000        -2.618027983294640E-209
   13.0473000000000         2.001230084531407E-202
   13.2867000000000        -4.381025890734826E-203
   13.5261000000000        -1.057943036837201E-198
   13.7655000000000        -6.219371298990119E-197
   14.0049000000000        -1.756567272206214E-195
   14.2443000000000        -2.472980741202453E-194
   14.4837000000000         6.327929543219566E-194
   14.7231000000000         1.217000866921993E-191
   14.9625000000000         3.337451753580028E-190
   15.2019000000000         5.681520756140827E-189
   15.4413000000000         6.570107139148306E-188
   15.6807000000000         4.069867368378075E-187
   15.9201000000000        -2.890087523172880E-186
   16.1595000000000        -1.370006954639168E-184
   16.3989000000000        -2.612007082065188E-183
   16.6383000000000        -3.717591351897209E-182
   16.8777000000000        -4.435443695579084E-181
   17.1171000000000        -4.645642965667527E-180
   17.3565000000000        -4.377370805425071E-179
   17.5959000000000        -3.767342751753200E-178
   17.8353000000000        -2.992436082517985E-177
   18.0747000000000        -2.210409015871861E-176
   18.3141000000000        -1.527131455538841E-175
   18.5535000000000        -9.912426757785330E-175
   18.7929000000000        -6.066135096988796E-174
   19.0323000000000        -3.509700556179554E-173
   19.2717000000000        -1.923840217125997E-172
   19.5111000000000        -1.000612509431796E-171
   19.7505000000000        -4.942689335862395E-171
   19.9899000000000        -2.319479861567519E-170
   20.2293000000000        -1.033612431577644E-169
   20.4687000000000        -4.367832231266611E-169
   20.7081000000000        -1.745602981665211E-168
   20.9475000000000        -6.566782198466057E-168
   21.1869000000000        -2.306575188648209E-167
   21.4263000000000        -7.455291216869772E-167
   21.6657000000000        -2.154085318819981E-166
   21.9051000000000        -5.186908170837353E-166
   22.1445000000000        -7.984315086954175E-166
   22.3839000000000         1.058829102559109E-165
   22.6233000000000         1.660512413630267E-164
   22.8627000000000         9.550800325503347E-164
   23.1021000000000         4.212928743914298E-163
   23.3415000000000         1.588768425004177E-162
   23.5809000000000         5.263397339468488E-162
   23.8203000000000         1.518897521645887E-161
   24.0597000000000         3.610605298555887E-161
   24.2991000000000         5.580845667450576E-161
   24.5385000000000        -5.453818473486822E-161
   24.7779000000000        -9.627490203140452E-160
   25.0173000000000        -5.410425580184232E-159
   25.2567000000000        -2.316298796111343E-158
   25.4961000000000        -8.523324920188157E-158
   25.7355000000000        -2.794672521892915E-157
   25.9749000000000        -8.219273877881105E-157
   26.2143000000000        -2.132895152234503E-156
   26.4537000000000        -4.598240287101326E-156
   26.6931000000000        -6.447145175308966E-156
   26.9325000000000         6.414084505543261E-156
   27.1719000000000         9.993901643784137E-155
   27.4113000000000         5.283484820256469E-154
   27.6507000000000         2.165880955593556E-153
   27.8901000000000         7.779759308613864E-153
   28.1295000000000         2.554993919735393E-152
   28.3689000000000         7.820740861064009E-152
   28.6083000000000         2.252274894769754E-151
   28.8477000000000         6.127056194360931E-151
   29.0871000000000         1.574594572136161E-150
   29.3265000000000         3.807549235739791E-150
   29.5659000000000         8.579110859499038E-150
   29.8053000000000         1.764208059217826E-149
   30.0447000000000         3.155532440796658E-149
   30.2841000000000         4.227109904439146E-149
   30.5235000000000         8.365860962240819E-150
   30.7629000000000        -2.167921316929563E-148
   31.0023000000000        -1.073790675921064E-147
   31.2417000000000        -3.753577968519378E-147
   31.4811000000000        -1.121492803160080E-146
   31.7205000000000        -3.025360725083291E-146
   31.9599000000000        -7.522176465303730E-146
   32.1993000000000        -1.734199198055778E-145
   32.4387000000000        -3.690742960754994E-145
   32.6781000000000        -7.121942329396069E-145
   32.9175000000000        -1.188397537747187E-144
   33.1569000000000        -1.469138056112267E-144
   33.3963000000000        -1.840736457564815E-145
   33.6357000000000         6.961092581946648E-144
   33.8751000000000         3.163211235516436E-143
   34.1145000000000         1.025504386778688E-142
   34.3539000000000         2.848454472904364E-142
   34.5933000000000         7.148424342490142E-142
   34.8327000000000         1.653269730061423E-141
   35.0721000000000         3.541990058366155E-141
   35.3115000000000         6.988342250839306E-141
   35.5509000000000         1.243238005478859E-140
   35.7903000000000         1.883928254541557E-140
   36.0297000000000         1.983819018039402E-140
   36.2691000000000        -6.160745559369017E-141
   36.5085000000000        -1.188922039630453E-139
   36.7479000000000        -4.652319382477381E-139
   36.9873000000000        -1.375944210253330E-138
   37.2267000000000        -3.540674324858320E-138
   37.4661000000000        -8.290328084027925E-138
   37.7055000000000        -1.797505030871306E-137
   37.9449000000000        -3.627494485608512E-137
   38.1843000000000        -6.786898593700851E-137
   38.4237000000000        -1.159256656572918E-136
   38.6631000000000        -1.738672828766628E-136
   38.9025000000000        -2.040527195271673E-136
   39.1419000000000        -8.956374960452458E-137
   39.3813000000000         4.641727086188838E-136
   39.6207000000000         2.111668805865560E-135
   39.8601000000000         6.170332450861869E-135
   40.0995000000000         1.505287019847159E-134
   40.3389000000000         3.272456094616696E-134
   40.5783000000000         6.477174988326905E-134
   40.8177000000000         1.169627182014747E-133
   41.0571000000000         1.897592418245847E-133
   41.2965000000000         2.636638125206902E-133
   41.5359000000000         2.661632747096249E-133
   41.7753000000000         5.458110712942612E-135
   42.0147000000000        -9.490900329021442E-133
   42.2541000000000        -3.458970169718709E-132
   42.4935000000000        -9.078788671383406E-132
   42.7329000000000        -2.031462009163953E-131
   42.9723000000000        -4.062587684497951E-131
   43.2117000000000        -7.354147670060065E-131
   43.4511000000000        -1.195565053695039E-130
   43.6905000000000        -1.683030859029891E-130
   43.9299000000000        -1.817982724113073E-130
   44.1693000000000        -6.265045317611186E-131
   44.4087000000000         3.999005344381018E-130
   44.6481000000000         1.610374413138961E-129
   44.8875000000000         4.265129226982719E-129
   45.1269000000000         9.424523650135196E-129
   45.3663000000000         1.843955942941947E-128
   45.6057000000000         3.246878980798777E-128
   45.8451000000000         5.107714459094903E-128
   46.0845000000000         6.904791929106712E-128
   46.3239000000000         7.010337025216172E-128
   46.5633000000000         1.590540654382994E-128
   46.8027000000000        -1.710121936509498E-127
   47.0421000000000        -6.298000127735359E-127
   47.2815000000000        -1.583253450179778E-126
   47.5209000000000        -3.340879642426677E-126
   47.7603000000000        -6.241443492316284E-126
   47.9997000000000        -1.045399497123261E-125
   48.2391000000000        -1.549815846832321E-125
   48.4785000000000        -1.927294567875984E-125
   48.7179000000000        -1.632477930498208E-125
   48.9573000000000         4.892072170418260E-126
   49.1967000000000         6.576392479027914E-125
   49.4361000000000         2.015518454229232E-124
   49.6755000000000         4.633795453143595E-124
   49.9149000000000         9.127961146375640E-124
   50.1543000000000         1.598456149382793E-123
   50.3937000000000         2.497050515152868E-123
   50.6331000000000         3.391625053310763E-123
   50.8725000000000         3.653036126758462E-123
   51.1119000000000         1.892462543402122E-123
   51.3513000000000        -4.519385801372187E-123
   51.5907000000000        -1.998960026310836E-122
   51.8301000000000        -5.104314810673825E-122
   52.0695000000000        -1.058835865096600E-121
   52.3089000000000        -1.920578589298877E-121
   52.5483000000000        -3.103497162739688E-121
   52.7877000000000        -4.421362864898285E-121
   53.0271000000000        -5.267590030002125E-121
   53.2665000000000        -4.257710113201525E-121
   53.5059000000000         1.262632216868301E-121
   53.7453000000000         1.576914800529274E-120
   53.9847000000000         4.593004169724748E-120
   54.2241000000000         1.002614252810489E-119
   54.4635000000000         1.870669128702119E-119
   54.7029000000000         3.090280944017634E-119
   54.9423000000000         4.521134350917599E-119
   55.1817000000000         5.660166749391297E-119
   55.4211000000000         5.337859960558698E-119
   55.6605000000000         1.308599708444863E-119
   55.8999000000000        -1.019732718061427E-118
   56.1393000000000        -3.476170418019223E-118
   56.3787000000000        -7.948354469428283E-118
   56.6181000000000        -1.513420081956823E-117
   56.8575000000000        -2.530247302856847E-117
   57.0969000000000        -3.745951650621294E-117
   57.3363000000000        -4.791792333191961E-117
   57.5757000000000        -4.813760763127749E-117
   57.8151000000000        -2.191433250854861E-117
   58.0545000000000         5.753487950098897E-117
   58.2939000000000         2.291493114217691E-116
   58.5333000000000         5.413797128241919E-116
   58.7727000000000         1.040393034858571E-115
   59.0121000000000         1.741774199756056E-115
   59.2515000000000         2.576301789192727E-115
   59.4909000000000         3.300277632175049E-115
   59.7303000000000         3.365689276210132E-115
   59.9697000000000         1.759735403864978E-115
   60.2091000000000        -3.146915320940300E-115
   60.4485000000000        -1.365156451348807E-114
   60.6879000000000        -3.249972120459916E-114
   60.9273000000000        -6.211921952349614E-114
   61.1667000000000        -1.029231618239263E-113
   61.4061000000000        -1.502279327188332E-113
   61.6455000000000        -1.893978287690816E-113
   61.8849000000000        -1.891798868901549E-113
   62.1243000000000        -9.404986540603884E-114
   62.3637000000000         1.819820511581123E-113
   62.6031000000000         7.550170782119764E-113
   62.8425000000000         1.755554314719521E-112
   63.0819000000000         3.284172536189292E-112
   63.3213000000000         5.321428709632452E-112
   63.5607000000000         7.573949844725882E-112
   63.8001000000000         9.245460424343009E-112
   64.0395000000000         8.742683652558756E-112
   64.2789000000000         3.370532763542942E-112
   64.5183000000000        -1.085193013872867E-111
   64.7577000000000        -3.900773413107971E-111
   64.9971000000000        -8.633400234697767E-111
   65.2365000000000        -1.559566151734584E-110
   65.4759000000000        -2.446546001662931E-110
   65.7153000000000        -3.360777820360484E-110
   65.9547000000000        -3.912834999259480E-110
   66.1941000000000        -3.375266284490205E-110
   66.4335000000000        -5.823217165140617E-111
   66.6729000000000         6.097454030989376E-110
   66.9123000000000         1.861084955288434E-109
   67.1517000000000         3.873570326077525E-109
   67.3911000000000         6.706198484601571E-109
   67.6305000000000         1.012277759468899E-108
   67.8699000000000         1.332720320414504E-108
   68.1093000000000         1.461888406027615E-108
   68.3487000000000         1.102261259963168E-108
   68.5881000000000        -1.975060997662200E-109
   68.8275000000000        -3.033666289264502E-108
   69.0669000000000        -8.064079301646206E-108
   69.3063000000000        -1.579652069312775E-107
   69.5457000000000        -2.618518377632973E-107
   69.7851000000000        -3.797861649968588E-107
   70.0245000000000        -4.780118066918794E-107
   70.2639000000000        -4.904249460014822E-107
   70.5033000000000        -3.079878641533082E-107
   70.7427000000000         2.262488243512509E-107
   70.9821000000000         1.307821576268930E-106
   71.2215000000000         3.134376758532723E-106
   71.4609000000000         5.825570805293280E-106
   71.7003000000000         9.281902286700353E-106
   71.9397000000000         1.297011223663734E-105
   72.1791000000000         1.563871826680903E-105
   72.4185000000000         1.499979003924645E-105
   72.6579000000000         7.467727298058548E-106
   72.8973000000000        -1.187470377929063E-105
   73.1367000000000        -4.881266623968611E-105
   73.3761000000000        -1.086636670886425E-104
   73.6155000000000        -1.936255416430351E-104
   73.8549000000000        -2.983910537881556E-104
   74.0943000000000        -4.038338437899290E-104
   74.3337000000000        -4.691107411169354E-104
   74.5731000000000        -4.235193354798621E-104
   74.8125000000000        -1.610017551872111E-104
   75.0519000000000         4.577023683770934E-104
   75.2913000000000         1.587789061844726E-103
   75.5307000000000         3.358298746125450E-103
   75.7701000000000         5.794538801652647E-103
   76.0095000000000         8.696422791956948E-103
   76.2489000000000         1.147159479896171E-102
   76.4883000000000         1.293792063533596E-102
   76.7277000000000         1.113661571372656E-102
   76.9671000000000         3.236421411401667E-103
   77.2065000000000        -1.434074338630080E-102
   77.4459000000000        -4.538850658548126E-102
   77.6853000000000        -9.275334110538854E-102
   77.9247000000000        -1.563123781193497E-101
   78.1641000000000        -2.299413964762283E-101
   78.4035000000000        -2.975328283286182E-101
   78.6429000000000        -3.285237131449900E-101
   78.8823000000000        -2.740304802445730E-101
   79.1217000000000        -6.557078594873032E-102
   79.3611000000000         3.805853568998351E-101
   79.6005000000000         1.149348667729615E-100
   79.8399000000000         2.298296177609847E-100
   80.0793000000000         3.810343331208119E-100
   80.3187000000000         5.525466259205449E-100
   80.5581000000000         7.054462173533123E-100
   80.7975000000000         7.686780475933288E-100
   81.0369000000000         6.318088829982703E-100
   81.2763000000000         1.441201176751707E-100
   81.5157000000000        -8.735668586516133E-100
   81.7551000000000        -2.596124154479332E-099
   81.9945000000000        -5.131423660789544E-099
   82.2339000000000        -8.420212115574442E-099
   82.4733000000000        -1.209640256983025E-098
   82.7127000000000        -1.531666870634089E-098
   82.9521000000000        -1.658657293520106E-098
   83.1915000000000        -1.363681914125078E-098
   83.4309000000000        -3.436345285612233E-099
   83.6703000000000         1.753571250870695E-098
   83.9097000000000         5.260904061348579E-098
   84.1491000000000         1.036766115174912E-097
   84.3885000000000         1.692684639545417E-097
   84.6279000000000         2.419403886115069E-097
   84.8673000000000         3.051860377128806E-097
   85.1067000000000         3.304175928992354E-097
   85.3461000000000         2.750237844745353E-097
   85.5855000000000         8.307133225794204E-098
   85.8249000000000        -3.092248461818411E-097
   86.0643000000000        -9.607475866282701E-097
   86.3037000000000        -1.902971406183167E-096
   86.5431000000000        -3.106081807851779E-096
   86.7825000000000        -4.434168655619804E-096
   87.0219000000000        -5.593656100374824E-096
   87.2613000000000        -6.084759197828190E-096
   87.5007000000000        -5.173220787848070E-096
   87.7401000000000        -1.908185224898052E-096
   87.9795000000000         4.779811695566604E-096
   88.2189000000000         1.586194000052897E-095
   88.4583000000000         3.183913649815007E-095
   88.6977000000000         5.219459156329339E-095
   88.9371000000000         7.468469393668262E-095
   89.1765000000000         9.454148717927445E-095
   89.4159000000000         1.037459355569548E-094
   89.6553000000000         9.064185404492384E-095
   89.8947000000000         4.028291045210553E-095
   90.1341000000000        -6.398603892337486E-095
   90.3735000000000        -2.371592128502172E-094
   90.6129000000000        -4.869210184604967E-094
   90.8523000000000        -8.054813652922911E-094
   91.0917000000000        -1.159182889844111E-093
   91.3311000000000        -1.477027950016023E-093
   91.5705000000000        -1.640491373153141E-093
   91.8099000000000        -1.478499905902280E-093
   92.0493000000000        -7.730792451288005E-094
   92.2887000000000         7.174754890394296E-094
   92.5281000000000         3.210541817063077E-093
   92.7675000000000         6.819993931337833E-093
   93.0069000000000         1.144340374936655E-092
   93.2463000000000         1.662039496568087E-092
   93.4857000000000         2.137848358152050E-092
   93.7251000000000         2.409867291008257E-092
   93.9645000000000         2.245236930938277E-092
   94.2039000000000         1.348116266895977E-092
   94.4433000000000        -6.093200441214781E-093
   94.6827000000000        -3.923710672799857E-092
   94.9221000000000        -8.757717902825376E-092
   95.1615000000000        -1.499513979071636E-091
   95.4009000000000        -2.206075378304000E-091
   95.6403000000000        -2.872610712024903E-091
   95.8797000000000        -3.294186077702628E-091
   96.1191000000000        -3.176025218728976E-091
   96.3585000000000        -2.143435352353185E-091
   96.5979000000000         2.201848175887587E-092
   96.8373000000000         4.296559883911208E-091
   97.0767000000000         1.030854263533855E-090
   97.3161000000000         1.814653827038698E-090
   97.5555000000000         2.715398908708970E-090
   97.7949000000000         3.589721755455689E-090
   98.0343000000000         4.196696896342196E-090
   98.2737000000000         4.188461416441217E-090
   98.5131000000000         3.121118588074685E-090
   98.7525000000000         4.975578068284371E-091
   98.9919000000000        -4.146014594473470E-090
   99.2313000000000        -1.110071924825764E-089
   99.4707000000000        -2.029052382458381E-089
   99.7101000000000        -3.103244168760722E-089
   99.9495000000000        -4.177921852172829E-089
   100.188900000000        -4.989581016404891E-089
   100.428300000000        -5.154787884294562E-089
   100.667700000000        -4.180660122126893E-089
   100.907100000000        -1.509233039537118E-089
   101.146500000000         3.391962523806043E-089
   101.385900000000         1.088365722359535E-088
   101.625300000000         2.095056961990098E-088
   101.864700000000         3.294913108035280E-088
   102.104100000000         4.533547288927919E-088
   102.343500000000         5.542549496025180E-088
   102.582900000000         5.926558025005603E-088
   102.822300000000         5.171816949977981E-088
   103.061700000000         2.688416143041592E-088
   103.301100000000        -2.101538515974098E-088
   103.540500000000        -9.620378900193108E-088
   103.779900000000        -1.993334407158025E-087
   104.019300000000        -3.249832337933549E-087
   104.258700000000        -4.589347644083369E-087
   104.498100000000        -5.757161647688788E-087
   104.737500000000        -6.371543395328300E-087
   104.976900000000        -5.929175004462200E-087
   105.216300000000        -3.841978311728783E-087
   105.455700000000         4.830578752823322E-088
   105.695100000000         7.511940647051966E-087
   105.934500000000         1.739664748091573E-086
   106.173900000000         2.974067559262674E-086
   106.413300000000         4.334036459316022E-086
   106.652700000000         5.594512903178708E-086
   106.892100000000         6.410229336610027E-086
   107.131500000000         6.317393136014170E-086
   107.370900000000         4.762859251331259E-086
   107.610300000000         1.171279710459729E-086
   107.849700000000        -4.941293029151739E-086
   108.089100000000        -1.380398515489126E-085
   108.328500000000        -2.518345288592115E-085
   108.567900000000        -3.815072141922769E-085
   108.807300000000        -5.085813400703942E-085
   109.046700000000        -6.038127162819875E-085
   109.286100000000        -6.269945205305357E-085
   109.525500000000        -5.290229990876954E-085
   109.764900000000        -2.571300791913785E-085
   110.004300000000         2.359572072263254E-085
   110.243700000000         9.785670019644608E-085
   110.483100000000         1.962686423606881E-084
   110.722500000000         3.124010121891672E-084
   110.961900000000         4.322185503759233E-084
   111.201300000000         5.325571372417054E-084
   111.440700000000         5.806380405420038E-084
   111.680100000000         5.353282469964675E-084
   111.919500000000         3.508951301448020E-084
   112.158900000000        -1.609010695824300E-085
   112.398300000000        -5.963306505047321E-084
   112.637700000000        -1.394018906662621E-083
   112.877100000000        -2.370632793727508E-083
   113.116500000000        -3.428298427479734E-083
   113.355900000000        -4.395918652319457E-083
   113.595300000000        -5.022501725536857E-083
   113.834700000000        -4.983135823302936E-083
   114.074100000000        -3.903510312332524E-083
   114.313500000000        -1.408382342065052E-083
   114.552900000000         2.802498583270032E-083
   114.792300000000         8.851140941393997E-083
   115.031700000000         1.655649718097410E-082
   115.271100000000         2.530139696782332E-082
   115.510500000000         3.391353172770518E-082
   115.749900000000         4.059219526298513E-082
   115.989300000000         4.292062174080194E-082
   116.228700000000         3.800831778358805E-082
   116.468100000000         2.280592021938376E-082
   116.707500000000        -5.376246100503636E-083
   116.946900000000        -4.813839795074234E-082
   117.186300000000        -1.050806228611350E-081
   117.425700000000        -1.727936379896330E-081
   117.665100000000        -2.438967614557522E-081
   117.904500000000        -3.063373007393785E-081
   118.143900000000        -3.432281258711384E-081
   118.383300000000        -3.335415671350575E-081
   118.622700000000        -2.539787912386259E-081
   118.862100000000        -8.227322926943673E-082
   119.101500000000         1.979557824550561E-081
   119.340900000000         5.909220235516192E-081
   119.580300000000         1.081426305484929E-080
   119.819700000000         1.627533428522785E-080
   120.059100000000         2.154535342867235E-080
   120.298500000000         2.552021856233335E-080
   120.537900000000         2.676225392110209E-080
   120.777300000000         2.359915188163548E-080
   121.016700000000         1.431848494154272E-080
   121.256100000000        -2.529977386629152E-081
   121.495500000000        -2.772603199160317E-080
   121.734900000000        -6.088766041688290E-080
   121.974300000000        -9.994639420452548E-080
   122.213700000000        -1.406706875126415E-079
   122.453100000000        -1.763504229865383E-079
   122.692500000000        -1.977823450857414E-079
   122.931900000000        -1.937101584749010E-079
   123.171300000000        -1.518653945570848E-079
   123.410700000000        -6.071675391096453E-080
   123.650100000000         8.804149972102538E-080
   123.889500000000         2.963521051608857E-079
   124.128900000000         5.562614093196952E-079
   124.368300000000         8.464394303876644E-079
   124.607700000000         1.129412696368142E-078
   124.847100000000         1.350361028239969E-078
   125.086500000000         1.438459814374236E-078
   125.325900000000         1.311765250969667E-078
   125.565300000000         8.864840293446448E-079
   125.804700000000         9.108728038658158E-080
   126.044100000000        -1.114917427439625E-078
   126.283500000000        -2.718662235095514E-078
   126.522900000000        -4.630308859601606E-078
   126.762300000000        -6.661723318529831E-078
   127.001700000000        -8.512296038216018E-078
   127.241100000000        -9.767806327881814E-078
   127.480500000000        -9.918718598223906E-078
   127.719900000000        -8.403895448238796E-078
   127.959300000000        -4.684078268564216E-078
   128.198700000000         1.653664357326866E-078
   128.438100000000         1.076413692782527E-077
   128.677500000000         2.239489692766228E-077
   128.916900000000         3.573748300638754E-077
   129.156300000000         4.930476768534346E-077
   129.395700000000         6.086761556686987E-077
   129.635100000000         6.748914987176490E-077
   129.874500000000         6.569586843120980E-077
   130.113900000000         5.181956177940485E-077
   130.353300000000         2.253056472329637E-077
   130.592700000000        -2.444007143266896E-077
   130.832100000000        -8.942478277112849E-077
   131.071500000000        -1.698671418779872E-076
   131.310900000000        -2.594176953250303E-076
   131.550300000000        -3.472510339860744E-076
   131.789700000000        -4.178183760964526E-076
   132.029100000000        -4.512742044128326E-076
   132.268500000000        -4.248113113022129E-076
   132.507900000000        -3.150941031271002E-076
   132.747300000000        -1.018846805265950E-076
   132.986700000000         2.271968586099066E-076
   133.226100000000         6.710478810512591E-076
   133.465500000000         1.209125786430640E-075
   133.704900000000         1.795980206870845E-075
   133.944300000000         2.357384798134488E-075
   134.183700000000         2.789414670292039E-075
   134.423100000000         2.961940045763561E-075
   134.662500000000         2.727950892303065E-075
   134.901900000000         1.939820597858797E-075
   135.141300000000         4.729974064758234E-076
   135.380700000000        -1.743359515855339E-075
   135.620100000000        -4.690608948619373E-075
   135.859500000000        -8.223159488686342E-075
   136.098900000000        -1.203455017484432E-074
   136.338300000000        -1.563410718068752E-074
   136.577700000000        -1.834266707782901E-074
   136.817100000000        -1.931662939171877E-074
   137.056500000000        -1.760925154496716E-074
   137.295900000000        -1.227617951572244E-074
   137.535300000000        -2.528313972808916E-075
   137.774700000000         1.207103143387062E-074
   138.014100000000         3.137616188556684E-074
   138.253500000000         5.441814513792939E-074
   138.492900000000         7.918668215071579E-074
   138.732300000000         1.024799771838187E-073