  -1.79550000000000         0.000000000000000E+000
  -1.55610000000000         0.000000000000000E+000
  -1.31670000000000         0.000000000000000E+000
  -1.07730000000000         0.000000000000000E+000
 -0.837900000000000         0.000000000000000E+000
 -0.598500000000000         0.000000000000000E+000
 -0.359100000000000         0.000000000000000E+000
 -0.119700000000000         0.000000000000000E+000
  0.119700000000000         0.000000000000000E+000
  0.359100000000000         0.000000000000000E+000
  0.598500000000000         0.000000000000000E+000
  0.837900000000000         0.000000000000000E+000
   1.07730000000000         0.000000000000000E+000
   1.31670000000000         0.000000000000000E+000
   1.55610000000000         0.000000000000000E+000
   1.79550000000000         0.000000000000000E+000
   2.03490000000000         0.000000000000000E+000
   2.27430000000000         0.000000000000000E+000
   2.51370000000000         0.000000000000000E+000
   2.75310000000000         0.000000000000000E+000
   2.99250000000000         0.000000000000000E+000
   3.23190000000000         0.000000000000000E+000
   3.47130000000000         0.000000000000000E+000
   3.71070000000000         0.000000000000000E+000
   3.95010000000000         0.000000000000000E+000
   4.18950000000000         0.000000000000000E+000
   4.42890000000000         0.000000000000000E+000
   4.66830000000000         0.000000000000000E+000
   4.90770000000000         0.000000000000000E+000
   5.14710000000000         0.000000000000000E+000
   5.38650000000000         0.000000000000000E+000
   5.62590000000000         0.000000000000000E+000
   5.86530000000000         0.000000000000000E+000
   6.10470000000000         0.000000000000000E+000
   6.34410000000000         0.000000000000000E+000
   6.58350000000000         0.000000000000000E+000
   6.82290000000000         0.000000000000000E+000
   7.06230000000000         0.000000000000000E+000
   7.30170000000000         0.000000000000000E+000
   7.54110000000000         0.000000000000000E+000
   7.78050000000000         0.000000000000000E+000
   8.01990000000000         0.000000000000000E+000
   8.25930000000000         0.000000000000000E+000
   8.49870000000000         0.000000000000000E+000
   8.73810000000000         0.000000000000000E+000
   8.97750000000000         0.000000000000000E+000
   9.21690000000000         0.000000000000000E+000
   9.45630000000000         0.000000000000000E+000
   9.69570000000000         0.000000000000000E+000
   9.93510000000000         0.000000000000000E+000
   10.1745000000000         0.000000000000000E+000
   10.4139000000000         0.000000000000000E+000
   10.6533000000000         0.000000000000000E+000
   10.8927000000000         0.000000000000000E+000
   11.1321000000000        -5.364574938746325E-231
   11.3715000000000         4.821608589043295E-224
   11.6109000000000         9.346292846767844E-222
   11.8503000000000        -2.328095413659744E-218
   12.0897000000000        -1.992712731256515E-216
   12.3291000000000        -1.563932770995497E-214
   12.5685000000000        -1.029656132999976E-212
   12.8079000000000        -3.154063770954441E-210
   13.0473000000000         2.395471782399767E-203
   13.2867000000000         4.266535394462903E-203
   13.5261000000000        -1.265983602434595E-199
   13.7655000000000        -7.697821586644048E-198
   14.0049000000000        -2.254035115146191E-196
   14.2443000000000        -3.395822561217040E-195
   14.4837000000000         1.218551154797449E-195
   14.7231000000000         1.465543120523657E-192
   14.9625000000000         4.287159064858224E-191
   15.2019000000000         7.628989226489920E-190
   15.4413000000000         9.307395202719572E-189
   15.6807000000000         6.588812584776565E-188
   15.9201000000000        -2.313390382765429E-187
   16.1595000000000        -1.697626576183117E-185
   16.3989000000000        -3.460324967320650E-184
   16.6383000000000        -5.108646592676227E-183
   16.8777000000000        -6.265086447697882E-182
   17.1171000000000        -6.718265885034635E-181
   17.3565000000000        -6.467622905587675E-180
   17.5959000000000        -5.680242849816729E-179
   17.8353000000000        -4.600921203140559E-178
   18.0747000000000        -3.464146311390076E-177
   18.3141000000000        -2.438976942618863E-176
   18.5535000000000        -1.613212812396790E-175
   18.7929000000000        -1.006089400639929E-174
   19.0323000000000        -5.933317337496413E-174
   19.2717000000000        -3.316279630224153E-173
   19.5111000000000        -1.759644810802258E-172
   19.7505000000000        -8.873777119619406E-172
   19.9899000000000        -4.255435019760989E-171
   20.2293000000000        -1.940419322004170E-170
   20.4687000000000        -8.405948583428746E-170
   20.7081000000000        -3.452911145478746E-169
   20.9475000000000        -1.340283620609587E-168
   21.1869000000000        -4.887297950577879E-168
   21.4263000000000        -1.657225203798290E-167
   21.6657000000000        -5.128063689085117E-167
   21.9051000000000        -1.391523289620496E-166
   22.1445000000000        -2.968118713578147E-166
   22.3839000000000        -2.656422793723335E-166
   22.6233000000000         1.848732923319425E-165
   22.8627000000000         1.526867427206240E-164
   23.1021000000000         7.712973932634402E-164
   23.3415000000000         3.177340768639984E-163
   23.5809000000000         1.137938318871376E-162
   23.8203000000000         3.586087313815881E-162
   24.0597000000000         9.726102189597404E-162
   24.2991000000000         2.072826899590714E-161
   24.5385000000000         2.088032054708178E-161
   24.7779000000000        -1.008889578972731E-160
   25.0173000000000        -8.637579575769164E-160
   25.2567000000000        -4.283995558470247E-159
   25.4961000000000        -1.725902514688074E-158
   25.7355000000000        -6.091367516340419E-158
   25.9749000000000        -1.927506135686992E-157
   26.2143000000000        -5.464428716094066E-157
   26.4537000000000        -1.352159783697906E-156
   26.6931000000000        -2.674292423548417E-156
   26.9325000000000        -2.678249785719388E-156
   27.1719000000000         1.005221639720380E-155
   27.4113000000000         8.525822996328335E-155
   27.6507000000000         4.077574936463019E-154
   27.8901000000000         1.598250633271930E-153
   28.1295000000000         5.587815544436278E-153
   28.3689000000000         1.800757007705315E-152
   28.6083000000000         5.432872737814071E-152
   28.8477000000000         1.546293205150349E-151
   29.0871000000000         4.164491534462340E-151
   29.3265000000000         1.060691767248985E-150
   29.5659000000000         2.543374980649072E-150
   29.8053000000000         5.682051597414848E-150
   30.0447000000000         1.157098097593220E-149
   30.2841000000000         2.040800386317950E-149
   30.5235000000000         2.646924797597346E-149
   30.7629000000000         1.520623369506792E-150
   31.0023000000000        -1.529621387018913E-148
   31.2417000000000        -7.307981654414132E-148
   31.4811000000000        -2.522528333655797E-147
   31.7205000000000        -7.486312006963113E-147
   31.9599000000000        -2.011171402385637E-146
   32.1993000000000        -4.987412365355262E-146
   32.4387000000000        -1.148106812945175E-145
   32.6781000000000        -2.442385242176258E-145
   32.9175000000000        -4.717393591688349E-145
   33.1569000000000        -7.898463697538116E-145
   33.3963000000000        -9.877358104675008E-145
   33.6357000000000        -1.765266438055391E-145
   33.8751000000000         4.443079987166650E-144
   34.1145000000000         2.050473134582072E-143
   34.3539000000000         6.687601889622687E-143
   34.5933000000000         1.865386583164991E-142
   34.8327000000000         4.700016843844585E-142
   35.0721000000000         1.091874281059240E-141
   35.3115000000000         2.352355058471133E-141
   35.5509000000000         4.677015518454792E-141
   35.7903000000000         8.420233531699231E-141
   36.0297000000000         1.304992701697863E-140
   36.2691000000000         1.468711713811533E-140
   36.5085000000000        -2.817209197176597E-142
   36.7479000000000        -7.020138074234844E-140
   36.9873000000000        -2.905901657179263E-139
   37.2267000000000        -8.791094043707909E-139
   37.4661000000000        -2.295280392714474E-138
   37.7055000000000        -5.439246186325570E-138
   37.9449000000000        -1.193297060755191E-137
   38.1843000000000        -2.439899912348522E-137
   38.4237000000000        -4.639921891932298E-137
   38.6631000000000        -8.108743485883734E-137
   38.9025000000000        -1.263244591465758E-136
   39.1419000000000        -1.614703505016393E-136
   39.3813000000000        -1.166296581076205E-136
   39.6207000000000         1.916985711761673E-136
   39.8601000000000         1.183054121606440E-135
   40.0995000000000         3.723471478731656E-135
   40.3389000000000         9.442429986744892E-135
   40.5783000000000         2.111273839302838E-134
   40.8177000000000         4.286635422277221E-134
   41.0571000000000         7.958097283789152E-134
   41.2965000000000         1.338557124430209E-133
   41.5359000000000         1.972760147844896E-133
   41.7753000000000         2.297890946195710E-133
   42.0147000000000         1.168363535335234E-133
   42.2541000000000        -4.108084527201926E-133
   42.4935000000000        -1.911578186000116E-132
   42.7329000000000        -5.429969214933961E-132
   42.9723000000000        -1.272454669824726E-131
   43.2117000000000        -2.639037891765320E-131
   43.4511000000000        -4.950420737144471E-131
   43.6905000000000        -8.396100044676211E-131
   43.9299000000000        -1.258681330369834E-130
   44.1693000000000        -1.551286454897975E-130
   44.4087000000000        -1.147598107627373E-130
   44.6481000000000         1.258701004622372E-130
   44.8875000000000         8.291678861848025E-130
   45.1269000000000         2.467819335575817E-129
   45.3663000000000         5.803150080198510E-129
   45.6057000000000         1.189687948391616E-128
   45.8451000000000         2.189732783146889E-128
   46.0845000000000         3.627629797814623E-128
   46.3239000000000         5.293270733647071E-128
   46.5633000000000         6.322795791895091E-128
   46.8027000000000         4.466167550222867E-128
   47.0421000000000        -5.119554560678226E-128
   47.2815000000000        -3.160980451222940E-127
   47.5209000000000        -9.055167763072865E-127
   47.7603000000000        -2.052520855536019E-126
   47.9997000000000        -4.050964839622821E-126
   48.2391000000000        -7.157437606337652E-126
   48.4785000000000        -1.131953877274349E-125
   48.7179000000000        -1.558058645329740E-125
   48.9573000000000        -1.694908149730469E-125
   49.1967000000000        -8.491558661109215E-126
   49.4361000000000         2.350613903341111E-125
   49.6755000000000         1.030984265046638E-124
   49.9149000000000         2.678266530009091E-124
   50.1543000000000         5.684235490041459E-124
   50.3937000000000         1.058655696749064E-123
   50.6331000000000         1.763530162294161E-123
   50.8725000000000         2.606776105548447E-123
   51.1119000000000         3.270572296366670E-123
   51.3513000000000         2.956129582387652E-123
   51.5907000000000         2.240395046933159E-125
   51.8301000000000        -8.480216029401308E-123
   52.0695000000000        -2.726434616298418E-122
   52.3089000000000        -6.292793718209805E-122
   52.5483000000000        -1.230661239339996E-121
   52.7877000000000        -2.131386984648262E-121
   53.0271000000000        -3.291154646167842E-121
   53.2665000000000        -4.431333073309318E-121
   53.5059000000000        -4.789843897500406E-121
   53.7453000000000        -2.751139804907728E-121
   53.9847000000000         4.634253202486339E-121
   54.2241000000000         2.213337179978842E-120
   54.4635000000000         5.652657387649432E-120
   54.7029000000000         1.159091462469498E-119
   54.9423000000000         2.070177873273245E-119
   55.1817000000000         3.288879614980220E-119
   55.4211000000000         4.605343412161234E-119
   55.6605000000000         5.400924634540961E-119
   55.8999000000000         4.336943956122283E-119
   56.1393000000000        -1.044652097766256E-119
   56.3787000000000        -1.471980838804093E-118
   56.6181000000000        -4.234962706896975E-118
   56.8575000000000        -9.075232566518938E-118
   57.0969000000000        -1.658784271383227E-117
   57.3363000000000        -2.680752226245674E-117
   57.5757000000000        -3.830536931875143E-117
   57.8151000000000        -4.669058655348862E-117
   58.0545000000000        -4.242680707849351E-117
   58.2939000000000        -8.110709425039364E-118
   58.5333000000000         8.412161477720221E-117
   58.7727000000000         2.734598126748289E-116
   59.0121000000000         6.064852306581998E-116
   59.2515000000000         1.123358926535369E-115
   59.4909000000000         1.826785483273092E-115
   59.7303000000000         2.624701722206798E-115
   59.9697000000000         3.238215056411789E-115
   60.2091000000000         3.072169620337872E-115
   60.4485000000000         1.061391584156796E-115
   60.6879000000000        -4.462917316298245E-115
   60.9273000000000        -1.578880452145125E-114
   61.1667000000000        -3.554437756873772E-114
   61.4061000000000        -6.584656358550600E-114
   61.6455000000000        -1.064997672356094E-113
   61.8849000000000        -1.518155198000200E-113
   62.1243000000000        -1.857181211498744E-113
   62.3637000000000        -1.751926385153512E-113
   62.6031000000000        -6.303384272975161E-114
   62.8425000000000         2.374815530041488E-113
   63.0819000000000         8.407368570579339E-113
   63.3213000000000         1.870827326182796E-112
   63.5607000000000         3.414404139139489E-112
   63.8001000000000         5.427687548347035E-112
   64.0395000000000         7.580868394352179E-112
   64.2789000000000         9.030820399359551E-112
   64.5183000000000         8.135297133549819E-112
   64.7577000000000         2.167095320453756E-112
   64.9971000000000        -1.283631053596971E-111
   65.2365000000000        -4.183849745316592E-111
   65.4759000000000        -8.979165992933417E-111
   65.7153000000000        -1.593053260789544E-110
   65.9547000000000        -2.463704715298054E-110
   66.1941000000000        -3.336090438962891E-110
   66.4335000000000        -3.809813722683102E-110
   66.6729000000000        -3.149652384640407E-110
   66.9123000000000        -1.920684456507227E-111
   67.1517000000000         6.672313926144328E-110
   67.3911000000000         1.933629719252721E-109
   67.6305000000000         3.948058155943801E-109
   67.8699000000000         6.755020857564233E-109
   68.1093000000000         1.010016750311545E-108
   68.3487000000000         1.316945465330642E-108
   68.5881000000000         1.425244658006217E-108
   68.8275000000000         1.038473323039239E-108
   69.0669000000000        -2.899268241927728E-109
   69.3063000000000        -3.146040643567215E-108
   69.5457000000000        -8.171250668561276E-108
   69.7851000000000        -1.585165756160034E-107
   70.0245000000000        -2.611949928271455E-107
   70.2639000000000        -3.771168721245408E-107
   70.5033000000000        -4.726868855000692E-107
   70.7427000000000        -4.824710485643756E-107
   70.9821000000000        -2.988428216101397E-107
   71.2215000000000         2.328883190656180E-107
   71.4609000000000         1.305394042455591E-106
   71.7003000000000         3.113758571567229E-106
   71.9397000000000         5.777324710010751E-106
   72.1791000000000         9.201801721273283E-106
   72.4185000000000         1.286923116550812E-105
   72.6579000000000         1.555859299078353E-105
   72.8973000000000         1.503107790598005E-105
   73.1367000000000         7.766799714708533E-106
   73.3761000000000        -1.108311738469240E-105
   73.6155000000000        -4.726713566987420E-105
   73.8549000000000        -1.061615221429877E-104
   74.0943000000000        -1.902178423830845E-104
   74.3337000000000        -2.947093091964362E-104
   74.5731000000000        -4.015571293650728E-104
   74.8125000000000        -4.715243039179215E-104
   75.0519000000000        -4.360092405190926E-104
   75.2913000000000        -1.911639163215408E-104
   75.5307000000000         4.008827942924892E-104
   75.7701000000000         1.496477448761527E-103
   76.0095000000000         3.231045551516595E-103
   76.2489000000000         5.645157257149559E-103
   76.4883000000000         8.566976254634989E-103
   76.7277000000000         1.144869825561777E-102
   76.9671000000000         1.316915079949562E-102
   77.2065000000000         1.183996345910020E-102
   77.4459000000000         4.690372237477887E-103
   77.6853000000000        -1.184520693111923E-102
   77.9247000000000        -4.165837352232038E-102
   78.1641000000000        -8.789295034141109E-102
   78.4035000000000        -1.510316150505512E-101
   78.6429000000000        -2.259705830649421E-101
   78.8823000000000        -2.980963200136728E-101
   79.1217000000000        -3.387465915770113E-101
   79.3611000000000        -3.010393474341639E-101
   79.6005000000000        -1.179062446860188E-101
   79.8399000000000         2.947768433011149E-101
   80.0793000000000         1.025980992506625E-100
   80.3187000000000         2.143477400479129E-100
   80.5581000000000         3.649294833877936E-100
   80.7975000000000         5.413821579019065E-100
   81.0369000000000         7.090204434937209E-100
   81.2763000000000         8.018991448743317E-100
   81.5157000000000         7.145843699794516E-100
   81.7551000000000         2.992623557076774E-100
   81.9945000000000        -6.257251177800073E-100
   82.2339000000000        -2.247855920210776E-099
   82.4733000000000        -4.703694698053718E-099
   82.7127000000000        -7.985039329811404E-099
   82.9521000000000        -1.180385735430398E-098
   83.1915000000000        -1.542159738585526E-098
   83.4309000000000        -1.746525516775077E-098
   83.6703000000000        -1.577756091114633E-098
   83.9097000000000        -7.381233962419860E-099
   84.1491000000000         1.132615859765808E-098
   84.3885000000000         4.399768413166042E-098
   84.6279000000000         9.321938378381643E-098
   84.8673000000000         1.587104170148456E-097
   85.1067000000000         2.347921715991159E-097
   85.3461000000000         3.072635044707563E-097
   85.5855000000000         3.501274899436339E-097
   85.8249000000000         3.230569143269431E-097
   86.0643000000000         1.710412141195729E-097
   86.3037000000000        -1.717459493199560E-097
   86.5431000000000        -7.713296190399392E-097
   86.7825000000000        -1.673897599517487E-096
   87.0219000000000        -2.874228222810045E-096
   87.2613000000000        -4.272134534004945E-096
   87.5007000000000        -5.619714738290393E-096
   87.7401000000000        -6.467359038016104E-096
   87.9795000000000        -6.123625349477082E-096
   88.2189000000000        -3.652807671454440E-096
   88.4583000000000         2.057011185437441E-096
   88.6977000000000         1.211584843439222E-095
   88.9371000000000         2.730329890873935E-095
   89.1765000000000         4.755967278831942E-095
   89.4159000000000         7.129467728984605E-095
   89.6553000000000         9.456289570519093E-095
   89.8947000000000         1.102345900154853E-094
   90.1341000000000         1.073973255374744E-094
   90.3735000000000         7.135023890017543E-095
   90.6129000000000        -1.532216478771703E-095
   90.8523000000000        -1.700227301229258E-094
   91.0917000000000        -4.051930414627531E-094
   91.3311000000000        -7.207474789940111E-094
   91.5705000000000        -1.093914541977360E-093
   91.8099000000000        -1.467257798080294E-093
   92.0493000000000        -1.736771822458715E-093
   92.2887000000000        -1.743427592062613E-093
   92.5281000000000        -1.273243920522142E-093
   92.7675000000000        -7.258879143855328E-095
   93.0069000000000         2.113539910941761E-093
   93.2463000000000         5.472776617132940E-093
   93.4857000000000         1.002124237923294E-092
   93.7251000000000         1.546485801127783E-092
   93.9645000000000         2.103701776494783E-092
   94.2039000000000         2.533826154275544E-092
   94.4433000000000         2.622260062141652E-092
   94.6827000000000         2.079656285326168E-092
   94.9221000000000         5.616892848238279E-093
   95.1615000000000        -2.281527781093117E-092
   95.4009000000000        -6.717118241871753E-092
   95.6403000000000        -1.279630549199545E-091
   95.8797000000000        -2.017796124929930E-091
   96.1191000000000        -2.792280417112793E-091
   96.3585000000000        -3.429019847471329E-091
   96.5979000000000        -3.659232936482631E-091
   96.8373000000000        -3.118578595713084E-091
   97.0767000000000        -1.370347824158889E-091
   97.3161000000000         2.035725360256456E-091
   97.5555000000000         7.458198484946416E-091
   97.7949000000000         1.500542791995152E-090
   98.0343000000000         2.432577104615358E-090
   98.2737000000000         3.436280554655533E-090
   98.5131000000000         4.311237281196088E-090
   98.7525000000000         4.744392845665991E-090
   98.9919000000000         4.307672568184881E-090
   99.2313000000000         2.482638527209966E-090
   99.4707000000000        -1.274893268609157E-090
   99.7101000000000        -7.418252240418424E-090
   99.9495000000000        -1.613380796747588E-089
   100.188900000000        -2.710730890116342E-089
   100.428300000000        -3.925011847530066E-089
   100.667700000000        -5.042464973898714E-089
   100.907100000000        -5.723545185349897E-089
   101.146500000000        -5.498182466082906E-089
   101.385900000000        -3.789390782318960E-089
   101.625300000000         2.116617084755095E-091
   101.864700000000         6.472960344667929E-089
   102.104100000000         1.584362743983288E-088
   102.343500000000         2.790471529142173E-088
   102.582900000000         4.163323699409558E-088
   102.822300000000         5.491799183915093E-088
   103.061700000000         6.432669085149535E-088
   103.301100000000         6.502918337109512E-088
   103.540500000000         5.099804822394300E-088
   103.779900000000         1.562224182673030E-088
   104.019300000000        -4.713846411201585E-088
   104.258700000000        -1.409734484967584E-087
   104.498100000000        -2.648211647192710E-087
   104.737500000000        -4.100017640841856E-087
   104.976900000000        -5.572413633296779E-087
   105.216300000000        -6.742020685244840E-087
   105.455700000000        -7.144083461487479E-087
   105.695100000000        -6.187082138364066E-087
   105.934500000000        -3.205524139446333E-087
   106.173900000000         2.436813432456701E-087
   106.413300000000         1.118461394269540E-086
   106.652700000000         2.306908752960159E-086
   106.892100000000         3.743876399062871E-086
   107.131500000000         5.267372809035988E-086
   107.370900000000         6.593679019801236E-086
   107.610300000000         7.303995453527617E-086
   107.849700000000         6.852724859280183E-086
   108.089100000000         4.608915060650237E-086
   108.328500000000        -5.788127283500793E-088
   108.567900000000        -7.638981937161326E-086
   108.807300000000        -1.829334193168550E-085
   109.046700000000        -3.160869878622350E-085
   109.286100000000        -4.634146141086940E-085
   109.525500000000        -6.017899112069964E-085
   109.764900000000        -6.958924346770016E-085
   110.004300000000        -6.984268274512184E-085
   110.243700000000        -5.530482796110811E-085
   110.483100000000        -2.009802445701916E-085
   110.722500000000         4.078973319259853E-085
   110.961900000000         1.299206948316399E-084
   111.201300000000         2.454043446394700E-084
   111.440700000000         3.786538074201799E-084
   111.680100000000         5.122349720385350E-084
   111.919500000000         6.183159102823451E-084
   112.158900000000         6.583920715577760E-084
   112.398300000000         5.850853068894580E-084
   112.637700000000         3.468404648965258E-084
   112.877100000000        -1.037883436401727E-084
   113.116500000000        -7.979204108186795E-084
   113.355900000000        -1.734479195270643E-083
   113.595300000000        -2.861864114500045E-083
   113.834700000000        -4.059538929096168E-083
   114.074100000000        -5.123270471531733E-083
   114.313500000000        -5.759104022263123E-083
   114.552900000000        -5.592228308190887E-083
   114.792300000000        -4.197287657088603E-083
   115.031700000000        -1.155993373841140E-083
   115.271100000000         3.854396555769913E-083
   115.510500000000         1.094242352062467E-082
   115.749900000000         1.986075904141030E-082
   115.989300000000         2.985724323676362E-082
   116.228700000000         3.954443729783309E-082
   116.468100000000         4.682390158678883E-082
   116.707500000000         4.891023357881876E-082
   116.946900000000         4.250453068588462E-082
   117.186300000000         2.416421389470291E-082
   117.425700000000        -9.097335129134016E-083
   117.665100000000        -5.897517594274661E-082
   117.904500000000        -1.248381931875037E-081
   118.143900000000        -2.025911747527826E-081
   118.383300000000        -2.836005070056243E-081
   118.622700000000        -3.539266939029542E-081
   118.862100000000        -3.941760607577693E-081
   119.101500000000        -3.803288591414507E-081
   119.340900000000        -2.859001857624517E-081
   119.580300000000        -8.572009077677695E-082
   119.819700000000         2.385423893839463E-081
   120.059100000000         6.912560213193317E-081
   120.298500000000         1.254630918051670E-080
   120.537900000000         1.880452113678393E-080
   120.777300000000         2.483278141137161E-080
   121.016700000000         2.937152253910604E-080
   121.256100000000         3.078260689342920E-080
   121.495500000000         2.716096257085479E-080
   121.734900000000         1.655390358955900E-080
   121.974300000000        -2.697932748623583E-081
   122.213700000000        -3.149979743016846E-080
   122.453100000000        -6.944722435692031E-080
   122.692500000000        -1.142309166951722E-079
   122.931900000000        -1.610925693713810E-079
   123.171300000000        -2.024579630693098E-079
   123.410700000000        -2.279040462409352E-079
   123.650100000000        -2.246332741674709E-079
   123.889500000000        -1.786213596631062E-079
   124.128900000000        -7.656352197978064E-080
   124.368300000000         9.133976853319029E-080
   124.607700000000         3.278492681058603E-079
   124.847100000000         6.246781829414513E-079
   125.086500000000         9.585000378023714E-079
   125.325900000000         1.287701978124037E-078
   125.565300000000         1.550832416977660E-078
   125.804700000000         1.667847702752487E-078
   126.044100000000         1.545295234150238E-078
   126.283500000000         1.086415748544782E-078
   126.522900000000         2.067439085095369E-079
   126.762300000000        -1.144912343212796E-078
   127.001700000000        -2.961242460215275E-078
   127.241100000000        -5.149370713437185E-078
   127.480500000000        -7.505847747092040E-078
   127.719900000000        -9.699064648453626E-078
   127.959300000000        -1.126569510235495E-077
   128.198700000000        -1.162843564753006E-077
   128.438100000000        -1.014202483369735E-077
   128.677500000000        -6.172888481195489E-078
   128.916900000000         7.855573969102761E-079
   129.156300000000         1.096511480471048E-077
   129.395700000000         2.415274908000041E-077
   129.635100000000         3.951705390300500E-077
   129.874500000000         5.545930059387107E-077
   130.113900000000         6.952589759008164E-077
   130.353300000000         7.842560773245498E-077
   130.592700000000         7.819703977934308E-077
   130.832100000000         6.456741673114853E-077
   131.071500000000         3.353017335064939E-077
   131.310900000000        -1.785522166255180E-077
   131.550300000000        -9.047346856109103E-077
   131.789700000000        -1.820522769479695E-076
   132.029100000000        -2.860826588349309E-076
   132.268500000000        -3.909500950660219E-076
   132.507900000000        -4.795167731732106E-076
   132.747300000000        -5.294291335765580E-076
   132.986700000000        -5.144292658599857E-076
   133.226100000000        -4.069093705225441E-076
   133.465500000000        -1.818525825249608E-076
   133.704900000000         1.778586048732270E-076
   133.944300000000         6.750163959723653E-076
   134.183700000000         1.291088292343021E-075
   134.423100000000         1.979525451854876E-075
   134.662500000000         2.660605397141451E-075
   134.901900000000         3.219337644513826E-075
   135.141300000000         3.508151959632680E-075
   135.380700000000         3.356089615139952E-075
   135.620100000000         2.585943589942329E-075
   135.859500000000         1.040165507996835E-075
   136.098900000000        -1.384682338727785E-075
   136.338300000000        -4.696620624184948E-075
   136.577700000000        -8.763640502929375E-075
   136.817100000000        -1.327145829033424E-074
   137.056500000000        -1.769148623845555E-074
   137.295900000000        -2.126877233642009E-074
   137.535300000000        -2.304087020699730E-074
   137.774700000000        -2.189860692690822E-074
   138.014100000000        -1.669797788657156E-074
   138.253500000000        -6.428399335859052E-075
   138.492900000000         9.564098490591776E-075
   138.732300000000         3.130959761293554E-074