  -1.79550000000000         0.000000000000000E+000
  -1.55610000000000         0.000000000000000E+000
  -1.31670000000000         0.000000000000000E+000
  -1.07730000000000         0.000000000000000E+000
 -0.837900000000000         0.000000000000000E+000
 -0.598500000000000         0.000000000000000E+000
 -0.359100000000000         0.000000000000000E+000
 -0.119700000000000         0.000000000000000E+000
  0.119700000000000         0.000000000000000E+000
  0.359100000000000         0.000000000000000E+000
  0.598500000000000         0.000000000000000E+000
  0.837900000000000         0.000000000000000E+000
   1.07730000000000         0.000000000000000E+000
   1.31670000000000         0.000000000000000E+000
   1.55610000000000         0.000000000000000E+000
   1.79550000000000         0.000000000000000E+000
   2.03490000000000         0.000000000000000E+000
   2.27430000000000         0.000000000000000E+000
   2.51370000000000         0.000000000000000E+000
   2.75310000000000         0.000000000000000E+000
   2.99250000000000         0.000000000000000E+000
   3.23190000000000         0.000000000000000E+000
   3.47130000000000         0.000000000000000E+000
   3.71070000000000         0.000000000000000E+000
   3.95010000000000         0.000000000000000E+000
   4.18950000000000         0.000000000000000E+000
   4.42890000000000         0.000000000000000E+000
   4.66830000000000         0.000000000000000E+000
   4.90770000000000         0.000000000000000E+000
   5.14710000000000         0.000000000000000E+000
   5.38650000000000         0.000000000000000E+000
   5.62590000000000         0.000000000000000E+000
   5.86530000000000         0.000000000000000E+000
   6.10470000000000         0.000000000000000E+000
   6.34410000000000         0.000000000000000E+000
   6.58350000000000         0.000000000000000E+000
   6.82290000000000         0.000000000000000E+000
   7.06230000000000         0.000000000000000E+000
   7.30170000000000         0.000000000000000E+000
   7.54110000000000         0.000000000000000E+000
   7.78050000000000         0.000000000000000E+000
   8.01990000000000         0.000000000000000E+000
   8.25930000000000         0.000000000000000E+000
   8.49870000000000         0.000000000000000E+000
   8.73810000000000         0.000000000000000E+000
   8.97750000000000         0.000000000000000E+000
   9.21690000000000         0.000000000000000E+000
   9.45630000000000         0.000000000000000E+000
   9.69570000000000         0.000000000000000E+000
   9.93510000000000         0.000000000000000E+000
   10.1745000000000         0.000000000000000E+000
   10.4139000000000         0.000000000000000E+000
   10.6533000000000         0.000000000000000E+000
   10.8927000000000         0.000000000000000E+000
   11.1321000000000         0.000000000000000E+000
   11.3715000000000         0.000000000000000E+000
   11.6109000000000         5.636017553247519E-247
   11.8503000000000        -1.114590639365129E-235
   12.0897000000000        -2.259050581496949E-233
   12.3291000000000         2.670495701485152E-230
   12.5685000000000        -1.731821148718090E-216
   12.8079000000000         1.130943506908004E-208
   13.0473000000000         2.404015458538919E-207
   13.2867000000000        -1.337144086289894E-204
   13.5261000000000        -1.025408825845434E-202
   13.7655000000000        -3.333141206393235E-201
   14.0049000000000        -4.133825937414600E-200
   14.2443000000000         1.074085683155610E-198
   14.4837000000000         7.340203576396718E-197
   14.7231000000000         2.300309338268334E-195
   14.9625000000000         5.212037335972630E-194
   15.2019000000000         9.539192985242467E-193
   15.4413000000000         1.482982518163391E-191
   15.6807000000000         2.016507740267880E-190
   15.9201000000000         2.445542973413911E-189
   16.1595000000000         2.682765771427584E-188
   16.3989000000000         2.690819798239445E-187
   16.6383000000000         2.488653524951296E-186
   16.8777000000000         2.137023724268525E-185
   17.1171000000000         1.713516282116878E-184
   17.3565000000000         1.289051979201512E-183
   17.5959000000000         9.134985969429242E-183
   17.8353000000000         6.119190389807328E-182
   18.0747000000000         3.886031850537656E-181
   18.3141000000000         2.345517776601863E-180
   18.5535000000000         1.348416534565065E-179
   18.7929000000000         7.396927959421830E-179
   19.0323000000000         3.877723341997462E-178
   19.2717000000000         1.945044061339930E-177
   19.5111000000000         9.343542907066413E-177
   19.7505000000000         4.301229411025446E-176
   19.9899000000000         1.897991022039338E-175
   20.2293000000000         8.027181188726752E-175
   20.4687000000000         3.251809800623424E-174
   20.7081000000000         1.260105567801142E-173
   20.9475000000000         4.660158969657750E-173
   21.1869000000000         1.638401738192145E-172
   21.4263000000000         5.440375335480126E-172
   21.6657000000000         1.686669861200427E-171
   21.9051000000000         4.775211032386099E-171
   22.1445000000000         1.173993798165312E-170
   22.3839000000000         2.138399651872775E-170
   22.6233000000000         3.051534920949897E-171
   22.8627000000000        -2.320979092157234E-169
   23.1021000000000        -1.575702511502669E-168
   23.3415000000000        -7.734349499538640E-168
   23.5809000000000        -3.293841883690573E-167
   23.8203000000000        -1.288129626301888E-166
   24.0597000000000        -4.746734341226144E-166
   24.2991000000000        -1.671892925199299E-165
   24.5385000000000        -5.678839426228463E-165
   24.7779000000000        -1.871101031466446E-164
   25.0173000000000        -6.003395463273848E-164
   25.2567000000000        -1.879943521615212E-163
   25.4961000000000        -5.750427871734859E-163
   25.7355000000000        -1.717081101338965E-162
   25.9749000000000        -4.994025982668786E-162
   26.2143000000000        -1.408871417610539E-161
   26.4537000000000        -3.828883904983925E-161
   26.6931000000000        -9.911878404792113E-161
   26.9325000000000        -2.395908768419640E-160
   27.1719000000000        -5.191222789612331E-160
   27.4113000000000        -9.023768497997061E-160
   27.6507000000000        -6.620860507409885E-160
   27.8901000000000         4.087275575110811E-159
   28.1295000000000         2.935850646797509E-158
   28.3689000000000         1.333444336086583E-157
   28.6083000000000         5.111106213320549E-157
   28.8477000000000         1.778128087664751E-156
   29.0871000000000         5.781613875863591E-156
   29.3265000000000         1.782559115253817E-155
   29.5659000000000         5.252373719817947E-155
   29.8053000000000         1.485512745360194E-154
   30.0447000000000         4.041644744139130E-154
   30.2841000000000         1.058420317402063E-153
   30.5235000000000         2.665658090610316E-153
   30.7629000000000         6.440459307355845E-153
   31.0023000000000         1.485745904567520E-152
   31.2417000000000         3.245366869769571E-152
   31.4811000000000         6.611116008365172E-152
   31.7205000000000         1.217994930315839E-151
   31.9599000000000         1.880149420225196E-151
   32.1993000000000         1.782595557851537E-151
   32.4387000000000        -2.390280623022488E-151
   32.6781000000000        -2.095291595167318E-150
   32.9175000000000        -8.248625420212297E-150
   33.1569000000000        -2.599505734968255E-149
   33.3963000000000        -7.274060067013806E-149
   33.6357000000000        -1.874950503494535E-148
   33.8751000000000        -4.523070246333992E-148
   34.1145000000000        -1.027915026347720E-147
   34.3539000000000        -2.202398759630468E-147
   34.5933000000000        -4.428794542794304E-147
   34.8327000000000        -8.260499754077558E-147
   35.0721000000000        -1.392591068058796E-146
   35.3115000000000        -1.991257169385369E-146
   35.5509000000000        -1.919037397150889E-146
   35.7903000000000         9.612488683133492E-147
   36.0297000000000         1.207546805015125E-145
   36.2691000000000         4.364913457061288E-145
   36.5085000000000         1.205652911107289E-144
   36.7479000000000         2.883797946684047E-144
   36.9873000000000         6.199010564586953E-144
   37.2267000000000         1.207343931873336E-143
   37.4661000000000         2.105165461152471E-143
   37.7055000000000         3.143678485968462E-143
   37.9449000000000         3.451550372605634E-143
   38.1843000000000         3.963977057101354E-144
   38.4237000000000        -1.250578411792266E-142
   38.6631000000000        -4.924711413989997E-142
   38.9025000000000        -1.367868849627809E-141
   39.1419000000000        -3.211215964682674E-141
   39.3813000000000        -6.686697060045976E-141
   39.6207000000000        -1.248083612654165E-140
   39.8601000000000        -2.058129274395521E-140
   40.0995000000000        -2.832501423307500E-140
   40.3389000000000        -2.599090850322437E-140
   40.5783000000000         1.192621489822451E-140
   40.8177000000000         1.419596667688682E-139
   41.0571000000000         4.745110624183966E-139
   41.2965000000000         1.200161553591950E-138
   41.5359000000000         2.600897795617461E-138
   41.7753000000000         4.995243135325911E-138
   42.0147000000000         8.503096902126080E-138
   42.2541000000000         1.240849897914916E-137
   42.4935000000000         1.374311374957575E-137
   42.7329000000000         4.545096456430853E-138
   42.9723000000000        -3.279979459216315E-137
   43.2117000000000        -1.323171024186393E-136
   43.4511000000000        -3.519043686408191E-136
   43.6905000000000        -7.760508442691970E-136
   43.9299000000000        -1.499825895682888E-135
   44.1693000000000        -2.564461978229480E-135
   44.4087000000000        -3.789841159515410E-135
   44.6481000000000        -4.416054518993416E-135
   44.8875000000000        -2.436165750409675E-135
   45.1269000000000         6.490891855281473E-135
   45.3663000000000         3.053801848901967E-134
   45.6057000000000         8.322725722225327E-134
   45.8451000000000         1.836850065353940E-133
   46.0845000000000         3.526005299766509E-133
   46.3239000000000         5.978490703780203E-133
   46.5633000000000         8.793078468221120E-133
   46.8027000000000         1.037156346819534E-132
   47.0421000000000         6.645096730486603E-133
   47.2815000000000        -1.089846413414348E-132
   47.5209000000000        -5.776106353064835E-132
   47.7603000000000        -1.587062798218452E-131
   47.9997000000000        -3.473652095972057E-131
   48.2391000000000        -6.579638660009047E-131
   48.4785000000000        -1.099466848488307E-130
   48.7179000000000        -1.596371893165817E-130
   48.9573000000000        -1.874259927782525E-130
   49.1967000000000        -1.266490284100959E-130
   49.4361000000000         1.568948827195619E-130
   49.6755000000000         8.987975675974549E-130
   49.9149000000000         2.461168113887953E-129
   50.1543000000000         5.313538376783965E-129
   50.3937000000000         9.897953100991862E-129
   50.6331000000000         1.625344063876169E-128
   50.8725000000000         2.321040758562972E-128
   51.1119000000000         2.691352542097125E-128
   51.3513000000000         1.845189286399441E-128
   51.5907000000000        -1.941420099477493E-128
   51.8301000000000        -1.158379490449597E-127
   52.0695000000000        -3.138967843326547E-127
   52.3089000000000        -6.667920733072991E-127
   52.5483000000000        -1.220275628889679E-126
   52.7877000000000        -1.968279568058005E-126
   53.0271000000000        -2.763301041110883E-126
   53.2665000000000        -3.160194884252949E-126
   53.5059000000000        -2.177887110694409E-126
   53.7453000000000         2.010574756539651E-126
   53.9847000000000         1.238552737100568E-125
   54.2241000000000         3.318623431373044E-125
   54.4635000000000         6.940223073883718E-125
   54.7029000000000         1.249239590499657E-124
   54.9423000000000         1.982346503287321E-124
   55.1817000000000         2.741674935270393E-124
   55.4211000000000         3.101987159780076E-124
   55.6605000000000         2.165248135639357E-124
   55.8999000000000        -1.683400726769430E-124
   56.1393000000000        -1.099237360412944E-123
   56.3787000000000        -2.926085532447760E-123
   56.6181000000000        -6.042501889477594E-123
   56.8575000000000        -1.072621251089285E-122
   57.0969000000000        -1.679125358664250E-122
   57.3363000000000        -2.295373444477266E-122
   57.5757000000000        -2.582185507461391E-122
   57.8151000000000        -1.849353799485777E-122
   58.0545000000000         1.106185754633145E-122
   58.2939000000000         8.127189138984401E-122
   58.5333000000000         2.166457728245530E-121
   58.7727000000000         4.436417983674435E-121
   59.0121000000000         7.791971527669695E-121
   59.2515000000000         1.207091000552600E-120
   59.4909000000000         1.636642629982785E-120
   59.7303000000000         1.839499890658999E-120
   59.9697000000000         1.365575039967984E-120
   60.2091000000000        -5.483966614193416E-121
   60.4485000000000        -5.040898338785285E-120
   60.6879000000000        -1.358378043808498E-119
   60.9273000000000        -2.770872213436042E-119
   61.1667000000000        -4.831035837317894E-119
   61.4061000000000        -7.427732729667543E-119
   61.6455000000000        -1.001899468562197E-118
   61.8849000000000        -1.129228452015881E-118
   62.1243000000000        -8.730737057671342E-119
   62.3637000000000         1.831708771649896E-119
   62.6031000000000         2.646440993090723E-118
   62.8425000000000         7.281891261166722E-118
   63.0819000000000         1.486042957179433E-117
   63.3213000000000         2.579597326193711E-117
   63.5607000000000         3.946194666391599E-117
   63.8001000000000         5.308076063273120E-117
   64.0395000000000         6.013946260857018E-117
   64.2789000000000         4.844370444020919E-117
   64.5183000000000        -1.763866980828899E-118
   64.7577000000000        -1.186701077912158E-116
   64.9971000000000        -3.370261629409771E-116
   65.2365000000000        -6.908661336142272E-116
   65.4759000000000        -1.197135229250105E-115
   65.7153000000000        -1.825955383779387E-115
   65.9547000000000        -2.453807661869980E-115
   66.1941000000000        -2.798797881287886E-115
   66.4335000000000        -2.344019163462167E-115
   66.6729000000000        -2.677209374842056E-116
   66.9123000000000         4.580806807294077E-115
   67.1517000000000         1.359259457681796E-114
   67.3911000000000         2.809695228053347E-114
   67.6305000000000         4.871402395203698E-114
   67.8699000000000         7.421683585195846E-114
   68.1093000000000         9.979019449172156E-114
   68.3487000000000         1.146922756805205E-113
   68.5881000000000         9.958142839403462E-114
   68.8275000000000         2.422149939071489E-114
   69.0669000000000        -1.530351983612928E-113
   69.3063000000000        -4.816753150884511E-113
   69.5457000000000        -1.008020255864828E-112
   69.7851000000000        -1.752584029427695E-112
   70.0245000000000        -2.671427175020435E-112
   70.2639000000000        -3.598552893891817E-112
   70.5033000000000        -4.170594011503549E-112
   70.7427000000000        -3.743511717430783E-112
   70.9821000000000        -1.325215721378707E-112
   71.2215000000000         4.431269976273144E-112
   71.4609000000000         1.510307623707929E-111
   71.7003000000000         3.214208216425790E-111
   71.9397000000000         5.616894278597485E-111
   72.1791000000000         8.579921265286575E-111
   72.4185000000000         1.159345816633834E-110
   72.6579000000000         1.355830928465450E-110
   72.8973000000000         1.255208925044344E-110
   73.1367000000000         5.650739095269017E-111
   73.3761000000000        -1.106730974880076E-110
   73.6155000000000        -4.213844892931274E-110
   73.8549000000000        -9.168810471855039E-110
   74.0943000000000        -1.614537230241159E-109
   74.3337000000000        -2.475725024099970E-109
   74.5731000000000        -3.360035084052723E-109
   74.8125000000000        -3.968158290038534E-109
   75.0519000000000        -3.782292676156459E-109
   75.2913000000000        -2.023070417101887E-109
   75.5307000000000         2.344256737160720E-109
   75.7701000000000         1.050550595877915E-108
   76.0095000000000         2.353106727773549E-108
   76.2489000000000         4.187525646128697E-108
   76.4883000000000         6.457907012507942E-108
   76.7277000000000         8.815500598930569E-108
   76.9671000000000         1.052225147983611E-107
   77.2065000000000         1.031186011857647E-107
   77.4459000000000         6.294145237872174E-108
   77.6853000000000        -4.020846999900937E-108
   77.9247000000000        -2.346792184920218E-107
   78.1641000000000        -5.459932944439968E-107
   78.4035000000000        -9.853096536251545E-107
   78.6429000000000        -1.531364103459347E-106
   78.8823000000000        -2.105610775587833E-106
   79.1217000000000        -2.542309521979062E-106
   79.3611000000000        -2.558688734693635E-106
   79.6005000000000        -1.735230651009996E-106
   79.8399000000000         4.776015961905687E-107
   80.0793000000000         4.703044536073430E-106
   80.3187000000000         1.150330881767221E-105
   80.5581000000000         2.113609936021626E-105
   80.7975000000000         3.317899484134248E-105
   81.0369000000000         4.601941029966874E-105
   81.2763000000000         5.624940705295127E-105
   81.5157000000000         5.807204116283602E-105
   81.7551000000000         4.292137111327412E-105
   81.9945000000000        -3.832695479451399E-107
   82.2339000000000        -8.450342110228447E-105
   82.4733000000000        -2.209259169547423E-104
   82.7127000000000        -4.152305132876794E-104
   82.9521000000000        -6.598766660270444E-104
   83.1915000000000        -9.245203315272958E-104
   83.4309000000000        -1.144657051875781E-103
   83.6703000000000        -1.210628747128860E-103
   83.9097000000000        -9.607473708890840E-104
   84.1491000000000        -1.843666875441700E-104
   84.3885000000000         1.357149496875757E-103
   84.6279000000000         3.882077615282244E-103
   84.8673000000000         7.503144177058691E-103
   85.1067000000000         1.209898420322669E-102
   85.3461000000000         1.714325308925725E-102
   85.5855000000000         2.150615808886996E-102
   85.8249000000000         2.326440939588233E-102
   86.0643000000000         1.958431477223967E-102
   86.3037000000000         6.776727167845643E-103
   86.5431000000000        -1.934391264739668E-102
   86.7825000000000        -6.264155552385420E-102
   87.0219000000000        -1.252309417168095E-101
   87.2613000000000        -2.053425516550274E-101
   87.5007000000000        -2.945087045946663E-101
   87.7401000000000        -3.743241853394578E-101
   87.9795000000000        -4.133740033612947E-101
   88.2189000000000        -3.653703705887663E-101
   88.4583000000000        -1.700606765018463E-101
   88.6977000000000         2.410356167707179E-101
   88.9371000000000         9.316948541007654E-101
   89.1765000000000         1.938619427541182E-100
   89.4159000000000         3.238263408684449E-100
   89.6553000000000         4.703475914416693E-100
   89.8947000000000         6.054023164401290E-100
   90.1341000000000         6.810128193616808E-100
   90.3735000000000         6.264757432285993E-100
   90.6129000000000         3.497823114271254E-100
   90.8523000000000        -2.537677842574372E-100
   91.0917000000000        -1.282372469777880E-099
   91.3311000000000        -2.794833133730805E-099
   91.5705000000000        -4.762199884106262E-099
   91.8099000000000        -7.005134735311382E-099
   92.0493000000000        -9.123112532949470E-099
   92.2887000000000        -1.042871686639853E-098
   92.5281000000000        -9.909351726135335E-099
   92.7675000000000        -6.248659380125280E-099
   93.0069000000000         2.051256308627889E-099
   93.2463000000000         1.640140342421591E-098
   93.4857000000000         3.767077613852696E-098
   93.7251000000000         6.552389477812806E-098
   93.9645000000000         9.757125672963111E-098
   94.2039000000000         1.284197515991534E-097
   94.4433000000000         1.488043700235001E-097
   94.6827000000000         1.450994631175358E-097
   94.9221000000000         9.963273105760623E-098
   95.1615000000000        -7.669878810855484E-099
   95.4009000000000        -1.957386218321899E-097
   95.6403000000000        -4.764248682681923E-097
   95.8797000000000        -8.459608460241079E-097
   96.1191000000000        -1.274134456101026E-096
   96.3585000000000        -1.692349598407474E-096
   96.5979000000000        -1.982912544475218E-096
   96.8373000000000        -1.973298920155188E-096
   97.0767000000000        -1.440616818734479E-096
   97.3161000000000        -1.326356252254267E-097
   97.5555000000000         2.187933275121469E-096
   97.7949000000000         5.670433126664255E-096
   98.0343000000000         1.027260521702315E-095
   98.2737000000000         1.563096582864606E-095
   98.5131000000000         2.092008188292518E-095
   98.7525000000000         2.472924629421150E-095
   98.9919000000000         2.500106429277152E-095
   99.2313000000000         1.909237183135978E-095
   99.4707000000000         4.029511554502946E-096
   99.7101000000000        -2.296876938424734E-095
   99.9495000000000        -6.364430538814593E-095
   100.188900000000        -1.175150198338564E-094
   100.428300000000        -1.804164813285280E-094
   100.667700000000        -2.429475506916785E-094
   100.907100000000        -2.891471932086527E-094
   101.146500000000        -2.958989874491724E-094
   101.385900000000        -2.337207127723824E-094
   101.625300000000        -6.970185899933684E-095
   101.864700000000         2.266627601909672E-094
   102.104100000000         6.742083284160965E-094
   102.343500000000         1.267362623501520E-093
   102.582900000000         1.960733689381562E-093
   102.822300000000         2.653029536136284E-093
   103.061700000000         3.173842239010530E-093
   103.301100000000         3.278502094117693E-093
   103.540500000000         2.657710985422765E-093
   103.779900000000         9.695113544473651E-094
   104.019300000000        -2.099307322133878E-093
   104.258700000000        -6.737767352194558E-093
   104.498100000000        -1.288191801187521E-092
   104.737500000000        -2.006199666319221E-092
   104.976900000000        -2.724678965152131E-092
   105.216300000000        -3.272104218376120E-092
   105.455700000000        -3.404713824108621E-092
   105.695100000000        -2.817517987332722E-092
   105.934500000000        -1.177131924044201E-092
   106.173900000000         1.817325790477774E-092
   106.413300000000         6.341755045656613E-092
   106.652700000000         1.232480942392706E-091
   106.892100000000         1.930588960102441E-091
   107.131500000000         2.629451412972376E-091
   107.370900000000         3.166520937731081E-091
   107.610300000000         3.313514233664913E-091
   107.849700000000         2.788178225145266E-091
   108.089100000000         1.286065097145139E-091
   108.328500000000        -1.462646297150852E-091
   108.567900000000        -5.608998857781852E-091
   108.807300000000        -1.107647736796368E-090
   109.046700000000        -1.743771151504234E-090
   109.286100000000        -2.379634206024791E-090
   109.525500000000        -2.870452679056478E-090
   109.764900000000        -3.015680274341187E-090
   110.004300000000        -2.570797870833730E-090
   110.243700000000        -1.276281720201378E-090
   110.483100000000         1.092564806663248E-090
   110.722500000000         4.653823804103175E-090
   110.961900000000         9.328510756415514E-090
   111.201300000000         1.474096672653072E-089
   111.440700000000         2.012730091674918E-089
   111.680100000000         2.427736002201548E-089
   111.919500000000         2.554297721145228E-089
   112.158900000000         2.194928811197011E-089
   112.398300000000         1.144389184094713E-089
   112.637700000000        -7.692445056596886E-090
   112.877100000000        -3.627267671644006E-089
   113.116500000000        -7.350319832130961E-089
   113.355900000000        -1.162403611642418E-088
   113.595300000000        -1.583451668846636E-088
   113.834700000000        -1.903355203068328E-088
   114.074100000000        -1.995811401365439E-088
   114.313500000000        -1.713023924493479E-088
   114.552900000000        -9.060068886952867E-089
   114.792300000000         5.435552660645862E-089
   115.031700000000         2.680543229996183E-088
   115.271100000000         5.426178491088430E-088
   115.510500000000         8.527347678077762E-088
   115.749900000000         1.151643672103673E-087
   115.989300000000         1.369629826759800E-087
   116.228700000000         1.416736004210459E-087
   116.468100000000         1.191374833522370E-087
   116.707500000000         5.961302720095156E-088
   116.946900000000        -4.388709441699518E-088
   117.186300000000        -1.926121672814041E-087
   117.425700000000        -3.787575052347736E-087
   117.665100000000        -5.823744284655018E-087
   117.904500000000        -7.693136306939022E-087
   118.143900000000        -8.912111083328719E-087
   118.383300000000        -8.886081515782684E-087
   118.622700000000        -6.981765184507636E-087
   118.862100000000        -2.646145275255213E-087
   119.101500000000         4.429724497484809E-087
   119.340900000000         1.411508900718994E-086
   119.580300000000         2.563925528925036E-086
   119.819700000000         3.742962933574306E-086
   120.059100000000         4.704522711138684E-086
   120.298500000000         5.127184374401931E-086
   120.537900000000         4.644375134748344E-086
   120.777300000000         2.903988907769838E-086
   121.016700000000        -3.434602985718542E-087
   121.256100000000        -5.133047356236833E-086
   121.495500000000        -1.116302410006543E-085
   121.734900000000        -1.768436793483775E-085
   121.974300000000        -2.343447984396076E-085
   122.213700000000        -2.665469330396914E-085
   122.453100000000        -2.523371106462583E-085
   122.692500000000        -1.701320609599454E-085
   122.931900000000        -2.743617014073571E-087
   123.171300000000         2.560731576641343E-085
   123.410700000000         5.939755667712101E-085
   123.650100000000         9.724600832130346E-085
   123.889500000000         1.321165533859654E-084
   124.128900000000         1.536439589890812E-084
   124.368300000000         1.486919473940301E-084
   124.607700000000         1.028822101456050E-084
   124.847100000000         3.294410214711376E-086
   125.086500000000        -1.576159978419010E-084
   125.325900000000        -3.770845120788532E-084
   125.565300000000        -6.366344369591416E-084
   125.804700000000        -8.971628948723629E-084
   126.044100000000        -1.095907205120089E-083
   126.283500000000        -1.147049909963663E-083
   126.522900000000        -9.479075412593699E-084
   126.762300000000        -3.925157931219853E-084
   127.001700000000         6.061741627584505E-084
   127.241100000000         2.085463716141526E-083
   127.480500000000         3.995267918881485E-083
   127.719900000000         6.157984804042718E-083
   127.959300000000         8.233130805141931E-083
   128.198700000000         9.697033713805977E-083
   128.438100000000         9.850420451732171E-083
   128.677500000000         7.868008698062401E-083
   128.916900000000         2.903264271193577E-083
   129.156300000000        -5.742677331911975E-083
   129.395700000000        -1.838718647572177E-082
   129.635100000000        -3.467955706925498E-082
   129.874500000000        -5.329121079783549E-082
   130.113900000000        -7.163309476407507E-082
   130.353300000000        -8.567272678961728E-082
   130.592700000000        -8.994287918495684E-082
   130.832100000000        -7.784578295251362E-082
   131.071500000000        -4.235464447910300E-082
   131.310900000000         2.280876023273191E-082
   131.550300000000         1.214922021355735E-081
   131.789700000000         2.529815022167898E-081
   132.029100000000         4.095905450998384E-081
   132.268500000000         5.742895324864734E-081
   132.507900000000         7.188508724724325E-081
   132.747300000000         8.031503302209109E-081
   132.986700000000         7.763830686365579E-081
   133.226100000000         5.809984073135475E-081
   133.465500000000         1.600746552454866E-081
   133.704900000000        -5.314048791895818E-081
   133.944300000000        -1.511396956075908E-080
   134.183700000000        -2.752521733304066E-080
   134.423100000000        -4.162405852453628E-080
   134.662500000000        -5.565572158511856E-080
   134.901900000000        -6.691079605168762E-080
   135.141300000000        -7.171301146699499E-080
   135.380700000000        -6.558055651856394E-080
   135.620100000000        -4.362443699619915E-080
   135.859500000000        -1.237843080012577E-081
   136.098900000000         6.489394213300185E-080
   136.338300000000         1.554764167911281E-079
   136.577700000000         2.670581676295425E-079
   136.817100000000         3.904125118770467E-079
   137.056500000000         5.091071073094445E-079
   137.295900000000         5.986247436952362E-079
   137.535300000000         6.264930764616613E-079
   137.774700000000         5.539429622438617E-079
   138.014100000000         3.396154252436835E-079
   138.253500000000        -5.425713921060506E-080
   138.492900000000        -6.529930518970009E-079
   138.732300000000        -1.458104789029424E-078