  -1.79550000000000         0.000000000000000E+000
  -1.55610000000000         0.000000000000000E+000
  -1.31670000000000         0.000000000000000E+000
  -1.07730000000000         0.000000000000000E+000
 -0.837900000000000         0.000000000000000E+000
 -0.598500000000000         0.000000000000000E+000
 -0.359100000000000         0.000000000000000E+000
 -0.119700000000000         0.000000000000000E+000
  0.119700000000000         0.000000000000000E+000
  0.359100000000000         0.000000000000000E+000
  0.598500000000000         0.000000000000000E+000
  0.837900000000000         0.000000000000000E+000
   1.07730000000000         0.000000000000000E+000
   1.31670000000000         0.000000000000000E+000
   1.55610000000000         0.000000000000000E+000
   1.79550000000000         0.000000000000000E+000
   2.03490000000000         0.000000000000000E+000
   2.27430000000000         0.000000000000000E+000
   2.51370000000000         0.000000000000000E+000
   2.75310000000000         0.000000000000000E+000
   2.99250000000000         0.000000000000000E+000
   3.23190000000000         0.000000000000000E+000
   3.47130000000000         0.000000000000000E+000
   3.71070000000000         0.000000000000000E+000
   3.95010000000000         0.000000000000000E+000
   4.18950000000000         0.000000000000000E+000
   4.42890000000000         0.000000000000000E+000
   4.66830000000000         0.000000000000000E+000
   4.90770000000000         0.000000000000000E+000
   5.14710000000000         0.000000000000000E+000
   5.38650000000000         0.000000000000000E+000
   5.62590000000000         0.000000000000000E+000
   5.86530000000000         0.000000000000000E+000
   6.10470000000000         0.000000000000000E+000
   6.34410000000000         0.000000000000000E+000
   6.58350000000000         0.000000000000000E+000
   6.82290000000000         0.000000000000000E+000
   7.06230000000000         0.000000000000000E+000
   7.30170000000000         0.000000000000000E+000
   7.54110000000000         0.000000000000000E+000
   7.78050000000000         0.000000000000000E+000
   8.01990000000000         0.000000000000000E+000
   8.25930000000000         0.000000000000000E+000
   8.49870000000000         0.000000000000000E+000
   8.73810000000000         0.000000000000000E+000
   8.97750000000000         0.000000000000000E+000
   9.21690000000000         0.000000000000000E+000
   9.45630000000000         0.000000000000000E+000
   9.69570000000000         0.000000000000000E+000
   9.93510000000000         0.000000000000000E+000
   10.1745000000000         0.000000000000000E+000
   10.4139000000000         0.000000000000000E+000
   10.6533000000000         0.000000000000000E+000
   10.8927000000000         0.000000000000000E+000
   11.1321000000000         0.000000000000000E+000
   11.3715000000000         0.000000000000000E+000
   11.6109000000000         0.000000000000000E+000
   11.8503000000000         0.000000000000000E+000
   12.0897000000000         0.000000000000000E+000
   12.3291000000000         0.000000000000000E+000
   12.5685000000000         8.201114538334623E-224
   12.8079000000000        -2.770327546606752E-211
   13.0473000000000        -1.080997747438893E-209
   13.2867000000000         5.132267288925730E-207
   13.5261000000000         4.380660823171036E-205
   13.7655000000000         1.650889512579210E-203
   14.0049000000000         3.301438728983349E-202
   14.2443000000000         1.540869848472607E-201
   14.4837000000000        -1.333680195467687E-199
   14.7231000000000        -5.572990691131768E-198
   14.9625000000000        -1.381821360810362E-196
   15.2019000000000        -2.621830467261272E-195
   15.4413000000000        -4.124961156149199E-194
   15.6807000000000        -5.598317033145754E-193
   15.9201000000000        -6.712570405327869E-192
   16.1595000000000        -7.226879482277640E-191
   16.3989000000000        -7.069170233941270E-190
   16.6383000000000        -6.339387443808808E-189
   16.8777000000000        -5.248683386459521E-188
   17.1171000000000        -4.034776420423939E-187
   17.3565000000000        -2.892749462869088E-186
   17.5959000000000        -1.941235696174114E-185
   17.8353000000000        -1.222700637299597E-184
   18.0747000000000        -7.242632521472439E-184
   18.3141000000000        -4.039395093615589E-183
   18.5535000000000        -2.121719564721487E-182
   18.7929000000000        -1.048604320962585E-181
   19.0323000000000        -4.863761912895178E-181
   19.2717000000000        -2.106360402912859E-180
   19.5111000000000        -8.434820322652183E-180
   19.7505000000000        -3.064529844420072E-179
   19.9899000000000        -9.687658045189446E-179
   20.2293000000000        -2.361207741486346E-178
   20.4687000000000        -1.960435156438301E-178
   20.7081000000000         2.470921939676812E-177
   20.9475000000000         2.248033685791115E-176
   21.1869000000000         1.327987778546084E-175
   21.4263000000000         6.535587618773183E-175
   21.6657000000000         2.859544521177308E-174
   21.9051000000000         1.139428477834055E-173
   22.1445000000000         4.167044190538527E-173
   22.3839000000000         1.394532666680352E-172
   22.6233000000000         4.204062861028702E-172
   22.8627000000000         1.095247460309574E-171
   23.1021000000000         2.170885887542732E-171
   23.3415000000000         1.259306014216071E-171
   23.5809000000000        -1.685294839896360E-170
   23.8203000000000        -1.208430818186903E-169
   24.0597000000000        -5.688379479006923E-169
   24.2991000000000        -2.195321269517424E-168
   24.5385000000000        -7.267473683974211E-168
   24.7779000000000        -2.033382421230087E-167
   25.0173000000000        -4.322858279042337E-167
   25.2567000000000        -3.144417257661219E-167
   25.4961000000000         3.344000628634787E-166
   25.7355000000000         2.636162511691986E-165
   25.9749000000000         1.352333209924165E-164
   26.2143000000000         5.818921961149848E-164
   26.4537000000000         2.248629423326614E-163
   26.6931000000000         8.025845825624272E-163
   26.9325000000000         2.681698146382848E-162
   27.1719000000000         8.442023408137266E-162
   27.4113000000000         2.508479833769310E-161
   27.6507000000000         7.020839163906987E-161
   27.8901000000000         1.837899640189953E-160
   28.1295000000000         4.430961269361024E-160
   28.3689000000000         9.507203929392582E-160
   28.6083000000000         1.655143609896697E-159
   28.8477000000000         1.487105284455659E-159
   29.0871000000000        -4.855813563053453E-159
   29.3265000000000        -3.739021180366496E-158
   29.5659000000000        -1.620291417344277E-157
   29.8053000000000        -5.767505890173387E-157
   30.0447000000000        -1.834284766408111E-156
   30.2841000000000        -5.380329930972157E-156
   30.5235000000000        -1.476187575764859E-155
   30.7629000000000        -3.810364457607537E-155
   31.0023000000000        -9.255416979536235E-155
   31.2417000000000        -2.104758497142569E-154
   31.4811000000000        -4.423222711567970E-154
   31.7205000000000        -8.344045417013334E-154
   31.9599000000000        -1.310978366021378E-153
   32.1993000000000        -1.263041195686757E-153
   32.4387000000000         1.656302435634130E-153
   32.6781000000000         1.469216701779193E-152
   32.9175000000000         5.758843022924959E-152
   33.1569000000000         1.794625404507925E-151
   33.3963000000000         4.932502729924701E-151
   33.6357000000000         1.239188676014338E-150
   33.8751000000000         2.885491847878234E-150
   34.1145000000000         6.245644214030416E-150
   34.3539000000000         1.248886385526741E-149
   34.5933000000000         2.263182362372072E-149
   34.8327000000000         3.539569082117655E-149
   35.0721000000000         4.076742184104173E-149
   35.3115000000000         3.534733780543164E-150
   35.5509000000000        -1.743850094880135E-148
   35.7903000000000        -7.322620221617381E-148
   36.0297000000000        -2.198092733003640E-147
   36.2691000000000        -5.634639248014666E-147
   36.5085000000000        -1.297768853471492E-146
   36.7479000000000        -2.731993955984737E-146
   36.9873000000000        -5.260086579486512E-146
   37.2267000000000        -9.123134824697923E-146
   37.4661000000000        -1.362234295328307E-145
   37.7055000000000        -1.507043707521237E-145
   37.9449000000000        -2.154268076151533E-146
   38.1843000000000         5.347708591314176E-145
   38.4237000000000         2.143975550155011E-144
   38.6631000000000         6.050789180585646E-144
   38.9025000000000         1.448637047215705E-143
   39.1419000000000         3.097127393059298E-143
   39.3813000000000         6.003813061675569E-143
   39.6207000000000         1.050702426288902E-142
   39.8601000000000         1.614251702074698E-142
   40.0995000000000         1.993818477374371E-142
   40.3389000000000         1.275322807663717E-142
   40.5783000000000        -2.773243063736859E-142
   40.8177000000000        -1.490027630243128E-141
   41.0571000000000        -4.414940469884475E-141
   41.2965000000000        -1.059410591169772E-140
   41.5359000000000        -2.231886489385537E-140
   41.7753000000000        -4.229597203539577E-140
   42.0147000000000        -7.208412381404837E-140
   42.2541000000000        -1.077611144064173E-139
   42.4935000000000        -1.301361547426230E-139
   42.7329000000000        -8.540546961048867E-140
   42.9723000000000         1.489030669617696E-139
   43.2117000000000         8.167729611369778E-139
   43.4511000000000         2.352285167193214E-138
   43.6905000000000         5.440235230789804E-138
   43.9299000000000         1.099818622396538E-137
   44.1693000000000         1.991771227096337E-137
   44.4087000000000         3.224432490377225E-137
   44.6481000000000         4.523632209481225E-137
   44.8875000000000         4.944311402182591E-137
   45.1269000000000         2.169604706412505E-137
   45.3663000000000        -8.598303164379615E-137
   45.6057000000000        -3.614129865469479E-136
   45.8451000000000        -9.476784748426564E-136
   46.0845000000000        -2.047696682251897E-135
   46.3239000000000        -3.891773140482078E-135
   46.5633000000000        -6.616615816644009E-135
   46.8027000000000        -9.966403418884694E-135
   47.0421000000000        -1.267935151663696E-134
   47.2815000000000        -1.138307943308173E-134
   47.5209000000000         1.168185384668351E-135
   47.7603000000000         3.853219680210977E-134
   47.9997000000000         1.232595875655220E-133
   48.2391000000000         2.883729973619890E-133
   48.4785000000000         5.742771380980317E-133
   48.7179000000000         1.014513329726989E-132
   48.9573000000000         1.599048175428870E-132
   49.1967000000000         2.197981980373718E-132
   49.4361000000000         2.423598385815870E-132
   49.6755000000000         1.409384982199168E-132
   49.9149000000000        -2.499193472873189E-132
   50.1543000000000        -1.209868544794217E-131
   50.3937000000000        -3.157534498810052E-131
   50.6331000000000        -6.629416752544625E-131
   50.8725000000000        -1.214457846364911E-130
   51.1119000000000        -1.983897914917505E-130
   51.3513000000000        -2.869535376521546E-130
   51.5907000000000        -3.514490526901666E-130
   51.8301000000000        -3.082037042709929E-130
   52.0695000000000         6.163956000008310E-132
   52.3089000000000         8.721670019770612E-130
   52.5483000000000         2.717579163173236E-129
   52.7877000000000         6.109875337026129E-129
   53.0271000000000         1.165237545347681E-128
   53.2665000000000         1.968528395420650E-128
   53.5059000000000         2.964446941838463E-128
   53.7453000000000         3.888896061601178E-128
   53.9847000000000         4.080692711243739E-128
   54.2241000000000         2.211460281002261E-128
   54.4635000000000        -4.041838386973473E-128
   54.7029000000000        -1.828918420284586E-127
   54.9423000000000        -4.546563065964629E-127
   55.1817000000000        -9.119324478086504E-127
   55.4211000000000        -1.597575082840148E-126
   55.6605000000000        -2.496432762055076E-126
   55.8999000000000        -3.452679362119576E-126
   56.1393000000000        -4.035008022254501E-126
   56.3787000000000        -3.341822127622357E-126
   56.6181000000000         2.416893008240364E-127
   56.8575000000000         9.279660644470943E-126
   57.0969000000000         2.738141752922706E-125
   57.3363000000000         5.889793415147174E-125
   57.5757000000000         1.077817589407159E-124
   57.8151000000000         1.749573031529057E-124
   58.0545000000000         2.533479072235505E-124
   58.2939000000000         3.196433610880410E-124
   58.5333000000000         3.221943249963668E-124
   58.7727000000000         1.654585183613720E-124
   59.0121000000000        -3.062707859982804E-124
   59.2515000000000        -1.318889722615724E-123
   59.4909000000000        -3.158484851545622E-123
   59.7303000000000        -6.117822101135162E-123
   59.9697000000000        -1.036385041291832E-122
   60.2091000000000        -1.567904254348460E-122
   60.4485000000000        -2.102388401603947E-122
   60.6879000000000        -2.387955124250887E-122
   60.9273000000000        -1.937676078230293E-122
   61.1667000000000         6.752118538540959E-124
   61.4061000000000         4.854384707439257E-122
   61.6455000000000         1.404697361965285E-121
   61.8849000000000         2.945877627095433E-121
   62.1243000000000         5.251609986272278E-121
   62.3637000000000         8.308032605159894E-121
   62.6031000000000         1.173992862027531E-120
   62.8425000000000         1.449525998411685E-120
   63.0819000000000         1.441409863893057E-120
   63.3213000000000         7.721917565162134E-121
   63.5607000000000        -1.142696903340492E-120
   63.8001000000000        -5.108832806222412E-120
   64.0395000000000        -1.208744543871332E-119
   64.2789000000000        -2.297666673031064E-119
   64.5183000000000        -3.813666568381900E-119
   64.7577000000000        -5.653540424763063E-119
   64.9971000000000        -7.439825434213378E-119
   65.2365000000000        -8.330958765535520E-119
   65.4759000000000        -6.788328568420881E-119
   65.7153000000000        -3.450135246835792E-120
   65.9547000000000         1.452349298043555E-118
   66.1941000000000         4.224401039539940E-118
   66.4335000000000         8.741574980569863E-118
   66.6729000000000         1.530967580993144E-117
   66.9123000000000         2.376031773894281E-117
   67.1517000000000         3.293165165883240E-117
   67.3911000000000         3.992002115684520E-117
   67.6305000000000         3.913063988723051E-117
   67.8699000000000         2.127197993238694E-117
   68.1093000000000        -2.736343631470533E-117
   68.3487000000000        -1.246929727158120E-116
   68.5881000000000        -2.906824936653086E-116
   68.8275000000000        -5.417587443037749E-116
   69.0669000000000        -8.799527962844891E-116
   69.3063000000000        -1.274859523659261E-115
   69.5457000000000        -1.637105097746104E-115
   69.7851000000000        -1.783852393395670E-115
   70.0245000000000        -1.400645467008109E-115
   70.2639000000000        -1.034827459378712E-117
   70.5033000000000         3.030375601495082E-115
   70.7427000000000         8.473745479269678E-115
   70.9821000000000         1.701480582212527E-114
   71.2215000000000         2.895604064608821E-114
   71.4609000000000         4.363839449060010E-114
   71.7003000000000         5.859134588825057E-114
   71.9397000000000         6.840882443239808E-114
   72.1791000000000         6.347009681355111E-114
   72.4185000000000         2.881731264462091E-114
   72.6579000000000        -5.620985549414490E-114
   72.8973000000000        -2.165999981928678E-113
   73.1367000000000        -4.771395429624452E-113
   73.3761000000000        -8.529289211975779E-113
   73.6155000000000        -1.333021790564772E-112
   73.8549000000000        -1.855714757120242E-112
   74.0943000000000        -2.275500617400541E-112
   74.3337000000000        -2.324784149245689E-112
   74.5731000000000        -1.578727551623641E-112
   74.8125000000000         5.605564689964869E-113
   75.0519000000000         4.833929859247227E-112
   75.2913000000000         1.201109558543384E-111
   75.5307000000000         2.264407383735000E-111
   75.7701000000000         3.663651550904851E-111
   76.0095000000000         5.258860807239661E-111
   76.2489000000000         6.691528829655238E-111
   76.4883000000000         7.281374741173453E-111
   76.7277000000000         5.928863737818673E-111
   76.9671000000000         1.063881749597750E-111
   77.2065000000000        -9.293640597453612E-111
   77.4459000000000        -2.726701343087605E-110
   77.6853000000000        -5.453149105266451E-110
   77.9247000000000        -9.127207273017555E-110
   78.1641000000000        -1.345921362452933E-109
   78.4035000000000        -1.763648939939241E-109
   78.6429000000000        -2.007031961617011E-109
   78.8823000000000        -1.815299021574448E-109
   79.1217000000000        -8.117816663970603E-110
   79.3611000000000         1.484750720080862E-109
   79.6005000000000         5.602083849858266E-109
   79.8399000000000         1.198324028159389E-108
   80.0793000000000         2.075369007836294E-108
   80.3187000000000         3.136537108995688E-108
   80.5581000000000         4.211575805660026E-108
   80.7975000000000         4.958008563149792E-108
   81.0369000000000         4.806049678100287E-108
   81.2763000000000         2.925032639527248E-108
   81.5157000000000        -1.756875783502412E-108
   81.7551000000000        -1.043498932949160E-107
   81.9945000000000        -2.415719707884815E-107
   82.2339000000000        -4.334205091977527E-107
   82.4733000000000        -6.704189436746661E-107
   82.7127000000000        -9.194814439238869E-107
   82.9521000000000        -1.112162569541797E-106
   83.1915000000000        -1.133183708641883E-106
   83.4309000000000        -8.131662285305570E-107
   83.6703000000000         6.819166076754975E-108
   83.9097000000000         1.759807945286996E-106
   84.1491000000000         4.487148911628006E-106
   84.3885000000000         8.359405884777527E-106
   84.6279000000000         1.322769136697323E-105
   84.8673000000000         1.849389917301962E-105
   85.1067000000000         2.288498294978482E-105
   85.3461000000000         2.423155243528108E-105
   85.5855000000000         1.932345221896090E-105
   85.8249000000000         3.956493631070050E-106
   86.0643000000000        -2.667218612334931E-105
   86.3037000000000        -7.702931389460611E-105
   86.5431000000000        -1.495760460344540E-104
   86.7825000000000        -2.422202687662377E-104
   87.0219000000000        -3.448877468909462E-104
   87.2613000000000        -4.354744551470732E-104
   87.5007000000000        -4.758602146719683E-104
   87.7401000000000        -4.092403896651629E-104
   87.9795000000000        -1.607316584426264E-104
   88.2189000000000         3.560744998232918E-104
   88.4583000000000         1.223400146225194E-103
   88.6977000000000         2.491159991702942E-103
   88.9371000000000         4.134072095540945E-103
   89.1765000000000         5.993995099411154E-103
   89.4159000000000         7.711848457076801E-103
   89.6553000000000         8.660253421677996E-103
   89.8947000000000         7.897280598968244E-103
   90.1341000000000         4.172767129380650E-103
   90.3735000000000        -3.970132269687701E-103
   90.6129000000000        -1.794733252991649E-102
   90.8523000000000        -3.868909187486488E-102
   91.0917000000000        -6.596149148037417E-102
   91.3311000000000        -9.745433292778425E-102
   91.5705000000000        -1.277030270409540E-101
   91.8099000000000        -1.470155849324342E-101
   92.0493000000000        -1.407155351567661E-101
   92.2887000000000        -8.917714496611765E-102
   92.5281000000000         3.070536511737742E-102
   92.7675000000000         2.418549733405327E-101
   93.0069000000000         5.603968475933818E-101
   93.2463000000000         9.855485454320242E-101
   93.4857000000000         1.486015430408102E-100
   93.7251000000000         1.983870336152368E-100
   93.9645000000000         2.338386716476503E-100
   94.2039000000000         2.334287381014787E-100
   94.4433000000000         1.681211243519610E-100
   94.6827000000000         3.351426458620055E-102
   94.9221000000000        -2.958852846197867E-100
   95.1615000000000        -7.557697662373743E-100
   95.4009000000000        -1.379450438906272E-099
   95.6403000000000        -2.127875298808776E-099
   95.8797000000000        -2.896988406309270E-099
   96.1191000000000        -3.494640602277017E-099
   96.3585000000000        -3.623252665469682E-099
   96.5979000000000        -2.877404325270476E-099
   96.8373000000000        -7.686005752286792E-100
   97.0767000000000         3.208385884600581E-099
   97.3161000000000         9.453269197222181E-099
   97.5555000000000         1.807173847745917E-098
   97.7949000000000         2.862006846092020E-098
   98.0343000000000         3.979956820977853E-098
   98.2737000000000         4.914359824383896E-098
   98.5131000000000         5.277423454409106E-098
   98.7525000000000         4.534551458413811E-098
   98.9919000000000         2.032918292686500E-098
   99.2313000000000        -2.917393361784568E-098
   99.4707000000000        -1.089142272573590E-097
   99.7101000000000        -2.211310478566596E-097
   99.9495000000000        -3.613329526930760E-097
   100.188900000000        -5.144168769705596E-097
   100.428300000000        -6.506387703464436E-097
   100.667700000000        -7.223641648043571E-097
   100.907100000000        -6.630084457415532E-097
   101.146500000000        -3.900471538625679E-097
   101.385900000000         1.856919152171264E-097
   101.625300000000         1.142235917198016E-096
   101.864700000000         2.518507125834414E-096
   102.104100000000         4.275903329075904E-096
   102.343500000000         6.251559902974133E-096
   102.582900000000         8.109071228640292E-096
   102.822300000000         9.297225867977731E-096
   103.061700000000         9.032835340152104E-096
   103.301100000000         6.329154859604395E-096
   103.540500000000         9.527665254067559E-098
   103.779900000000        -1.066782368986182E-095
   104.019300000000        -2.655477189957312E-095
   104.258700000000        -4.732187139582098E-095
   104.498100000000        -7.135331197462955E-095
   104.737500000000        -9.508865370836861E-095
   104.976900000000        -1.125247893547861E-094
   105.216300000000        -1.149659305038931E-094
   105.455700000000        -9.125472519041272E-095
   105.695100000000        -2.876134675877010E-095
   105.934500000000         8.458613674912366E-095
   106.173900000000         2.570045117092935E-094
   106.413300000000         4.882171394359359E-094
   106.652700000000         7.636725564253029E-094
   106.892100000000         1.048226378728896E-093
   107.131500000000         1.280431631285391E-093
   107.370900000000         1.369209871430502E-093
   107.610300000000         1.195300831148094E-093
   107.849700000000         6.203618221006222E-094
   108.089100000000        -4.933031371437650E-094
   108.328500000000        -2.249927471544515E-093
   108.567900000000        -4.673370059843982E-093
   108.807300000000        -7.647736865935058E-093
   109.046700000000        -1.085115808672666E-092
   109.286100000000        -1.369363729245106E-092
   109.525500000000        -1.527609867456390E-092
   109.764900000000        -1.439403240667581E-092
   110.004300000000        -9.614062492854348E-093
   110.243700000000         5.466726860533918E-094
   110.483100000000         1.731274881846754E-092
   110.722500000000         4.120167712867323E-092
   110.961900000000         7.144566477001449E-092
   111.201300000000         1.053324210676719E-091
   111.440700000000         1.375629630690811E-091
   111.680100000000         1.597829498371096E-091
   111.919500000000         1.605042418317565E-091
   112.158900000000         1.256825205304359E-091
   112.398300000000         4.023691123939568E-092
   112.637700000000        -1.092340321253218E-091
   112.877100000000        -3.303939947843856E-091
   113.116500000000        -6.198307991385897E-091
   113.355900000000        -9.568252894890687E-091
   113.595300000000        -1.297052878698989E-090
   113.834700000000        -1.567570164893965E-090
   114.074100000000        -1.664990728116971E-090
   114.313500000000        -1.459224259954987E-090
   114.552900000000        -8.053882339811312E-091
   114.792300000000         4.336930140069038E-091
   115.031700000000         2.352828116300784E-090
   115.271100000000         4.957758451442153E-090
   115.510500000000         8.109231458771521E-090
   115.749900000000         1.146436482934450E-089
   115.989300000000         1.442633567921759E-089
   116.228700000000         1.611826664620585E-089
   116.468100000000         1.540148711562884E-089
   116.707500000000         1.096088084659192E-089
   116.946900000000         1.479199430881087E-090
   117.186300000000        -1.408378081092109E-089
   117.425700000000        -3.610430944379945E-089
   117.665100000000        -6.381813182624830E-089
   117.904500000000        -9.480229845238053E-089
   118.143900000000        -1.245001757662695E-088
   118.383300000000        -1.459150925521258E-088
   118.622700000000        -1.496358115324007E-088
   118.862100000000        -1.243823941687624E-088
   119.101500000000        -5.826158336654595E-089
   119.340900000000         5.911779953342644E-089
   119.580300000000         2.336111311105023E-088
   119.819700000000         4.626847506091141E-088
   120.059100000000         7.310684534431665E-088
   120.298500000000         1.006527138032794E-087
   120.537900000000         1.236690426015256E-087
   120.777300000000         1.348195672156717E-087
   121.016700000000         1.249637593651299E-087
   121.256100000000         8.398838434811451E-088
   121.495500000000         2.310062933726548E-089
   121.734900000000        -1.268777169123967E-087
   121.974300000000        -3.046496519474943E-087
   122.213700000000        -5.228860882871609E-087
   122.453100000000        -7.607176225958404E-087
   122.692500000000        -9.815410936526753E-087
   122.931900000000        -1.131524998273924E-086
   123.171300000000        -1.140731735251875E-086
   123.410700000000        -9.280827463836345E-087
   123.650100000000        -4.113003790390077E-087
   123.889500000000         4.774084738045063E-087
   124.128900000000         1.769884067853277E-086
   124.368300000000         3.435841668891632E-086
   124.607700000000         5.354596165619866E-086
   124.847100000000         7.289112977096213E-086
   125.086500000000         8.868758593840896E-086
   125.325900000000         9.588861840935794E-086
   125.565300000000         8.836277134875953E-086
   125.804700000000         5.950000801833190E-086
   126.044100000000         3.239081098262615E-087
   126.283500000000        -8.445740816455393E-086
   126.522900000000        -2.037266519510104E-085
   126.762300000000        -3.486769355072445E-085
   127.001700000000        -5.052836072853346E-085
   127.241100000000        -6.497289348786828E-085
   127.480500000000        -7.477413970850044E-085
   127.719900000000        -7.555910945418084E-085
   127.959300000000        -6.234260375654957E-085
   128.198700000000        -3.015455759168565E-085
   128.438100000000         2.500415910236184E-085
   128.677500000000         1.048872310708394E-084
   128.916900000000         2.074852118595383E-084
   129.156300000000         3.254257685597841E-084
   129.395700000000         4.445522812861726E-084
   129.635100000000         5.430425326915819E-084
   129.874500000000         5.915143748785038E-084
   130.113900000000         5.546098734507783E-084
   130.353300000000         3.945243285272521E-084
   130.592700000000         7.682086249686951E-085
   130.832100000000        -4.213827374162695E-084
   131.071500000000        -1.101168163597449E-083
   131.310900000000        -1.930370030161486E-083
   131.550300000000        -2.832448777980155E-083
   131.789700000000        -3.677917367481732E-083
   132.029100000000        -4.281215840848619E-083
   132.268500000000        -4.406382984889486E-083
   132.507900000000        -3.784937370815878E-083
   132.747300000000        -2.148842428936218E-083
   132.986700000000         7.199094662859301E-084
   133.226100000000         4.923854017815632E-083
   133.465500000000         1.037281678289942E-082
   133.704900000000         1.670314848930970E-082
   133.944300000000         2.320648330767263E-082
   134.183700000000         2.878583203366063E-082
   134.423100000000         3.196068287637389E-082
   134.662500000000         3.094458738901133E-082
   134.901900000000         2.381711260549047E-082
   135.141300000000         8.805658954418183E-083
   135.380700000000        -1.531971016036526E-082
   135.620100000000        -4.875428431483509E-082
   135.859500000000        -9.011087181075042E-082
   136.098900000000        -1.358878298625798E-081
   136.338300000000        -1.800569417960206E-081
   136.577700000000        -2.139042953152322E-081
   136.817100000000        -2.262765951150446E-081
   137.056500000000        -2.043864372741871E-081
   137.295900000000        -1.353039759248645E-081
   137.535300000000        -8.200695967680275E-083
   137.774700000000         1.826923765033573E-081
   138.014100000000         4.345961652674820E-081
   138.253500000000         7.325327638182882E-081
   138.492900000000         1.046086581311918E-080
   138.732300000000         1.327353679554122E-080