  -1.79550000000000         0.000000000000000E+000
  -1.55610000000000         0.000000000000000E+000
  -1.31670000000000         0.000000000000000E+000
  -1.07730000000000         0.000000000000000E+000
 -0.837900000000000         0.000000000000000E+000
 -0.598500000000000         0.000000000000000E+000
 -0.359100000000000         0.000000000000000E+000
 -0.119700000000000         0.000000000000000E+000
  0.119700000000000         0.000000000000000E+000
  0.359100000000000         0.000000000000000E+000
  0.598500000000000         0.000000000000000E+000
  0.837900000000000         0.000000000000000E+000
   1.07730000000000         0.000000000000000E+000
   1.31670000000000         0.000000000000000E+000
   1.55610000000000         0.000000000000000E+000
   1.79550000000000         0.000000000000000E+000
   2.03490000000000         0.000000000000000E+000
   2.27430000000000         0.000000000000000E+000
   2.51370000000000         0.000000000000000E+000
   2.75310000000000         0.000000000000000E+000
   2.99250000000000         0.000000000000000E+000
   3.23190000000000         0.000000000000000E+000
   3.47130000000000         0.000000000000000E+000
   3.71070000000000         0.000000000000000E+000
   3.95010000000000         0.000000000000000E+000
   4.18950000000000         0.000000000000000E+000
   4.42890000000000         0.000000000000000E+000
   4.66830000000000         0.000000000000000E+000
   4.90770000000000         0.000000000000000E+000
   5.14710000000000         0.000000000000000E+000
   5.38650000000000         0.000000000000000E+000
   5.62590000000000         0.000000000000000E+000
   5.86530000000000         0.000000000000000E+000
   6.10470000000000         0.000000000000000E+000
   6.34410000000000         0.000000000000000E+000
   6.58350000000000         0.000000000000000E+000
   6.82290000000000         0.000000000000000E+000
   7.06230000000000         0.000000000000000E+000
   7.30170000000000         0.000000000000000E+000
   7.54110000000000         0.000000000000000E+000
   7.78050000000000         0.000000000000000E+000
   8.01990000000000         0.000000000000000E+000
   8.25930000000000         0.000000000000000E+000
   8.49870000000000         0.000000000000000E+000
   8.73810000000000         0.000000000000000E+000
   8.97750000000000         0.000000000000000E+000
   9.21690000000000         0.000000000000000E+000
   9.45630000000000         0.000000000000000E+000
   9.69570000000000         0.000000000000000E+000
   9.93510000000000         0.000000000000000E+000
   10.1745000000000         0.000000000000000E+000
   10.4139000000000         0.000000000000000E+000
   10.6533000000000         0.000000000000000E+000
   10.8927000000000         0.000000000000000E+000
   11.1321000000000         0.000000000000000E+000
   11.3715000000000         0.000000000000000E+000
   11.6109000000000         0.000000000000000E+000
   11.8503000000000         0.000000000000000E+000
   12.0897000000000         0.000000000000000E+000
   12.3291000000000         0.000000000000000E+000
   12.5685000000000         0.000000000000000E+000
   12.8079000000000         4.700252288222677E-225
   13.0473000000000        -1.587740096689490E-212
   13.2867000000000        -6.513001225378637E-211
   13.5261000000000         2.928556276350267E-208
   13.7655000000000         2.569296356894007E-206
   14.0049000000000         9.972568121618873E-205
   14.2443000000000         2.089014515609845E-203
   14.4837000000000         1.290939209688425E-202
   14.7231000000000        -7.406338251969856E-201
   14.9625000000000        -3.343430191917013E-199
   15.2019000000000        -8.580824028776771E-198
   15.4413000000000        -1.670905966370081E-196
   15.6807000000000        -2.689712956917631E-195
   15.9201000000000        -3.729761143697639E-194
   16.1595000000000        -4.566187615125320E-193
   16.3989000000000        -5.017835097237185E-192
   16.6383000000000        -5.009413436785446E-191
   16.8777000000000        -4.584956889975219E-190
   17.1171000000000        -3.875041561335061E-189
   17.3565000000000        -3.041584330635742E-188
   17.5959000000000        -2.227469436571396E-187
   17.8353000000000        -1.527646034647736E-186
   18.0747000000000        -9.840131035352729E-186
   18.3141000000000        -5.966185227789135E-185
   18.5535000000000        -3.409908393079603E-184
   18.7929000000000        -1.838327381461641E-183
   19.0323000000000        -9.345462757671649E-183
   19.2717000000000        -4.472796550449537E-182
   19.5111000000000        -2.008309539528059E-181
   19.7505000000000        -8.403534012682745E-181
   19.9899000000000        -3.236230225325215E-180
   20.2293000000000        -1.118433250381009E-179
   20.4687000000000        -3.266507359378021E-179
   20.7081000000000        -6.538153122799516E-179
   20.9475000000000         4.351637887644565E-179
   21.1869000000000         1.440815447902760E-177
   21.4263000000000         1.044912588089242E-176
   21.6657000000000         5.691443135574923E-176
   21.9051000000000         2.672669818643475E-175
   22.1445000000000         1.130652883531720E-174
   22.3839000000000         4.382270153039619E-174
   22.6233000000000         1.562628324500195E-173
   22.8627000000000         5.096477275235498E-173
   23.1021000000000         1.490744789940560E-172
   23.3415000000000         3.716027787415256E-172
   23.5809000000000         6.663048781259117E-172
   23.8203000000000        -4.875268192527244E-174
   24.0597000000000        -7.601857623213198E-171
   24.2991000000000        -4.780028522997959E-170
   24.5385000000000        -2.138177557509856E-169
   24.7779000000000        -7.963512943384478E-169
   25.0173000000000        -2.544264286358014E-168
   25.2567000000000        -6.769709377552128E-168
   25.4961000000000        -1.279729420735917E-167
   25.7355000000000         3.403777496881143E-169
   25.9749000000000         1.645627445953307E-166
   26.2143000000000         1.103839189112267E-165
   26.4537000000000         5.378077136122463E-165
   26.6931000000000         2.253974098476139E-164
   26.9325000000000         8.569942135966788E-164
   27.1719000000000         3.025535513114009E-163
   27.4113000000000         1.003239965958724E-162
   27.6507000000000         3.141595373463316E-162
   27.8901000000000         9.303759397607269E-162
   28.1295000000000         2.599936000399493E-161
   28.3689000000000         6.808984535195019E-161
   28.6083000000000         1.646683601193817E-160
   28.8477000000000         3.561070613089122E-160
   29.0871000000000         6.327752759190679E-160
   29.3265000000000         6.311453555106214E-160
   29.5659000000000        -1.513405844265721E-159
   29.8053000000000        -1.294422954561661E-158
   30.0447000000000        -5.742999063494125E-158
   30.2841000000000        -2.070429405991635E-157
   30.5235000000000        -6.650152964860371E-157
   30.7629000000000        -1.969025590070539E-156
   31.0023000000000        -5.456845678911121E-156
   31.2417000000000        -1.424916366656464E-155
   31.4811000000000        -3.510434932434754E-155
   31.7205000000000        -8.131006822268641E-155
   31.9599000000000        -1.753374806006471E-154
   32.1993000000000        -3.445001570442367E-154
   32.4387000000000        -5.860507051898563E-154
   32.6781000000000        -7.326746518755356E-154
   32.9175000000000        -3.725583325739735E-155
   33.1569000000000         3.958691830494376E-153
   33.3963000000000         1.824006121907653E-152
   33.6357000000000         6.079076782350140E-152
   33.8751000000000         1.743623019355834E-151
   34.1145000000000         4.533081836103279E-151
   34.3539000000000         1.090206674911501E-150
   34.5933000000000         2.442871427476747E-150
   34.8327000000000         5.092619403021181E-150
   35.0721000000000         9.770977953357579E-150
   35.3115000000000         1.678581366051963E-149
   35.5509000000000         2.400323330261632E-149
   35.7903000000000         2.122623650233258E-149
   36.0297000000000        -2.351842492641269E-149
   36.2691000000000        -1.942409683824465E-148
   36.5085000000000        -6.878979848908261E-148
   36.7479000000000        -1.925336958668660E-147
   36.9873000000000        -4.728546143678708E-147
   37.2267000000000        -1.054643508543575E-146
   37.4661000000000        -2.159300790120903E-146
   37.7055000000000        -4.044686695080255E-146
   37.9449000000000        -6.793794915051525E-146
   38.1843000000000        -9.666369322539699E-146
   38.4237000000000        -9.474045730422964E-146
   38.6631000000000         3.005907717861975E-146
   38.9025000000000         5.016436194632987E-145
   39.1419000000000         1.803476241341613E-144
   39.3813000000000         4.880345664388687E-144
   39.6207000000000         1.139814204307028E-143
   39.8601000000000         2.393776199258618E-143
   40.0995000000000         4.572903941009387E-143
   40.3389000000000         7.894736106259474E-143
   40.5783000000000         1.194748587019990E-142
   40.8177000000000         1.441082458577642E-142
   41.0571000000000         8.334463305908841E-143
   41.2965000000000        -2.304496373281755E-142
   41.5359000000000        -1.151417119604788E-141
   41.7753000000000        -3.351531421469401E-141
   42.0147000000000        -7.975727699176549E-141
   42.2541000000000        -1.673123523119901E-140
   42.4935000000000        -3.166278654608325E-140
   42.7329000000000        -5.405274801059240E-140
   42.9723000000000        -8.133749849538693E-140
   43.2117000000000        -1.000882628013644E-139
   43.4511000000000        -7.202784112039346E-140
   43.6905000000000         9.084759488541524E-140
   43.9299000000000         5.655157509229324E-139
   44.1693000000000         1.670515915175394E-138
   44.4087000000000         3.917047175477726E-138
   44.6481000000000         8.011576792622019E-138
   44.8875000000000         1.469870678674015E-137
   45.1269000000000         2.421953833119821E-137
   45.3663000000000         3.498382153557235E-137
   45.6057000000000         4.082021427648584E-137
   45.8451000000000         2.594317582374550E-137
   46.0845000000000        -4.324755254342810E-137
   46.3239000000000        -2.297966103346280E-136
   46.5633000000000        -6.393923713914675E-136
   46.8027000000000        -1.428202000113502E-135
   47.0421000000000        -2.788209729483888E-135
   47.2815000000000        -4.874901017542317E-135
   47.5209000000000        -7.613983451978122E-135
   47.7603000000000        -1.028611442510107E-134
   47.9997000000000        -1.074987426351066E-134
   48.2391000000000        -4.149336245913536E-135
   48.4785000000000         1.897853881077295E-134
   48.7179000000000         7.501959194590355E-134
   48.9573000000000         1.892047982591460E-133
   49.1967000000000         3.950352292599111E-133
   49.4361000000000         7.268371947933677E-133
   49.6755000000000         1.197541303510122E-132
   49.9149000000000         1.749020591705269E-132
   50.1543000000000         2.157265203873458E-132
   50.3937000000000         1.872105600122423E-132
   50.6331000000000        -2.227115427108246E-133
   50.8725000000000        -6.117003880662757E-132
   51.1119000000000        -1.897164074818374E-131
   51.3513000000000        -4.319646476600486E-131
   51.5907000000000        -8.386727323701984E-131
   51.8301000000000        -1.446804563374726E-130
   52.0695000000000        -2.231575210904380E-130
   52.3089000000000        -3.012813149781068E-130
   52.5483000000000        -3.294191596683455E-130
   52.7877000000000        -2.018061290303011E-130
   53.0271000000000         2.759782764785063E-130
   53.2665000000000         1.421587818832140E-129
   53.5059000000000         3.695407441871481E-129
   53.7453000000000         7.668221568226270E-129
   53.9847000000000         1.386985380543175E-128
   54.2241000000000         2.241022733979900E-128
   54.4635000000000         3.221804095167128E-128
   54.7029000000000         3.970938159658314E-128
   54.9423000000000         3.671875915009683E-128
   55.1817000000000         7.670710783683667E-129
   55.4211000000000        -7.364233832722007E-128
   55.6605000000000        -2.465161857128882E-127
   55.8999000000000        -5.624664862732511E-127
   56.1393000000000        -1.076297989399982E-126
   56.3787000000000        -1.821385324901050E-126
   56.6181000000000        -2.758000373236377E-126
   56.8575000000000        -3.680763637354729E-126
   57.0969000000000        -4.071687649939330E-126
   57.3363000000000        -2.893318003778559E-126
   57.5757000000000         1.660631247727655E-126
   57.8151000000000         1.239180746907740E-125
   58.0545000000000         3.315019963335560E-125
   58.2939000000000         6.842855826167654E-125
   58.5333000000000         1.220264322722853E-124
   58.7727000000000         1.940900234270428E-124
   59.0121000000000         2.756364327511938E-124
   59.2515000000000         3.396297405307285E-124
   59.4909000000000         3.280343657274106E-124
   59.7303000000000         1.354187700577634E-124
   59.9697000000000        -4.078236482880986E-124
   60.2091000000000        -1.545042792485284E-123
   60.4485000000000        -3.580864867389974E-123
   60.6879000000000        -6.821615351620165E-123
   60.9273000000000        -1.143095927329947E-122
   61.1667000000000        -1.715083108456800E-122
   61.4061000000000        -2.283200491099218E-122
   61.6455000000000        -2.573101629810383E-122
   61.8849000000000        -2.057937559521500E-122
   62.1243000000000         1.455785015677749E-123
   62.3637000000000         5.358916183785368E-122
   62.6031000000000         1.533378342158958E-121
   62.8425000000000         3.203708081398900E-121
   63.0819000000000         5.704795379142141E-121
   63.3213000000000         9.031988687155282E-121
   63.5607000000000         1.280174331455332E-120
   63.8001000000000         1.591659137900000E-120
   64.0395000000000         1.610344679374639E-120
   64.2789000000000         9.362701963853823E-121
   64.5183000000000        -1.054651281851460E-120
   64.7577000000000        -5.231275072958983E-120
   64.9971000000000        -1.264807630505224E-119
   65.2365000000000        -2.432881707337344E-119
   65.4759000000000        -4.078422692084989E-119
   65.7153000000000        -6.113018807544258E-119
   65.9547000000000        -8.167388462335063E-119
   66.1941000000000        -9.389382458973668E-119
   66.4335000000000        -8.190272523987404E-119
   66.6729000000000        -1.981159666467008E-119
   66.9123000000000         1.300228970607421E-118
   67.1517000000000         4.160333791830219E-118
   67.3911000000000         8.907829288318616E-118
   67.6305000000000         1.594323540855574E-117
   67.8699000000000         2.522131084904018E-117
   68.1093000000000         3.571853366132237E-117
   68.3487000000000         4.464749336069907E-117
   68.5881000000000         4.643000451831698E-117
   68.8275000000000         3.155281595329100E-117
   69.0669000000000        -1.437384479842087E-117
   69.3063000000000        -1.107326769937960E-116
   69.5457000000000        -2.801567171585593E-116
   69.7851000000000        -5.434071140431825E-116
   70.0245000000000        -9.088943014849599E-116
   70.2639000000000        -1.354655786164274E-115
   70.5033000000000        -1.801010354882487E-115
   70.7427000000000        -2.073686946192596E-115
   70.9821000000000        -1.860713186046430E-115
   71.2215000000000        -6.725807492925232E-116
   71.4609000000000         2.175090713144623E-115
   71.7003000000000         7.523781550449060E-115
   71.9397000000000         1.623048069618543E-114
   72.1791000000000         2.885785101496820E-114
   72.4185000000000         4.512284237156406E-114
   72.6579000000000         6.303942192468099E-114
   72.8973000000000         7.773448200416950E-114
   73.1367000000000         8.001568501122902E-114
   73.3761000000000         5.495089476178941E-114
   73.6155000000000        -1.899726487373742E-114
   73.8549000000000        -1.693440492579571E-113
   74.0943000000000        -4.260462258595645E-113
   74.3337000000000        -8.131627130258543E-113
   74.5731000000000        -1.333518066276006E-112
   74.8125000000000        -1.944354021306731E-112
   75.0519000000000        -2.523063162186000E-112
   75.2913000000000        -2.824728374757343E-112
   75.5307000000000        -2.438009353141891E-112
   75.7701000000000        -7.535050198936545E-113
   76.0095000000000         3.030724479354755E-112
   76.2489000000000         9.828931216347264E-112
   76.4883000000000         2.046221104569557E-111
   76.7277000000000         3.526861857965428E-111
   76.9671000000000         5.347299784294107E-111
   77.2065000000000         7.228711284453162E-111
   77.4459000000000         8.577482308980339E-111
   77.6853000000000         8.363516443632317E-111
   77.9247000000000         5.024222131737205E-111
   78.1641000000000        -3.546090070415911E-111
   78.4035000000000        -1.983019523822832E-110
   78.6429000000000        -4.622218870198236E-110
   78.8823000000000        -8.411695599730645E-110
   79.1217000000000        -1.324156303958428E-109
   79.3611000000000        -1.853668171049739E-109
   79.6005000000000        -2.298085470361517E-109
   79.8399000000000        -2.421434123320032E-109
   80.0793000000000        -1.857994995293337E-109
   80.3187000000000        -1.051129101670762E-110
   80.5581000000000         3.445392614400385E-109
   80.7975000000000         9.409651626380621E-109
   81.0369000000000         1.821546235490409E-108
   81.2763000000000         2.977573357671924E-108
   81.5157000000000         4.301241003501775E-108
   81.7551000000000         5.524217951952254E-108
   81.9945000000000         6.149141035354751E-108
   82.2339000000000         5.389558143183354E-108
   82.4733000000000         2.145940025559467E-108
   82.7127000000000        -4.940007277134640E-108
   82.9521000000000        -1.729571973257731E-107
   83.1915000000000        -3.602549834443043E-107
   83.4309000000000        -6.124982022186543E-107
   83.6703000000000        -9.113458966223896E-107
   83.9097000000000        -1.206285366015217E-106
   84.1491000000000        -1.400366088916897E-106
   84.3885000000000        -1.337277718021743E-106
   84.6279000000000        -7.950920676721020E-107
   84.8673000000000         5.052037922704015E-107
   85.1067000000000         2.865428659420708E-106
   85.3461000000000         6.537245907982943E-106
   85.5855000000000         1.159783061307489E-105
   85.8249000000000         1.776588796818271E-105
   86.0643000000000         2.416070131061214E-105
   86.3037000000000         2.902686871995315E-105
   86.5431000000000         2.947830436081351E-105
   86.7825000000000         2.135718380397065E-105
   87.0219000000000        -6.461519956995632E-107
   87.2613000000000        -4.241581850477257E-105
   87.5007000000000        -1.091435537580385E-104
   87.7401000000000        -2.031439609442615E-104
   87.9795000000000        -3.205989006695147E-104
   88.2189000000000        -4.472657510668287E-104
   88.4583000000000        -5.535251315434502E-104
   88.6977000000000        -5.896685624155607E-104
   88.9371000000000        -4.830377350255953E-104
   89.1765000000000        -1.394734794300328E-104
   89.4159000000000         5.476207811412176E-104
   89.6553000000000         1.676699276749898E-103
   89.8947000000000         3.302117334153019E-103
   90.1341000000000         5.380147180265225E-103
   90.3735000000000         7.697328158292660E-103
   90.6129000000000         9.786971486432139E-103
   90.8523000000000         1.084801083157733E-102
   91.0917000000000         9.691687015117190E-103
   91.3311000000000         4.754954452796912E-103
   91.5705000000000        -5.767115921840389E-103
   91.8099000000000        -2.360814815533858E-102
   92.0493000000000        -4.987499051809503E-102
   92.2887000000000        -8.420657228934871E-102
   92.5281000000000        -1.236491066966727E-101
   92.7675000000000        -1.613318441644581E-101
   93.0069000000000        -1.851533023323605E-101
   93.2463000000000        -1.768570946281259E-101
   93.4857000000000        -1.120767738906148E-101
   93.7251000000000         3.787059816000046E-102
   93.9645000000000         3.015182611095012E-101
   94.2039000000000         6.991843853729213E-101
   94.4433000000000         1.230634028360518E-100
   94.6827000000000         1.858437855372759E-100
   94.9221000000000         2.488162463982098E-100
   95.1615000000000         2.948308233083122E-100
   95.4009000000000         2.975304512987022E-100
   95.6403000000000         2.211705191323380E-100
   95.8797000000000         2.285703180553762E-101
   96.1191000000000        -3.414896979794859E-100
   96.3585000000000        -9.061225280328268E-100
   96.5979000000000        -1.678412519220526E-099
   96.8373000000000        -2.615613342963683E-099
   97.0767000000000        -3.596864479570554E-099
   97.3161000000000        -4.394235449340277E-099
   97.5555000000000        -4.649817251701891E-099
   97.7949000000000        -3.869665072617514E-099
   98.0343000000000        -1.449229226676233E-099
   98.2737000000000         3.252213800348430E-099
   98.5131000000000         1.077019242161936E-098
   98.7525000000000         2.131278697180567E-098
   98.9919000000000         3.445423997822336E-098
   99.2313000000000         4.876080643505139E-098
   99.4707000000000         6.139534590575735E-098
   99.7101000000000         6.778775397476774E-098
   99.9495000000000         6.150661982184001E-098
   100.188900000000         3.451664140430373E-098
   100.428300000000        -2.195578225624495E-098
   100.667700000000        -1.157178493528464E-097
   100.907100000000        -2.508803115138144E-097
   101.146500000000        -4.240413524001627E-097
   101.385900000000        -6.195569161856579E-097
   101.625300000000        -8.044300380771398E-097
   101.864700000000        -9.238389238772386E-097
   102.104100000000        -8.989062226189505E-097
   102.343500000000        -6.289114104394654E-097
   102.582900000000        -6.249465391616910E-100
   102.822300000000         1.092411526882617E-096
   103.061700000000         2.718293956251247E-096
   103.301100000000         4.861869496455399E-096
   103.540500000000         7.368183838468946E-096
   103.779900000000         9.879958710292502E-096
   104.019300000000         1.178033543038617E-095
   104.258700000000         1.215879550365361E-095
   104.498100000000         9.825127447610067E-096
   104.737500000000         3.402032688484240E-096
   104.976900000000        -8.470817223890943E-096
   105.216300000000        -2.679272837269180E-095
   105.455700000000        -5.170360831826674E-095
   105.695100000000        -8.184451192565571E-095
   105.934500000000        -1.136337961925681E-094
   106.173900000000        -1.405752493391056E-094
   106.413300000000        -1.527871673889357E-094
   106.652700000000        -1.370182089852433E-094
   106.892100000000        -7.748137410558364E-095
   107.131500000000         4.213178835328285E-095
   107.370900000000         2.351295094197650E-094
   107.610300000000         5.065998795532257E-094
   107.849700000000         8.465757612297452E-094
   108.089100000000         1.222106042984751E-093
   108.328500000000         1.569363957754645E-093
   108.567900000000         1.787673219301489E-093
   108.807300000000         1.738140613565334E-093
   109.046700000000         1.250298159383437E-093
   109.286100000000         1.405502265181497E-094
   109.525500000000        -1.754012376561518E-093
   109.764900000000        -4.524084246273315E-093
   110.004300000000        -8.119112083128181E-093
   110.243700000000        -1.226514453063601E-092
   110.483100000000        -1.637984587635859E-092
   110.722500000000        -1.950231272920758E-092
   110.961900000000        -2.026341422985428E-092
   111.201300000000        -1.692979607076260E-092
   111.440700000000        -7.559328275768909E-093
   111.680100000000         9.695197581306660E-093
   111.919500000000         3.610726138130860E-092
   112.158900000000         7.171820207069920E-092
   112.398300000000         1.145323046224376E-091
   112.637700000000         1.596524795164162E-091
   112.877100000000         1.985121942369768E-091
   113.116500000000         2.184362493866167E-091
   113.355900000000         2.028363386369379E-091
   113.595300000000         1.323985124389575E-091
   113.834700000000        -1.237647528205579E-092
   114.074100000000        -2.469926086187313E-091
   114.313500000000        -5.770332899619089E-091
   114.552900000000        -9.907055574123600E-091
   114.792300000000        -1.450536525268502E-090
   115.031700000000        -1.885511522976396E-090
   115.271100000000        -2.185640388664736E-090
   115.510500000000        -2.201628417190982E-090
   115.749900000000        -1.752857253028790E-090
   115.989300000000        -6.470362845958661E-091
   116.228700000000         1.285592027765221E-090
   116.468100000000         4.141996240729650E-090
   116.707500000000         7.881096027800360E-090
   116.946900000000         1.224838976386805E-089
   117.186300000000         1.670045991023019E-089
   117.425700000000         2.034535534059574E-089
   117.665100000000         2.192102759056685E-089
   117.904500000000         1.983913209478456E-089
   118.143900000000         1.232389314127199E-089
   118.383300000000        -2.326744705820289E-090
   118.622700000000        -2.534012086669332E-089
   118.862100000000        -5.692947852700346E-089
   119.101500000000        -9.564748473957559E-089
   119.340900000000        -1.377045997922213E-088
   119.580300000000        -1.763735342355993E-088
   119.819700000000        -2.016536634327650E-088
   120.059100000000        -2.004162376365110E-088
   120.298500000000        -1.572795534518790E-088
   120.537900000000        -5.645642358254188E-089
   120.777300000000         1.152443531911350E-088
   121.016700000000         3.642134056778997E-088
   121.256100000000         6.848021378015413E-088
   121.495500000000         1.053526595120958E-087
   121.734900000000         1.423575004025179E-087
   121.974300000000         1.720906799052786E-087
   122.213700000000         1.843636688817498E-087
   122.453100000000         1.666688221273154E-087
   122.692500000000         1.053754531283241E-087
   122.931900000000        -1.217235238488300E-088
   123.171300000000        -1.945705259481647E-087
   123.410700000000        -4.423467273856266E-087
   123.650100000000        -7.433135412936159E-087
   123.889500000000        -1.067852950593225E-086
   124.128900000000        -1.365030953575100E-086
   124.368300000000        -1.560772723701904E-086
   124.607700000000        -1.559598299198190E-086
   124.847100000000        -1.251539331595850E-086
   125.086500000000        -5.257240969695004E-087
   125.325900000000         7.083806229401528E-087
   125.565300000000         2.492045644667780E-086
   125.804700000000         4.782138562609188E-086
   126.044100000000         7.413240068505547E-086
   126.283500000000         1.006290551259919E-085
   126.522900000000         1.222852561855345E-085
   126.762300000000         1.322654020268660E-085
   127.001700000000         1.222620498167095E-085
   127.241100000000         8.329970160371740E-086
   127.480500000000         7.099854772541595E-087
   127.719900000000        -1.119548161952729E-085
   127.959300000000        -2.743141959862615E-085
   128.198700000000        -4.724035932755775E-085
   128.438100000000        -6.877752791682476E-085
   128.677500000000        -8.888164913811994E-085
   128.916900000000        -1.029744356128800E-084
   129.156300000000        -1.051757549308699E-084
   129.395700000000        -8.872615544788476E-085
   129.635100000000        -4.679821558100524E-085
   129.874500000000         2.625277341480598E-085
   130.113900000000         1.332048472088290E-084
   130.353300000000         2.719429217296174E-084
   130.592700000000         4.332921165957180E-084
   130.832100000000         5.990440963887497E-084
   131.071500000000         7.406456370371947E-084
   131.310900000000         8.191366314730036E-084
   131.550300000000         7.869935638069868E-084
   131.789700000000         5.925161720958113E-084
   132.029100000000         1.872486561692702E-084
   132.268500000000        -4.633854432656895E-084
   132.507900000000        -1.366559750628510E-083
   132.747300000000        -2.486657751164984E-083
   132.986700000000        -3.729910982571925E-083
   133.226100000000        -4.931904503479678E-083
   133.465500000000        -5.851700330330934E-083
   133.704900000000        -6.177005547506620E-083
   133.944300000000        -5.545013905329531E-083
   134.183700000000        -3.583003937489117E-083
   134.423100000000         2.878999876398648E-085
   134.662500000000         5.472326097873666E-083
   134.901900000000         1.268936952947383E-082
   135.141300000000         2.127142789288039E-082
   135.380700000000         3.035815935231980E-082
   135.620100000000         3.856688206795269E-082
   135.859500000000         4.398138168939139E-082
   136.098900000000         4.423141458569853E-082
   136.338300000000         3.669339525730274E-082
   136.577700000000         1.883588766019437E-082
   136.817100000000        -1.128097991556691E-082
   137.056500000000        -5.436629317013585E-082
   137.295900000000        -1.091654754968804E-081
   137.535300000000        -1.717192480012622E-081
   137.774700000000        -2.347430217451942E-081
   138.014100000000        -2.872962642377102E-081
   138.253500000000        -3.149417748517968E-081
   138.492900000000        -3.006041039941347E-081
   138.732300000000        -2.263127423971547E-081