  -1.79550000000000         0.000000000000000E+000
  -1.55610000000000         0.000000000000000E+000
  -1.31670000000000         0.000000000000000E+000
  -1.07730000000000         0.000000000000000E+000
 -0.837900000000000         0.000000000000000E+000
 -0.598500000000000         0.000000000000000E+000
 -0.359100000000000         0.000000000000000E+000
 -0.119700000000000         0.000000000000000E+000
  0.119700000000000         0.000000000000000E+000
  0.359100000000000         0.000000000000000E+000
  0.598500000000000         0.000000000000000E+000
  0.837900000000000         0.000000000000000E+000
   1.07730000000000         0.000000000000000E+000
   1.31670000000000         0.000000000000000E+000
   1.55610000000000         0.000000000000000E+000
   1.79550000000000         0.000000000000000E+000
   2.03490000000000         0.000000000000000E+000
   2.27430000000000         0.000000000000000E+000
   2.51370000000000         0.000000000000000E+000
   2.75310000000000         0.000000000000000E+000
   2.99250000000000         0.000000000000000E+000
   3.23190000000000         0.000000000000000E+000
   3.47130000000000         0.000000000000000E+000
   3.71070000000000         0.000000000000000E+000
   3.95010000000000         0.000000000000000E+000
   4.18950000000000         0.000000000000000E+000
   4.42890000000000         0.000000000000000E+000
   4.66830000000000         0.000000000000000E+000
   4.90770000000000         0.000000000000000E+000
   5.14710000000000         0.000000000000000E+000
   5.38650000000000         0.000000000000000E+000
   5.62590000000000         0.000000000000000E+000
   5.86530000000000         0.000000000000000E+000
   6.10470000000000         0.000000000000000E+000
   6.34410000000000         0.000000000000000E+000
   6.58350000000000         0.000000000000000E+000
   6.82290000000000         0.000000000000000E+000
   7.06230000000000         0.000000000000000E+000
   7.30170000000000         0.000000000000000E+000
   7.54110000000000         0.000000000000000E+000
   7.78050000000000         0.000000000000000E+000
   8.01990000000000         0.000000000000000E+000
   8.25930000000000         0.000000000000000E+000
   8.49870000000000         0.000000000000000E+000
   8.73810000000000         0.000000000000000E+000
   8.97750000000000         0.000000000000000E+000
   9.21690000000000         0.000000000000000E+000
   9.45630000000000         0.000000000000000E+000
   9.69570000000000         0.000000000000000E+000
   9.93510000000000         0.000000000000000E+000
   10.1745000000000         0.000000000000000E+000
   10.4139000000000         0.000000000000000E+000
   10.6533000000000         0.000000000000000E+000
   10.8927000000000         0.000000000000000E+000
   11.1321000000000         0.000000000000000E+000
   11.3715000000000         0.000000000000000E+000
   11.6109000000000         0.000000000000000E+000
   11.8503000000000         0.000000000000000E+000
   12.0897000000000         0.000000000000000E+000
   12.3291000000000         0.000000000000000E+000
   12.5685000000000         0.000000000000000E+000
   12.8079000000000        -4.631364940924695E-237
   13.0473000000000        -2.551356903295584E-225
   13.2867000000000         5.861305709325455E-215
   13.5261000000000        -4.609184915511400E-211
   13.7655000000000        -3.411048901832017E-209
   14.0049000000000        -8.366567987993960E-208
   14.2443000000000         1.261307899170949E-206
   14.4837000000000         1.708419400627218E-204
   14.7231000000000         7.213344359213020E-203
   14.9625000000000         2.059276219523173E-201
   15.2019000000000         4.594227909091588E-200
   15.4413000000000         8.524924860797456E-199
   15.6807000000000         1.363258898489106E-197
   15.9201000000000         1.923220204775168E-196
   16.1595000000000         2.433955855356879E-195
   16.3989000000000         2.798508727138863E-194
   16.6383000000000         2.952472104402409E-193
   16.8777000000000         2.881167841870202E-192
   17.1171000000000         2.617789377168198E-191
   17.3565000000000         2.226743099242392E-190
   17.5959000000000         1.781506069949943E-189
   17.8353000000000         1.345852697193484E-188
   18.0747000000000         9.633051017525084E-188
   18.3141000000000         6.551502127169868E-187
   18.5535000000000         4.244284854837123E-186
   18.7929000000000         2.624666619344130E-185
   19.0323000000000         1.552130679191741E-184
   19.2717000000000         8.790516601942748E-184
   19.5111000000000         4.773673136500566E-183
   19.7505000000000         2.487899751061481E-182
   19.9899000000000         1.245094371057238E-181
   20.2293000000000         5.984681128351172E-181
   20.4687000000000         2.761964951923045E-180
   20.7081000000000         1.222688403189012E-179
   20.9475000000000         5.181994464412326E-179
   21.1869000000000         2.095399257983995E-178
   21.4263000000000         8.035489066106959E-178
   21.6657000000000         2.890864197748571E-177
   21.9051000000000         9.553104129768794E-177
   22.1445000000000         2.764294490671963E-176
   22.3839000000000         6.039625625667676E-176
   22.6233000000000         2.060402298773292E-176
   22.8627000000000        -8.322521895288268E-175
   23.1021000000000        -6.907803127237968E-174
   23.3415000000000        -4.087811845160860E-173
   23.5809000000000        -2.096958618699723E-172
   23.8203000000000        -9.886020729790540E-172
   24.0597000000000        -4.394114485070796E-171
   24.2991000000000        -1.866174555778533E-170
   24.5385000000000        -7.632122493719435E-170
   24.7779000000000        -3.020207504223381E-169
   25.0173000000000        -1.159977689566158E-168
   25.2567000000000        -4.332332635038698E-168
   25.4961000000000        -1.575301659618749E-167
   25.7355000000000        -5.580238766793537E-167
   25.9749000000000        -1.926151915967057E-166
   26.2143000000000        -6.477931581685809E-166
   26.4537000000000        -2.121892730128294E-165
   26.6931000000000        -6.764877583237734E-165
   26.9325000000000        -2.097081256166164E-164
   27.1719000000000        -6.312301245072951E-164
   27.4113000000000        -1.841393028906876E-163
   27.6507000000000        -5.191963019727705E-163
   27.8901000000000        -1.409546080617444E-162
   28.1295000000000        -3.663547459032313E-162
   28.3689000000000        -9.033397612510943E-162
   28.6083000000000        -2.080182072209787E-161
   28.8477000000000        -4.337234583625217E-161
   29.0871000000000        -7.588877131744398E-161
   29.3265000000000        -8.211275569064010E-161
   29.5659000000000         1.195358896961286E-160
   29.8053000000000         1.208109211022687E-159
   30.0447000000000         5.391751056222868E-159
   30.2841000000000         1.922135832030613E-158
   30.5235000000000         6.078344729149523E-158
   30.7629000000000         1.769356567398201E-157
   31.0023000000000         4.817644580564112E-157
   31.2417000000000         1.235171596193912E-156
   31.4811000000000         2.984327982926055E-156
   31.7205000000000         6.764255078166939E-156
   31.9599000000000         1.421167872306136E-155
   32.1993000000000         2.695095343337576E-155
   32.4387000000000         4.316654743688670E-155
   32.6781000000000         4.551919480708161E-155
   32.9175000000000        -3.435568196678551E-155
   33.1569000000000        -4.089306778995887E-154
   33.3963000000000        -1.657935332812291E-153
   33.6357000000000        -5.220663607500172E-153
   33.8751000000000        -1.438943733179364E-152
   34.1145000000000        -3.610139090385540E-152
   34.3539000000000        -8.364697948772454E-152
   34.5933000000000        -1.793507735636929E-151
   34.8327000000000        -3.527103523966385E-151
   35.0721000000000        -6.197294384556017E-151
   35.3115000000000        -9.057566221700856E-151
   35.5509000000000        -8.234096825653074E-151
   35.7903000000000         8.819879274169743E-151
   36.0297000000000         7.578345586054176E-150
   36.2691000000000         2.728770072361529E-149
   36.5085000000000         7.734448354122134E-149
   36.7479000000000         1.917892339649474E-148
   36.9873000000000         4.303536986514771E-148
   37.2267000000000         8.818277169927064E-148
   37.4661000000000         1.638329405447945E-147
   37.7055000000000         2.679141498387252E-147
   37.9449000000000         3.523829556342788E-147
   38.1843000000000         2.366103545079748E-147
   38.4237000000000        -5.846531337971814E-147
   38.6631000000000        -3.326382996680672E-146
   38.9025000000000        -1.061034079149758E-145
   39.1419000000000        -2.757619709708959E-145
   39.3813000000000        -6.332485433942711E-145
   39.6207000000000        -1.319935083873306E-144
   39.8601000000000        -2.511780573419664E-144
   40.0995000000000        -4.319332314914106E-144
   40.3389000000000        -6.477636462078832E-144
   40.5783000000000        -7.581411544380139E-144
   40.8177000000000        -3.441447612024953E-144
   41.0571000000000         1.607505376717452E-143
   41.2965000000000         7.247306876906527E-143
   41.5359000000000         2.067258355827125E-142
   41.7753000000000         4.887601897077734E-142
   42.0147000000000         1.022354151460891E-141
   42.2541000000000         1.928752228679914E-141
   42.4935000000000         3.270963881529626E-141
   42.7329000000000         4.842999887145697E-141
   42.9723000000000         5.689967275755923E-141
   43.2117000000000         3.150747787053198E-141
   43.4511000000000        -8.844357075774158E-141
   43.6905000000000        -4.244355856229177E-140
   43.9299000000000        -1.193796387484923E-139
   44.1693000000000        -2.741156932332621E-139
   44.4087000000000        -5.529616362675368E-139
   44.6481000000000        -1.000561938410862E-138
   44.8875000000000        -1.616471294839695E-138
   45.1269000000000        -2.251114432580354E-138
   45.3663000000000        -2.393099858124236E-138
   45.6057000000000        -7.845097308101735E-139
   45.8451000000000         5.195619796964025E-138
   46.0845000000000         2.037903874887871E-137
   46.3239000000000         5.269711099402189E-137
   46.5633000000000         1.134802229715358E-136
   46.8027000000000         2.156685907572001E-136
   47.0421000000000         3.669282078028925E-136
   47.2815000000000         5.523722120883172E-136
   47.5209000000000         6.986589521690462E-136
   47.7603000000000         6.086045177040957E-136
   47.9997000000000        -1.443321370307959E-136
   48.2391000000000        -2.363772489412295E-135
   48.4785000000000        -7.395432264580609E-135
   48.7179000000000        -1.722277634025853E-134
   48.9573000000000        -3.428752209204927E-134
   49.1967000000000        -6.062752160766981E-134
   49.4361000000000        -9.562572408923176E-134
   49.6755000000000        -1.312933367378784E-133
   49.9149000000000        -1.436893967289864E-133
   50.1543000000000        -7.911758641104623E-134
   50.3937000000000         1.652305930483556E-133
   50.6331000000000         7.633948429806860E-133
   50.8725000000000         1.975826828828060E-132
   51.1119000000000         4.135024645672612E-132
   51.3513000000000         7.557897484735608E-132
   51.5907000000000         1.231102081577111E-131
   51.8301000000000         1.771936985240136E-131
   52.0695000000000         2.148109698016711E-131
   52.3089000000000         1.826073229509709E-131
   52.5483000000000        -2.261463304500818E-132
   52.7877000000000        -5.761017540817647E-131
   53.0271000000000        -1.741085403213385E-130
   53.2665000000000        -3.858333068485274E-130
   53.5059000000000        -7.271798203086683E-130
   53.7453000000000        -1.212931959763591E-129
   53.9847000000000        -1.797160841958493E-129
   54.2241000000000        -2.300627282629963E-129
   54.4635000000000        -2.298029620109346E-129
   54.7029000000000        -9.656327507534089E-130
   54.9423000000000         3.087031510402634E-129
   55.1817000000000         1.193217560431574E-128
   55.4211000000000         2.823966951297612E-128
   55.6605000000000         5.473579242590630E-128
   55.8999000000000         9.280690007371018E-128
   56.1393000000000         1.397174668158188E-127
   56.3787000000000         1.838682717407946E-127
   56.6181000000000         1.977178470542343E-127
   56.8575000000000         1.286706220421400E-127
   57.0969000000000        -1.102709226582873E-127
   57.3363000000000        -6.456159725347789E-127
   57.5757000000000        -1.635655138889288E-126
   57.8151000000000        -3.235824061518168E-126
   58.0545000000000        -5.517256633835886E-126
   58.2939000000000        -8.314883044431679E-126
   58.5333000000000        -1.098452942789564E-125
   58.7727000000000        -1.206604767381722E-125
   59.0121000000000        -8.891973635291686E-126
   59.2515000000000         2.739865665963919E-126
   59.4909000000000         2.858784100953029E-125
   59.7303000000000         7.527604733171693E-125
   59.9697000000000         1.483115272873520E-124
   60.2091000000000         2.481202158607575E-124
   60.4485000000000         3.635112252586218E-124
   60.6879000000000         4.625044325717282E-124
   60.9273000000000         4.816920136081234E-124
   61.1667000000000         3.175303018170614E-124
   61.4061000000000        -1.737088561955472E-124
   61.6455000000000        -1.156490874072831E-123
   61.8849000000000        -2.762572074205450E-123
   62.1243000000000        -4.988459516696029E-123
   62.3637000000000        -7.535711701185441E-123
   62.6031000000000        -9.607219011094929E-123
   62.8425000000000        -9.715645129869740E-123
   63.0819000000000        -5.631066823815786E-123
   63.3213000000000         5.307999153008367E-123
   63.5607000000000         2.519138202990194E-122
   63.8001000000000         5.345118392496905E-122
   64.0395000000000         8.338106856558684E-122
   64.2789000000000         9.732787370727672E-122
   64.5183000000000         6.151948695461032E-122
   64.7577000000000        -7.685091657429593E-122
   64.9971000000000        -3.850861067525529E-121
   65.2365000000000        -9.244087480656517E-121
   65.4759000000000        -1.701298029464197E-120
   65.7153000000000        -2.576937883656645E-120
   65.9547000000000        -3.124361761583884E-120
   66.1941000000000        -2.436898667687864E-120
   66.4335000000000         1.076247244013249E-120
   66.6729000000000         9.812424454372454E-120
   66.9123000000000         2.682868980456284E-119
   67.1517000000000         5.511406947961274E-119
   67.3911000000000         9.583274127111475E-119
   67.6305000000000         1.449937963874530E-118
   67.8699000000000         1.880509867101093E-118
   68.1093000000000         1.922987418357532E-118
   68.3487000000000         9.785390249852077E-119
   68.5881000000000        -1.902059373656285E-118
   68.8275000000000        -8.030593576273163E-118
   69.0669000000000        -1.893072955803342E-117
   69.3063000000000        -3.587775362186055E-117
   69.5457000000000        -5.893512030532543E-117
   69.7851000000000        -8.527706003003302E-117
   70.0245000000000        -1.066452184018181E-116
   70.2639000000000        -1.059916259385180E-116
   70.5033000000000        -5.380166013069497E-117
   70.7427000000000         9.463189846413880E-117
   70.9821000000000         3.985270683209793E-116
   71.2215000000000         9.234926211765011E-116
   71.4609000000000         1.720191749888811E-115
   71.7003000000000         2.782641962478471E-115
   71.9397000000000         3.979068228976046E-115
   72.1791000000000         4.951434539665073E-115
   72.4185000000000         4.988542740686952E-115
   72.6579000000000         2.894830071474843E-115
   72.8973000000000        -3.094475543729619E-115
   73.1367000000000        -1.525999048357003E-114
   73.3761000000000        -3.606316545208453E-114
   73.6155000000000        -6.733343494446841E-114
   73.8549000000000        -1.087477370570391E-113
   74.0943000000000        -1.553940868921233E-113
   74.3337000000000        -1.943420094193557E-113
   74.5731000000000        -2.004558127188008E-113
   74.8125000000000        -1.322631666419626E-113
   75.0519000000000         7.040109635065573E-114
   75.2913000000000         4.840054751005777E-113
   75.5307000000000         1.189731998720013E-112
   75.7701000000000         2.246836279997463E-112
   76.0095000000000         3.644443872367322E-112
   76.2489000000000         5.226400350482249E-112
   76.4883000000000         6.588247785057925E-112
   76.7277000000000         6.955092763936526E-112
   76.9671000000000         5.066038996643783E-112
   77.2065000000000        -8.836567861045149E-113
   77.4459000000000        -1.315790584508057E-111
   77.6853000000000        -3.412992547976348E-111
   77.9247000000000        -6.551213310477724E-111
   78.1641000000000        -1.070016270948419E-110
   78.4035000000000        -1.542191599492158E-110
   78.6429000000000        -1.959508707456811E-110
   78.8823000000000        -2.109675801018296E-110
   79.1217000000000        -1.651384182028761E-110
   79.3611000000000        -1.019552337757368E-111
   79.6005000000000         3.136834882854668E-110
   79.8399000000000         8.684463875440192E-110
   80.0793000000000         1.698203124225861E-109
   80.3187000000000         2.795027835528966E-109
   80.5581000000000         4.048113121104801E-109
   80.7975000000000         5.177303947975031E-109
   81.0369000000000         5.658572288543303E-109
   81.2763000000000         4.659408883450316E-109
   81.5157000000000         1.016614803914941E-109
   81.7551000000000        -6.693436161888282E-109
   81.9945000000000        -1.992438827920257E-108
   82.2339000000000        -3.969010978034717E-108
   82.4733000000000        -6.578062045841562E-108
   82.7127000000000        -9.562304717953487E-108
   82.9521000000000        -1.228281553588560E-107
   83.1915000000000        -1.356089581224879E-107
   83.4309000000000        -1.154811914723421E-107
   83.6703000000000        -3.695458793544407E-108
   83.9097000000000         1.307294977200151E-107
   84.1491000000000         4.184355238108720E-107
   84.3885000000000         8.469982039890053E-107
   84.6279000000000         1.410750578032287E-106
   84.8673000000000         2.054161390577562E-106
   85.1067000000000         2.642775947260717E-106
   85.3461000000000         2.932639933965024E-106
   85.5855000000000         2.546773701825926E-106
   85.8249000000000         9.729149324247922E-107
   86.0643000000000        -2.397019553550374E-106
   86.3037000000000        -8.159975747838879E-106
   86.5431000000000        -1.669965926964726E-105
   86.7825000000000        -2.786696060552208E-105
   87.0219000000000        -4.053789810816283E-105
   87.2613000000000        -5.207864492275609E-105
   87.5007000000000        -5.780351435747565E-105
   87.7401000000000        -5.059135746264609E-105
   87.9795000000000        -2.092419857708035E-105
   88.2189000000000         4.228529226145081E-105
   88.4583000000000         1.496322030148297E-104
   88.6977000000000         3.074697468870018E-104
   88.9371000000000         5.121434509681492E-104
   89.1765000000000         7.422197492034763E-104
   89.4159000000000         9.493518828937131E-104
   89.6553000000000         1.049411385886925E-103
   89.8947000000000         9.168534429997267E-104
   90.1341000000000         3.868725318849602E-104
   90.3735000000000        -7.285334606049284E-104
   90.6129000000000        -2.603438515709160E-103
   90.8523000000000        -5.332913198657207E-103
   91.0917000000000        -8.835694061798546E-103
   91.3311000000000        -1.272639299821954E-102
   91.5705000000000        -1.616979072428917E-102
   91.8099000000000        -1.774584128787616E-102
   92.0493000000000        -1.537508397292830E-102
   92.2887000000000        -6.378078941613919E-103
   92.5281000000000         1.223552085054762E-102
   92.7675000000000         4.314075069047661E-102
   93.0069000000000         8.763660753608648E-102
   93.2463000000000         1.441009442893340E-101
   93.4857000000000         2.060127878979242E-101
   93.7251000000000         2.597644483635059E-101
   93.9645000000000         2.827317222242860E-101
   94.2039000000000         2.423814683388787E-101
   94.4433000000000         9.753406763468896E-102
   94.6827000000000        -1.968126349020880E-101
   94.9221000000000        -6.795753408847208E-101
   95.1615000000000        -1.367301690775293E-100
   95.4009000000000        -2.231010855363955E-100
   95.6403000000000        -3.167233085294848E-100
   95.8797000000000        -3.966857985465717E-100
   96.1191000000000        -4.288938625156107E-100
   96.3585000000000        -3.650927944522917E-100
   96.5979000000000        -1.451342851463837E-100
   96.8373000000000         2.955572133563373E-100
   97.0767000000000         1.011273266620811E-099
   97.3161000000000         2.022440156908947E-099
   97.5555000000000         3.282749989861730E-099
   97.7949000000000         4.638861135264132E-099
   98.0343000000000         5.788063476916036E-099
   98.2737000000000         6.244104896125022E-099
   98.5131000000000         5.327085180999461E-099
   98.7525000000000         2.199064530242221E-099
   98.9919000000000        -4.028754339747605E-099
   99.2313000000000        -1.409106329676901E-098
   99.4707000000000        -2.824607049575067E-098
   99.7101000000000        -4.583305703266660E-098
   99.9495000000000        -6.473791925443776E-098
   100.188900000000        -8.084123845900730E-098
   100.428300000000        -8.758506550432246E-098
   100.667700000000        -7.586620423445537E-098
   100.907100000000        -3.453354495480714E-098
   101.146500000000         4.818514773492477E-098
   101.385900000000         1.820048267707950E-097
   101.625300000000         3.704225093319595E-097
   101.864700000000         6.050648762468773E-097
   102.104100000000         8.589227280296630E-097
   102.343500000000         1.079426809187693E-096
   102.582900000000         1.183069883298851E-096
   102.822300000000         1.054135945295768E-096
   103.061700000000         5.509125499642556E-097
   103.301100000000        -4.767057969619567E-097
   103.540500000000        -2.154410257073773E-096
   103.779900000000        -4.532804801593877E-096
   104.019300000000        -7.518879677429791E-096
   104.258700000000        -1.079424545630443E-095
   104.498100000000        -1.373147707634464E-095
   104.737500000000        -1.532858840902359E-095
   104.976900000000        -1.419143551164020E-095
   105.216300000000        -8.603033893898128E-096
   105.455700000000         3.275371679835149E-096
   105.695100000000         2.302795677577466E-095
   105.934500000000         5.140234189431416E-095
   106.173900000000         8.752172481311383E-095
   106.413300000000         1.279421147943846E-094
   106.652700000000         1.656800978279364E-094
   106.892100000000         1.894317808245002E-094
   107.131500000000         1.833103841735104E-094
   107.370900000000         1.275300278432194E-094
   107.610300000000         5.273374544623422E-097
   107.849700000000        -2.169997960188366E-094
   108.089100000000        -5.357948104748007E-094
   108.328500000000        -9.494602387468765E-094
   108.567900000000        -1.424101145719171E-093
   108.807300000000        -1.887482664129381E-093
   109.046700000000        -2.219984230837119E-093
   109.286100000000        -2.250749792462725E-093
   109.525500000000        -1.763486753058468E-093
   109.764900000000        -5.170627997843728E-094
   110.004300000000         1.714014695734991E-093
   110.243700000000         5.075466766480530E-093
   110.483100000000         9.544769260100797E-093
   110.722500000000         1.482293227539221E-092
   110.961900000000         2.021881877923346E-092
   111.201300000000         2.454816040554711E-092
   111.440700000000         2.608059578703808E-092
   111.680100000000         2.257875930493375E-092
   111.919500000000         1.148089683800716E-092
   112.158900000000        -9.721150193571367E-093
   112.398300000000        -4.286812123499564E-092
   112.637700000000        -8.827122894907254E-092
   112.877100000000        -1.436382406974119E-091
   113.116500000000        -2.028961723349499E-091
   113.355900000000        -2.551122393695596E-091
   113.595300000000        -2.838214900047113E-091
   113.834700000000        -2.671742339316698E-091
   114.074100000000        -1.793939848877407E-091
   114.313500000000         5.947368229809653E-093
   114.552900000000         3.104182527136966E-091
   114.792300000000         7.427978149229176E-091
   115.031700000000         1.288971420596020E-090
   115.271100000000         1.900531300469802E-090
   115.510500000000         2.483799354719209E-090
   115.749900000000         2.891964536129075E-090
   115.989300000000         2.924010750122456E-090
   116.228700000000         2.334891185322674E-090
   116.468100000000         8.616857154168578E-091
   116.707500000000        -1.730106196629029E-090
   116.946900000000        -5.577831675762715E-090
   117.186300000000        -1.063167674197612E-089
   117.425700000000        -1.654987724069155E-089
   117.665100000000        -2.259278181421919E-089
   117.904500000000        -2.753790467218459E-089
   118.143900000000        -2.964695862094241E-089
   118.383300000000        -2.672336708923943E-089
   118.622700000000        -1.630251044405421E-089
   118.862100000000         3.986060605698690E-090
   119.101500000000         3.585837884521183E-089
   119.340900000000         7.961821388447283E-089
   119.580300000000         1.332441128571464E-088
   119.819700000000         1.914216691619991E-088
   120.059100000000         2.446920600356904E-088
   120.298500000000         2.789640795147137E-088
   120.537900000000         2.757057932513963E-088
   120.777300000000         2.131749372401447E-088
   121.016700000000         6.904034203679739E-089
   121.256100000000        -1.753373146305958E-088
   121.495500000000        -5.288851689187692E-088
   121.734900000000        -9.832908677266887E-088
   121.974300000000        -1.504645471415562E-087
   122.213700000000        -2.025493562864871E-087
   122.453100000000        -2.439153352228208E-087
   122.692500000000        -2.598770640621671E-087
   122.931900000000        -2.324010188053476E-087
   123.171300000000        -1.418385776010949E-087
   123.410700000000         3.002261080872793E-088
   123.650100000000         2.954572867705148E-087
   123.889500000000         6.549381678268759E-087
   124.128900000000         1.090318805276990E-086
   124.368300000000         1.557895760481495E-086
   124.607700000000         1.982672065243729E-086
   124.847100000000         2.255641731557947E-086
   125.086500000000         2.236325695121922E-086
   125.325900000000         1.762983155769528E-086
   125.565300000000         6.727410438535995E-087
   125.804700000000        -1.166841249298800E-086
   126.044100000000        -3.814678802895352E-086
   126.283500000000        -7.203669100590885E-086
   126.522900000000        -1.108394772220131E-085
   126.762300000000        -1.497068943340374E-085
   127.001700000000        -1.810916365130954E-085
   127.241100000000        -1.947330022565005E-085
   127.480500000000        -1.781631485737664E-085
   127.719900000000        -1.179186206136988E-085
   127.959300000000        -1.604688686126806E-087
   128.198700000000         1.791256974319359E-085
   128.438100000000         4.247601671572944E-085
   128.677500000000         7.235688913786263E-085
   128.916900000000         1.047245386566174E-084
   129.156300000000         1.347382781345346E-084
   129.395700000000         1.553907858894382E-084
   129.635100000000         1.576817246141958E-084
   129.874500000000         1.312642502514800E-084
   130.113900000000         6.569243739639022E-085
   130.353300000000        -4.764910459153537E-085
   130.592700000000        -2.129389187633290E-084
   130.832100000000        -4.267723934094611E-084
   131.071500000000        -6.747861007131884E-084
   131.310900000000        -9.285693948611228E-084
   131.550300000000        -1.143595604570837E-083
   131.789700000000        -1.259094983784371E-083
   132.029100000000        -1.200906389321468E-083
   132.268500000000        -8.883241483300063E-084
   132.507900000000        -2.457349447920201E-084
   132.747300000000         7.806450201397099E-084
   132.986700000000         2.201414035639372E-083
   133.226100000000         3.959599623384311E-083
   133.465500000000         5.906213116591529E-083
   133.704900000000         7.780245643755887E-083
   133.944300000000         9.199085452224603E-083
   134.183700000000         9.666459007331472E-083
   134.423100000000         8.605376750036693E-083
   134.662500000000         5.422752735215935E-083
   134.901900000000        -3.900847356124392E-084
   135.141300000000        -9.121240394544606E-083
   135.380700000000        -2.067337520917495E-082
   135.620100000000        -3.438577370601748E-082
   135.859500000000        -4.886928926430282E-082
   136.098900000000        -6.189075662068670E-082
   136.338300000000        -7.035274916350399E-082
   136.577700000000        -7.042010192658137E-082
   136.817100000000        -5.784354926035098E-082
   137.056500000000        -2.852005893449201E-082
   137.295900000000         2.069384816526150E-082
   137.535300000000         9.093726230654850E-082
   137.774700000000         1.801424893113140E-081
   138.014100000000         2.818139795546515E-081
   138.253500000000         3.839991739137451E-081
   138.492900000000         4.687306923162387E-081
   138.732300000000         5.122714136555119E-081