  -1.79550000000000         0.000000000000000E+000
  -1.55610000000000         0.000000000000000E+000
  -1.31670000000000         0.000000000000000E+000
  -1.07730000000000         0.000000000000000E+000
 -0.837900000000000         0.000000000000000E+000
 -0.598500000000000         0.000000000000000E+000
 -0.359100000000000         0.000000000000000E+000
 -0.119700000000000         0.000000000000000E+000
  0.119700000000000         0.000000000000000E+000
  0.359100000000000         0.000000000000000E+000
  0.598500000000000         0.000000000000000E+000
  0.837900000000000         0.000000000000000E+000
   1.07730000000000         0.000000000000000E+000
   1.31670000000000         0.000000000000000E+000
   1.55610000000000         0.000000000000000E+000
   1.79550000000000         0.000000000000000E+000
   2.03490000000000         0.000000000000000E+000
   2.27430000000000         0.000000000000000E+000
   2.51370000000000         0.000000000000000E+000
   2.75310000000000         0.000000000000000E+000
   2.99250000000000         0.000000000000000E+000
   3.23190000000000         0.000000000000000E+000
   3.47130000000000         0.000000000000000E+000
   3.71070000000000         0.000000000000000E+000
   3.95010000000000         0.000000000000000E+000
   4.18950000000000         0.000000000000000E+000
   4.42890000000000         0.000000000000000E+000
   4.66830000000000         0.000000000000000E+000
   4.90770000000000         0.000000000000000E+000
   5.14710000000000         0.000000000000000E+000
   5.38650000000000         0.000000000000000E+000
   5.62590000000000         0.000000000000000E+000
   5.86530000000000         0.000000000000000E+000
   6.10470000000000         0.000000000000000E+000
   6.34410000000000         0.000000000000000E+000
   6.58350000000000         0.000000000000000E+000
   6.82290000000000         0.000000000000000E+000
   7.06230000000000         0.000000000000000E+000
   7.30170000000000         0.000000000000000E+000
   7.54110000000000         0.000000000000000E+000
   7.78050000000000         0.000000000000000E+000
   8.01990000000000         0.000000000000000E+000
   8.25930000000000         0.000000000000000E+000
   8.49870000000000         0.000000000000000E+000
   8.73810000000000         0.000000000000000E+000
   8.97750000000000         0.000000000000000E+000
   9.21690000000000         0.000000000000000E+000
   9.45630000000000        -7.447126408867841E-203
   9.69570000000000         3.052286841547161E-174
   9.93510000000000         1.872883663768030E-167
   10.1745000000000        -2.940370892165977E-166
   10.4139000000000        -1.164050424144055E-163
   10.6533000000000        -4.938861760596597E-162
   10.8927000000000        -5.497679011968147E-161
   11.1321000000000         2.686702940003940E-159
   11.3715000000000         1.543645361468543E-157
   11.6109000000000         4.500712685384892E-156
   11.8503000000000         9.471554543858344E-155
   12.0897000000000         1.593896769659174E-153
   12.3291000000000         2.254422429725080E-152
   12.5685000000000         2.761936369773656E-151
   12.8079000000000         2.991382583846280E-150
   13.0473000000000         2.907316939537566E-149
   13.2867000000000         2.564734529084299E-148
   13.5261000000000         2.072338400110313E-147
   13.7655000000000         1.545072643294023E-146
   14.0049000000000         1.069445529936534E-145
   14.2443000000000         6.907417255606815E-145
   14.4837000000000         4.181233639086855E-144
   14.7231000000000         2.380812063748322E-143
   14.9625000000000         1.279172954217324E-142
   15.2019000000000         6.501837657445580E-142
   15.4413000000000         3.132768759033896E-141
   15.6807000000000         1.432918878337526E-140
   15.9201000000000         6.225809024172290E-140
   16.1595000000000         2.568402252671192E-139
   16.3989000000000         1.003970444347773E-138
   16.6383000000000         3.700607972744917E-138
   16.8777000000000         1.273547483964182E-137
   17.1171000000000         4.008397529476665E-137
   17.3565000000000         1.099057795283625E-136
   17.5959000000000         2.248565439430975E-136
   17.8353000000000         4.728226175032789E-137
   18.0747000000000        -2.979514544472411E-135
   18.3141000000000        -2.294155197850895E-134
   18.5535000000000        -1.272698608802716E-133
   18.7929000000000        -6.121706726617686E-133
   19.0323000000000        -2.700523680067762E-132
   19.2717000000000        -1.119705224998969E-131
   19.5111000000000        -4.419962428460834E-131
   19.7505000000000        -1.673640539609588E-130
   19.9899000000000        -6.108167136639969E-130
   20.2293000000000        -2.155617215306255E-129
   20.4687000000000        -7.373167714865806E-129
   20.7081000000000        -2.448630271087316E-128
   20.9475000000000        -7.906582772489909E-128
   21.1869000000000        -2.485197327914909E-127
   21.4263000000000        -7.611744749303593E-127
   21.6657000000000        -2.273846322282150E-126
   21.9051000000000        -6.630803148278754E-126
   22.1445000000000        -1.889104870265519E-125
   22.3839000000000        -5.262309797182897E-125
   22.6233000000000        -1.434384257850075E-124
   22.8627000000000        -3.828747729682574E-124
   23.1021000000000        -1.001564987213382E-123
   23.3415000000000        -2.569545185581966E-123
   23.5809000000000        -6.469992514310196E-123
   23.8203000000000        -1.600019348022145E-122
   24.0597000000000        -3.888716731371374E-122
   24.2991000000000        -9.294103923200209E-122
   24.5385000000000        -2.185523938265096E-121
   24.7779000000000        -5.058636691493052E-121
   25.0173000000000        -1.152842886869793E-120
   25.2567000000000        -2.587194460265102E-120
   25.4961000000000        -5.717385785922072E-120
   25.7355000000000        -1.243869224465993E-119
   25.9749000000000        -2.662932785569280E-119
   26.2143000000000        -5.605828555810554E-119
   26.4537000000000        -1.159226855206247E-118
   26.6931000000000        -2.351503489993274E-118
   26.9325000000000        -4.670666886855719E-118
   27.1719000000000        -9.062030555205611E-118
   27.4113000000000        -1.711972850855735E-117
   27.6507000000000        -3.135409249661292E-117
   27.8901000000000        -5.532375623720963E-117
   28.1295000000000        -9.316565006403865E-117
   28.3689000000000        -1.474297616024070E-116
   28.6083000000000        -2.129614669787509E-116
   28.8477000000000        -2.626818621217640E-116
   29.0871000000000        -2.186368713898922E-116
   29.3265000000000         1.000582693745249E-116
   29.5659000000000         1.057267935681628E-115
   29.8053000000000         3.292250683206501E-115
   30.0447000000000         7.744418435542086E-115
   30.2841000000000         1.536749230510073E-114
   30.5235000000000         2.592854293571272E-114
   30.7629000000000         3.456524221164412E-114
   31.0023000000000         2.347436469887401E-114
   31.2417000000000        -5.596290255235443E-114
   31.4811000000000        -3.180276012793677E-113
   31.7205000000000        -1.004117859591527E-112
   31.9599000000000        -2.578540127293978E-112
   32.1993000000000        -5.851335989120109E-112
   32.4387000000000        -1.207371867745874E-111
   32.6781000000000        -2.283704347788597E-111
   32.9175000000000        -3.936574226602138E-111
   33.1569000000000        -6.034693498874119E-111
   33.3963000000000        -7.670131503333000E-111
   33.6357000000000        -6.065991416352795E-111
   33.8751000000000         5.459047504800704E-111
   34.1145000000000         4.087351519228204E-110
   34.3539000000000         1.263052824668468E-109
   34.5933000000000         3.055507319341764E-109
   34.8327000000000         6.428532119140440E-109
   35.0721000000000         1.214317274621526E-108
   35.3115000000000         2.069729354029557E-108
   35.5509000000000         3.131281304185175E-108
   35.7903000000000         3.975258785940334E-108
   36.0297000000000         3.423093937307553E-108
   36.2691000000000        -1.132832406975460E-108
   36.5085000000000        -1.468544315763796E-107
   36.7479000000000        -4.567531366182722E-107
   36.9873000000000        -1.065306447751194E-106
   37.2267000000000        -2.121708008658554E-106
   37.4661000000000        -3.734573498726105E-106
   37.7055000000000        -5.803873977678781E-106
   37.9449000000000        -7.672665641149902E-106
   38.1843000000000        -7.504010449186230E-106
   38.4237000000000        -1.309828262521621E-106
   38.6631000000000         1.832340890024033E-105
   38.9025000000000         6.345347325419569E-105
   39.1419000000000         1.509350172751187E-104
   39.3813000000000         2.993401192506322E-104
   39.6207000000000         5.187118177901361E-104
   39.8601000000000         7.869563395804608E-104
   40.0995000000000         1.004626020831974E-103
   40.3389000000000         9.198141273290632E-104
   40.5783000000000         2.056392068593463E-105
   40.8177000000000        -2.590056781431052E-103
   41.0571000000000        -8.281846149523273E-103
   41.2965000000000        -1.882182872434047E-102
   41.5359000000000        -3.589418056293188E-102
   41.7753000000000        -5.982053831163966E-102
   42.0147000000000        -8.692406913048366E-102
   42.2541000000000        -1.049049361271416E-101
   42.4935000000000        -8.579875222316210E-102
   42.7329000000000         2.308742933232879E-102
   42.9723000000000         3.079158368382423E-101
   43.2117000000000         8.906728773181973E-101
   43.4511000000000         1.913017074083522E-100
   43.6905000000000         3.481037932773998E-100
   43.9299000000000         5.540796584254452E-100
   44.1693000000000         7.647961830068590E-100
   44.4087000000000         8.600005163218725E-100
   44.6481000000000         5.931658885250344E-100
   44.8875000000000        -4.643099191269080E-100
   45.1269000000000        -2.959698027323104E-099
   45.3663000000000        -7.724790280538303E-099
   45.6057000000000        -1.558101354504396E-098
   45.8451000000000        -2.684868391541763E-098
   46.0845000000000        -4.038942586712877E-098
   46.3239000000000        -5.201871122187775E-098
   46.5633000000000        -5.223811633586577E-098
   46.8027000000000        -2.354598495671991E-098
   47.0421000000000         6.179340090944873E-098
   47.2815000000000         2.415981967077404E-097
   47.5209000000000         5.578103728051226E-097
   47.7603000000000         1.039518147141151E-096
   47.9997000000000         1.668246750977973E-096
   48.2391000000000         2.318827754991966E-096
   48.4785000000000         2.672868927358313E-096
   48.7179000000000         2.112469678302107E-096
   48.9573000000000        -3.766229108225882E-097
   49.1967000000000        -6.227000896822790E-096
   49.4361000000000        -1.711933772168006E-095
   49.6755000000000        -3.444064764177775E-095
   49.9149000000000        -5.813936838630030E-095
   50.1543000000000        -8.474337121278315E-095
   50.3937000000000        -1.044253947644643E-094
   50.6331000000000        -9.734227940519269E-095
   50.8725000000000        -3.016531947996167E-095
   51.1119000000000         1.451277315530043E-094
   51.3513000000000         4.864876864880795E-094
   51.5907000000000         1.045409828786666E-093
   51.8301000000000         1.831659854056063E-093
   52.0695000000000         2.751774171511025E-093
   52.3089000000000         3.517603254096728E-093
   52.5483000000000         3.531466728199657E-093
   52.7877000000000         1.775095993724580E-093
   53.0271000000000        -3.236407825026542E-093
   53.2665000000000        -1.332640286779244E-092
   53.5059000000000        -3.018911236617155E-092
   53.7453000000000        -5.437082040743161E-092
   53.9847000000000        -8.348623586723582E-092
   54.2241000000000        -1.095578122558048E-091
   54.4635000000000        -1.156529671380202E-091
   54.7029000000000        -7.256367350028219E-092
   54.9423000000000         6.279355565144255E-092
   55.1817000000000         3.442732361996896E-091
   55.4211000000000         8.241895995173787E-091
   55.6605000000000         1.526026893230424E-090
   55.8999000000000         2.396296649772517E-090
   56.1393000000000         3.232228117776367E-090
   56.3787000000000         3.589290001731799E-090
   56.6181000000000         2.687022528921807E-090
   56.8575000000000        -6.446669280376091E-091
   57.0969000000000        -7.903505401319891E-090
   57.3363000000000        -2.062327506286807E-089
   57.5757000000000        -3.970563189650084E-089
   57.8151000000000        -6.422241783096868E-089
   58.0545000000000        -8.959225840907697E-089
   58.2939000000000        -1.052034607770205E-088
   58.5333000000000        -9.189160800204815E-089
   58.7727000000000        -2.023284398545239E-089
   59.0121000000000         1.486091158740853E-088
   59.2515000000000         4.568240204129259E-088
   59.4909000000000         9.352007727758690E-088
   59.7303000000000         1.575935143596881E-087
   59.9697000000000         2.290328223200849E-087
   60.2091000000000         2.852168166455230E-087
   60.4485000000000         2.834683469304507E-087
   60.6879000000000         1.560771395078427E-087
   60.9273000000000        -1.896953543877582E-087
   61.1667000000000        -8.609351757683930E-087
   61.4061000000000        -1.950090587707116E-086
   61.6455000000000        -3.479149290553695E-086
   61.8849000000000        -5.310087007132232E-086
   62.1243000000000        -7.021010446066021E-086
   62.3637000000000        -7.760928846250157E-086
   62.6031000000000        -6.119121984319392E-086
   62.8425000000000        -7.859884011559987E-088
   63.0819000000000         1.283506158522308E-085
   63.3213000000000         3.505603866875211E-085
   63.5607000000000         6.795225947451294E-085
   63.8001000000000         1.101090414950938E-084
   64.0395000000000         1.548605974787385E-084
   64.2789000000000         1.872382101739727E-084
   64.5183000000000         1.809112875324262E-084
   64.7577000000000         9.630762309747886E-085
   64.9971000000000        -1.181135785290137E-084
   65.2365000000000        -5.186177482279841E-084
   65.4759000000000        -1.149523674744341E-083
   65.7153000000000        -2.013669640699111E-083
   65.9547000000000        -3.027923662153036E-083
   66.1941000000000        -3.965137398003250E-083
   66.4335000000000        -4.390443969137713E-083
   66.6729000000000        -3.609900866192840E-083
   66.9123000000000        -6.630300559791360E-084
   67.1517000000000         5.593756011400354E-083
   67.3911000000000         1.625231539036808E-082
   67.6305000000000         3.190113691380550E-082
   67.8699000000000         5.190554416182760E-082
   68.1093000000000         7.341458908640159E-082
   68.3487000000000         9.018237106037340E-082
   68.5881000000000         9.144287961691603E-082
   68.8275000000000         6.128960173283985E-082
   69.0669000000000        -2.073282267601801E-082
   69.3063000000000        -1.768657661457219E-081
   69.5457000000000        -4.250874293375698E-081
   69.7851000000000        -7.687456027404580E-081
   70.0245000000000        -1.181357929847257E-080
   70.2639000000000        -1.587240989889362E-080
   70.5033000000000        -1.840670128983221E-080
   70.7427000000000        -1.709278868868427E-080
   70.9821000000000        -8.712476410431293E-081
   71.2215000000000         1.060024871769707E-080
   71.4609000000000         4.466738087902375E-080
   71.7003000000000         9.595268274399980E-080
   71.9397000000000         1.634932195231616E-079
   72.1791000000000         2.400741374303336E-079
   72.4185000000000         3.088896492226426E-079
   72.6579000000000         3.403171860772250E-079
   72.8973000000000         2.899513709755831E-079
   73.1367000000000         9.965086715767542E-080
   73.3761000000000        -2.960748297915465E-079
   73.6155000000000        -9.556810232988739E-079
   73.8549000000000        -1.905775376920310E-078
   74.0943000000000        -3.104637233170223E-078
   74.3337000000000        -4.395428086009907E-078
   74.5731000000000        -5.454842555622991E-078
   74.8125000000000        -5.749273015977603E-078
   75.0519000000000        -4.518482871450667E-078
   75.2913000000000        -8.151961733275828E-079
   75.5307000000000         6.364257780157164E-078
   75.7701000000000         1.782150257151926E-077
   76.0095000000000         3.374136393112703E-077
   76.2489000000000         5.311592959861445E-077
   76.4883000000000         7.304701178912398E-077
   76.7277000000000         8.803550374879661E-077
   76.9671000000000         8.945862697700032E-077
   77.2065000000000         6.554369153841887E-077
   77.4459000000000         2.250039027317996E-078
   77.6853000000000        -1.144646360039144E-076
   77.9247000000000        -2.945407822509744E-076
   78.1641000000000        -5.375973071260466E-076
   78.4035000000000        -8.247085463908753E-076
   78.6429000000000        -1.108957729845847E-075
   78.8823000000000        -1.306511157301978E-075
   79.1217000000000        -1.291173178504878E-075
   79.3611000000000        -8.966968112910235E-076
   79.6005000000000         6.775859599681681E-077
   79.8399000000000         1.783179224946277E-075
   80.0793000000000         4.362258888178732E-075
   80.3187000000000         7.764855840750777E-075
   80.5581000000000         1.169088310733473E-074
   80.7975000000000         1.546310233276581E-074
   81.0369000000000         1.792447515424255E-074
   81.2763000000000         1.738922591803956E-074
   81.5157000000000         1.170132557066768E-074
   81.7551000000000        -1.535208257076635E-075
   81.9945000000000        -2.448871889420702E-074
   82.2339000000000        -5.834536160850281E-074
   82.4733000000000        -1.022586321184059E-073
   82.7127000000000        -1.520666492850046E-073
   82.9521000000000        -1.989490216232505E-073
   83.1915000000000        -2.283354479962300E-073
   83.4309000000000        -2.195364587326166E-073
   83.6703000000000        -1.467138949775990E-073
   83.9097000000000         1.810159581835041E-074
   84.1491000000000         2.992704551892921E-073
   84.3885000000000         7.086356002804630E-073
   84.6279000000000         1.233505434540198E-072
   84.8673000000000         1.822431886755004E-072
   85.1067000000000         2.370883269857883E-072
   85.3461000000000         2.710397427060579E-072
   85.5855000000000         2.606394454826500E-072
   85.8249000000000         1.771198897302536E-072
   86.0643000000000        -1.005295876801556E-073
   86.3037000000000        -3.267481252159251E-072
   86.5431000000000        -7.844857403489634E-072
   86.7825000000000        -1.367702229399020E-071
   87.0219000000000        -2.019060148563711E-071
   87.2613000000000        -2.625117220283037E-071
   87.5007000000000        -3.006126217168078E-071
   87.7401000000000        -2.915230357149544E-071
   87.9795000000000        -2.053505064338147E-071
   88.2189000000000        -1.076863767513392E-072
   88.4583000000000         3.183593183818086E-071
   88.6977000000000         7.932332441061770E-071
   88.9371000000000         1.397547589558752E-070
   89.1765000000000         2.073276918516387E-070
   89.4159000000000         2.707143077278541E-070
   89.6553000000000         3.121424443824416E-070
   89.8947000000000         3.074078823894785E-070
   90.1341000000000         2.274116199393705E-070
   90.3735000000000         4.183304055861246E-071
   90.6129000000000        -2.745655548188819E-070
   90.8523000000000        -7.328112622093606E-070
   91.0917000000000        -1.318115576641788E-069
   91.3311000000000        -1.976928719493764E-069
   91.5705000000000        -2.604806052841760E-069
   91.8099000000000        -3.038383865105776E-069
   92.0493000000000        -3.055849440496309E-069
   92.2887000000000        -2.391036985471949E-069
   92.5281000000000        -7.663098947001604E-070
   92.7675000000000         2.051737619175746E-069
   93.0069000000000         6.172447591120172E-069
   93.2463000000000         1.148047272996893E-068
   93.4857000000000         1.752437597904218E-068
   93.7251000000000         2.341288157047678E-068
   93.9645000000000         2.774647989211375E-068
   94.2039000000000         2.862067232566039E-068
   94.4433000000000         2.374272115410372E-068
   94.6827000000000         1.070335729025171E-068
   94.9221000000000        -1.256489047673994E-068
   95.1615000000000        -4.713351234748711E-068
   95.4009000000000        -9.225618101595261E-068
   95.6403000000000        -1.444603186983006E-067
   95.8797000000000        -1.966987022569700E-067
   96.1191000000000        -2.377790441639761E-067
   96.3585000000000        -2.523543376432286E-067
   96.5979000000000        -2.217975325137411E-067
   96.8373000000000        -1.262785240928366E-067
   97.0767000000000         5.171526742699365E-068
   97.3161000000000         3.223445633359556E-067
   97.5555000000000         6.820815365845169E-067
   97.7949000000000         1.106675585970484E-066
   98.0343000000000         1.544510186089986E-066
   98.2737000000000         1.911961294380712E-066
   98.5131000000000         2.092839002245254E-066
   98.7525000000000         1.944288453774537E-066
   98.9919000000000         1.311486154235533E-066
   99.2313000000000         5.292128181374102E-068
   99.4707000000000        -1.923161017474582E-066
   99.7101000000000        -4.612562908670582E-066
   99.9495000000000        -7.863354809289028E-066
   100.188900000000        -1.132607108581997E-065
   100.428300000000        -1.441708476066769E-065
   100.667700000000        -1.630966772983250E-065
   100.907100000000        -1.596934721597190E-065
   101.146500000000        -1.225002064790331E-065
   101.385900000000        -4.063743182615039E-066
   101.625300000000         9.370899470854336E-066
   101.864700000000         2.821007705730976E-065
   102.104100000000         5.162224379031517E-065
   102.343500000000         7.743102363502721E-065
   102.582900000000         1.018369467441721E-064
   102.822300000000         1.193138741939255E-064
   103.061700000000         1.227907931118818E-064
   103.301100000000         1.042302825261044E-064
   103.540500000000         5.569403339408062E-065
   103.779900000000        -2.906338349536571E-065
   104.019300000000        -1.525133329268434E-064
   104.258700000000        -3.109406236938955E-064
   104.498100000000        -4.919985039204516E-064
   104.737500000000        -6.726859731990184E-064
   104.976900000000        -8.183480818440913E-064
   105.216300000000        -8.834024162085039E-064
   105.455700000000        -8.145132391006703E-064
   105.695100000000        -5.568240699541167E-064
   105.934500000000        -6.357816480164323E-065
   106.173900000000         6.910248710630919E-064
   106.413300000000         1.696574549607161E-063
   106.652700000000         2.890495854388000E-063
   106.892100000000         4.144051188254466E-063
   107.131500000000         5.253869445776379E-063
   107.370900000000         5.943260722423948E-063
   107.610300000000         5.877794453244967E-063
   107.849700000000         4.699107925698417E-063
   108.089100000000         2.079421695832884E-063
   108.328500000000        -2.203415462798766E-063
   108.567900000000        -8.174400658153808E-063
   108.807300000000        -1.556236075980678E-062
   109.046700000000        -2.370803817302852E-062
   109.286100000000        -3.149940826111465E-062
   109.525500000000        -3.735878838867126E-062
   109.764900000000        -3.930830209359619E-062
   110.004300000000        -3.513835993362577E-062
   110.243700000000        -2.269657015136765E-062
   110.483100000000        -3.007735202698505E-064
   110.722500000000         3.274075297452194E-062
   110.961900000000         7.554587617904504E-062
   111.201300000000         1.250872794522177E-061
   111.440700000000         1.757405915746664E-061
   111.680100000000         2.190866702758739E-061
   111.919500000000         2.441183710449336E-061
   112.158900000000         2.379980717236409E-061
   112.398300000000         1.874804538857753E-061
   112.637700000000         8.104893114787355E-062
   112.877100000000        -8.828980618562747E-062
   113.116500000000        -3.197487084342562E-061
   113.355900000000        -6.014037289701964E-061
   113.595300000000        -9.072780012940893E-061
   113.834700000000        -1.195567928405784E-060
   114.074100000000        -1.408821131666417E-060
   114.313500000000        -1.476891849618428E-060
   114.552900000000        -1.323378964771600E-060
   114.792300000000        -8.759577844644581E-061
   115.031700000000        -8.052542546801983E-062
   115.271100000000         1.081608457634692E-060
   115.510500000000         2.575104418107898E-060
   115.749900000000         4.293104535218585E-060
   115.989300000000         6.044325789348859E-060
   116.228700000000         7.548880547958340E-060
   116.468100000000         8.447249719001781E-060
   116.707500000000         8.326484083577300E-060
   116.946900000000         6.766524945685480E-060
   117.186300000000         3.407369372322170E-060
   117.425700000000        -1.965384563387071E-060
   117.665100000000        -9.323178907160446E-060
   117.904500000000        -1.829659258464086E-059
   118.143900000000        -2.809292885711825E-059
   118.383300000000        -3.744938940623173E-059
   118.622700000000        -4.464432479128149E-059
   118.862100000000        -4.758870295694590E-059
   119.101500000000        -4.401579303094325E-059
   119.340900000000        -3.177826913638170E-059
   119.580300000000        -9.248070780165358E-060
   119.819700000000         2.420435191127633E-059
   120.059100000000         6.769720545838851E-059
   120.298500000000         1.183606961850304E-058
   120.537900000000         1.709885282113745E-058
   120.777300000000         2.179256938419022E-058
   121.016700000000         2.493057755106233E-058
   121.256100000000         2.537397844450543E-058
   121.495500000000         2.195264857063042E-058
   121.734900000000         1.363981624819140E-058
   121.974300000000        -2.264523044293205E-060
   122.213700000000        -1.969161349784808E-058
   122.453100000000        -4.393102108868801E-058
   122.692500000000        -7.103386367951430E-058
   122.931900000000        -9.787374073365170E-058
   123.171300000000        -1.201203957531624E-057
   123.410700000000        -1.324460456895761E-057
   123.650100000000        -1.289698043229070E-057
   123.889500000000        -1.039630611795198E-057
   124.128900000000        -5.280650037337670E-058
   124.368300000000         2.685362768833224E-058
   124.607700000000         1.338537333186416E-057
   124.847100000000         2.623241388854254E-057
   125.086500000000         4.007728038272437E-057
   125.325900000000         5.316886521396610E-057
   125.565300000000         6.319252017456384E-057
   125.804700000000         6.741034607239937E-057
   126.044100000000         6.292060996358724E-057
   126.283500000000         4.704161057766384E-057
   126.522900000000         1.780813814069390E-057
   126.762300000000        -2.545312769296846E-057
   127.001700000000        -8.152774337638140E-057
   127.241100000000        -1.467807307742070E-056
   127.480500000000        -2.147921893573197E-056
   127.719900000000        -2.762802590749931E-056
   127.959300000000        -3.194310194133544E-056
   128.198700000000        -3.307375248699495E-056
   128.438100000000        -2.964107837984013E-056
   128.677500000000        -2.043619567232309E-056
   128.916900000000        -4.666813654519818E-057
   129.156300000000         1.776716457821818E-056
   129.395700000000         4.599989691593637E-056
   129.635100000000         7.796971331568261E-056
   129.874500000000         1.102839542819954E-055
   130.113900000000         1.382338628858221E-055
   130.353300000000         1.560126119923061E-055
   130.592700000000         1.571784977082617E-055
   130.832100000000         1.353839255372300E-055
   131.071500000000         8.535850375878752E-056
   131.310900000000         4.092222436130200E-057
   131.550300000000        -1.078849567364806E-055
   131.789700000000        -2.452829612316589E-055
   132.029100000000        -3.970946082108878E-055
   132.268500000000        -5.461401724845878E-055
   132.507900000000        -6.693636769396888E-055
   132.747300000000        -7.391097167001558E-055
   132.986700000000        -7.255464711281353E-055
   133.226100000000        -6.002899425825036E-055
   133.465500000000        -3.411257965096322E-055
   133.704900000000         6.247517199372683E-056
   133.944300000000         6.035790919200891E-055
   134.183700000000         1.252509544661462E-054
   134.423100000000         1.953026725485325E-054
   134.662500000000         2.621053430069609E-054
   134.901900000000         3.147048456870387E-054
   135.141300000000         3.402981663182142E-054
   135.380700000000         3.254524946582957E-054
   135.620100000000         2.578521376846845E-054
   135.859500000000         1.285037088808813E-054
   136.098900000000        -6.576232386503608E-055
   136.338300000000        -3.197568367933325E-054
   136.577700000000        -6.177252131061222E-054
   136.817100000000        -9.319090948685447E-054
   137.056500000000        -1.222359675703454E-053
   137.295900000000        -1.438471385883224E-053
   137.535300000000        -1.522616513733393E-053
   137.774700000000        -1.416085778933786E-053
   138.014100000000        -1.067272493198833E-053
   138.253500000000        -4.416860943652080E-054
   138.492900000000         4.670329730750201E-054
   138.732300000000         1.626361266895952E-053