  -1.79550000000000         0.000000000000000E+000
  -1.55610000000000         0.000000000000000E+000
  -1.31670000000000         0.000000000000000E+000
  -1.07730000000000         0.000000000000000E+000
 -0.837900000000000         0.000000000000000E+000
 -0.598500000000000         0.000000000000000E+000
 -0.359100000000000         0.000000000000000E+000
 -0.119700000000000         0.000000000000000E+000
  0.119700000000000         0.000000000000000E+000
  0.359100000000000         0.000000000000000E+000
  0.598500000000000         0.000000000000000E+000
  0.837900000000000         0.000000000000000E+000
   1.07730000000000         0.000000000000000E+000
   1.31670000000000         0.000000000000000E+000
   1.55610000000000         0.000000000000000E+000
   1.79550000000000         0.000000000000000E+000
   2.03490000000000         0.000000000000000E+000
   2.27430000000000         0.000000000000000E+000
   2.51370000000000         0.000000000000000E+000
   2.75310000000000         0.000000000000000E+000
   2.99250000000000         0.000000000000000E+000
   3.23190000000000         0.000000000000000E+000
   3.47130000000000         0.000000000000000E+000
   3.71070000000000         0.000000000000000E+000
   3.95010000000000         0.000000000000000E+000
   4.18950000000000         0.000000000000000E+000
   4.42890000000000         0.000000000000000E+000
   4.66830000000000         0.000000000000000E+000
   4.90770000000000         0.000000000000000E+000
   5.14710000000000         0.000000000000000E+000
   5.38650000000000         0.000000000000000E+000
   5.62590000000000         0.000000000000000E+000
   5.86530000000000         0.000000000000000E+000
   6.10470000000000         0.000000000000000E+000
   6.34410000000000         0.000000000000000E+000
   6.58350000000000         0.000000000000000E+000
   6.82290000000000         0.000000000000000E+000
   7.06230000000000         0.000000000000000E+000
   7.30170000000000         0.000000000000000E+000
   7.54110000000000         0.000000000000000E+000
   7.78050000000000         0.000000000000000E+000
   8.01990000000000         0.000000000000000E+000
   8.25930000000000         0.000000000000000E+000
   8.49870000000000         0.000000000000000E+000
   8.73810000000000         0.000000000000000E+000
   8.97750000000000         0.000000000000000E+000
   9.21690000000000         0.000000000000000E+000
   9.45630000000000        -1.327579397450564E-202
   9.69570000000000         1.197351792297406E-173
   9.93510000000000        -1.074105677707592E-166
   10.1745000000000        -1.569746877541515E-165
   10.4139000000000         3.432619503044475E-163
   10.6533000000000         1.804647331424984E-161
   10.8927000000000         3.441951999106602E-160
   11.1321000000000        -1.497238458933827E-159
   11.3715000000000        -2.720231710201100E-157
   11.6109000000000        -8.903214357994677E-156
   11.8503000000000        -1.912217048324554E-154
   12.0897000000000        -3.182549792965419E-153
   12.3291000000000        -4.383898179061437E-152
   12.5685000000000        -5.180636367854024E-151
   12.8079000000000        -5.374017901826725E-150
   13.0473000000000        -4.972542100589939E-149
   13.2867000000000        -4.153339864737033E-148
   13.5261000000000        -3.160563035907216E-147
   13.7655000000000        -2.207452341916163E-146
   14.0049000000000        -1.423781007259563E-145
   14.2443000000000        -8.525772894270325E-145
   14.4837000000000        -4.763329809022277E-144
   14.7231000000000        -2.495558050276900E-143
   14.9625000000000        -1.233163760879029E-142
   15.2019000000000        -5.789973526075198E-142
   15.4413000000000        -2.609038114350494E-141
   15.6807000000000        -1.143670313680898E-140
   15.9201000000000        -4.959782662827756E-140
   16.1595000000000        -2.165944933598531E-139
   16.3989000000000        -9.651740892665687E-139
   16.6383000000000        -4.404009921481925E-138
   16.8777000000000        -2.042905912258114E-137
   17.1171000000000        -9.504826803159063E-137
   17.3565000000000        -4.373743210834054E-136
   17.5959000000000        -1.968819988091047E-135
   17.8353000000000        -8.608061494567590E-135
   18.0747000000000        -3.641319607288694E-134
   18.3141000000000        -1.487850082404486E-133
   18.5535000000000        -5.871191157330286E-133
   18.7929000000000        -2.239000885291469E-132
   19.0323000000000        -8.261324868302754E-132
   19.2717000000000        -2.953454849895544E-131
   19.5111000000000        -1.024621295757110E-130
   19.7505000000000        -3.454825037639503E-130
   19.9899000000000        -1.133910654753947E-129
   20.2293000000000        -3.627815942153770E-129
   20.4687000000000        -1.132909548223364E-128
   20.7081000000000        -3.457249559761434E-128
   20.9475000000000        -1.031984704606017E-127
   21.1869000000000        -3.015465355304204E-127
   21.4263000000000        -8.629971763237426E-127
   21.6657000000000        -2.419779473388627E-126
   21.9051000000000        -6.648072577508634E-126
   22.1445000000000        -1.789464847467728E-125
   22.3839000000000        -4.717743137282658E-125
   22.6233000000000        -1.217701774615754E-124
   22.8627000000000        -3.075427667569776E-124
   23.1021000000000        -7.595516103516901E-124
   23.3415000000000        -1.833201756411181E-123
   23.5809000000000        -4.320999130744800E-123
   23.8203000000000        -9.941036662886471E-123
   24.0597000000000        -2.231398508755635E-122
   24.2991000000000        -4.886252017655481E-122
   24.5385000000000        -1.044255050889704E-121
   24.7779000000000        -2.180795898897493E-121
   25.0173000000000        -4.461977151552504E-121
   25.2567000000000        -8.985443140432091E-121
   25.4961000000000        -1.794060980624267E-120
   25.7355000000000        -3.589050708078675E-120
   25.9749000000000        -7.287899799482392E-120
   26.2143000000000        -1.521458640205889E-119
   26.4537000000000        -3.292433527961976E-119
   26.6931000000000        -7.384867489081502E-119
   26.9325000000000        -1.702537649017077E-118
   27.1719000000000        -3.982077992637133E-118
   27.4113000000000        -9.323630294116875E-118
   27.6507000000000        -2.161485297183980E-117
   27.8901000000000        -4.922143599134977E-117
   28.1295000000000        -1.095071473986312E-116
   28.3689000000000        -2.371507466245119E-116
   28.6083000000000        -4.985714374083018E-116
   28.8477000000000        -1.015111025049788E-115
   29.0871000000000        -1.996306702412770E-115
   29.3265000000000        -3.778505606911044E-115
   29.5659000000000        -6.846454912690784E-115
   29.8053000000000        -1.177287300488124E-114
   30.0447000000000        -1.891865117962511E-114
   30.2841000000000        -2.755301519467416E-114
   30.5235000000000        -3.371845247308531E-114
   30.7629000000000        -2.561090452372540E-114
   31.0023000000000         2.555677877698039E-114
   31.2417000000000         1.821412648748160E-113
   31.4811000000000         5.673881356070091E-113
   31.7205000000000         1.404755227178658E-112
   31.9599000000000         3.061960186871586E-112
   32.1993000000000         6.068917478624900E-112
   32.4387000000000         1.102488602827342E-111
   32.6781000000000         1.820179393795587E-111
   32.9175000000000         2.645613595944828E-111
   33.1569000000000         3.075434151584116E-111
   33.3963000000000         1.721276402138791E-111
   33.6357000000000        -4.579635502286497E-111
   33.8751000000000        -2.217538106278821E-110
   34.1145000000000        -6.248228755871722E-110
   34.3539000000000        -1.437340396968116E-109
   34.5933000000000        -2.906738791913002E-109
   34.8327000000000        -5.276124482055276E-109
   35.0721000000000        -8.555841982653616E-109
   35.3115000000000        -1.197134726136300E-108
   35.5509000000000        -1.283218555388377E-108
   35.7903000000000        -4.495051855567806E-109
   36.0297000000000         2.685631729424974E-108
   36.2691000000000         1.064971230717635E-107
   36.5085000000000         2.752428326651822E-107
   36.7479000000000         5.894777781124067E-107
   36.9873000000000         1.108380793589999E-106
   37.2267000000000         1.851477487845809E-106
   37.4661000000000         2.698151942470563E-106
   37.7055000000000         3.188071070966090E-106
   37.9449000000000         2.175175440476307E-106
   38.1843000000000        -2.694250764177970E-106
   38.4237000000000        -1.563235431467735E-105
   38.6631000000000        -4.324905512310676E-105
   38.9025000000000        -9.434665482590869E-105
   39.1419000000000        -1.776483909710483E-104
   39.3813000000000        -2.950966146223393E-104
   39.6207000000000        -4.270435812011973E-104
   39.8601000000000        -5.045163615893392E-104
   40.0995000000000        -3.639082321373482E-104
   40.3389000000000         3.167463549851456E-104
   40.5783000000000         2.089290953969473E-103
   40.8177000000000         5.778996380471385E-103
   41.0571000000000         1.241812805244892E-102
   41.2965000000000         2.291388395111177E-102
   41.5359000000000         3.719518101105496E-102
   41.7753000000000         5.247747048542073E-102
   42.0147000000000         6.023482381138474E-102
   42.2541000000000         4.160339238537562E-102
   42.4935000000000        -3.850937821138968E-102
   42.7329000000000        -2.370163729706840E-101
   42.9723000000000        -6.338077248746663E-101
   43.2117000000000        -1.320139563055863E-100
   43.4511000000000        -2.359968372240452E-100
   43.6905000000000        -3.703084305158521E-100
   43.9299000000000        -5.023937718790017E-100
   44.1693000000000        -5.463198807032451E-100
   44.4087000000000        -3.271562181089544E-100
   44.6481000000000         4.585539138017812E-100
   44.8875000000000         2.268521689047785E-099
   45.1269000000000         5.688927827027134E-099
   45.3663000000000         1.129043856266866E-098
   45.6057000000000         1.926472475029527E-098
   45.8451000000000         2.871182894424366E-098
   46.0845000000000         3.645318140246557E-098
   46.3239000000000         3.533024986531208E-098
   46.5633000000000         1.218817350836417E-098
   46.8027000000000        -5.376831874876914E-098
   47.0421000000000        -1.907313639666633E-097
   47.2815000000000        -4.294445694492686E-097
   47.5209000000000        -7.896104143146721E-097
   47.7603000000000        -1.252220766846746E-096
   47.9997000000000        -1.712589029418656E-096
   48.2391000000000        -1.912107009490484E-096
   48.4785000000000        -1.355883616778265E-096
   48.7179000000000         7.581396407029332E-097
   48.9573000000000         5.542166548525724E-096
   49.1967000000000         1.425339929166407E-095
   49.4361000000000         2.780974258682236E-095
   49.6755000000000         4.579588382458716E-095
   49.9149000000000         6.477940353420105E-095
   50.1543000000000         7.588117536341700E-095
   50.3937000000000         6.187655589252240E-095
   50.6331000000000        -5.246634108791895E-096
   50.8725000000000        -1.642917996132957E-094
   51.1119000000000        -4.589855495769411E-094
   51.3513000000000        -9.211957951173796E-094
   51.5907000000000        -1.537083822724790E-093
   51.8301000000000        -2.190716403309968E-093
   52.0695000000000        -2.584225791152123E-093
   52.3089000000000        -2.144927149916214E-093
   52.5483000000000         4.893298752125535E-095
   52.7877000000000         5.258702618970285E-093
   53.0271000000000         1.488267197705888E-092
   53.2665000000000         2.990409642607362E-092
   53.5059000000000         4.980602012910669E-092
   53.7453000000000         7.080000950635854E-092
   53.9847000000000         8.336754140491444E-092
   54.2241000000000         6.946648128376813E-092
   54.4635000000000         3.954858202620269E-094
   54.7029000000000        -1.627146016365373E-091
   54.9423000000000        -4.625582980532947E-091
   55.1817000000000        -9.289751452232133E-091
   55.4211000000000        -1.546797098747558E-090
   55.6605000000000        -2.204169947254248E-090
   55.8999000000000        -2.621777701780022E-090
   56.1393000000000        -2.273401748233085E-090
   56.3787000000000        -3.258555043975113E-091
   56.6181000000000         4.347448563730422E-090
   56.8575000000000         1.299213054671659E-089
   57.0969000000000         2.651839374372851E-089
   57.3363000000000         4.463226867401610E-089
   57.5757000000000         6.444883504774394E-089
   57.8151000000000         7.860104743396526E-089
   58.0545000000000         7.311284215949776E-089
   58.2939000000000         2.574608280820070E-089
   58.5333000000000        -9.382260651815755E-089
   58.7727000000000        -3.198383068780642E-088
   59.0121000000000        -6.793888265257275E-088
   59.2515000000000        -1.171125110507434E-087
   59.4909000000000        -1.731208688713147E-087
   59.7303000000000        -2.186633970147507E-087
   59.9697000000000        -2.201933536529268E-087
   60.2091000000000        -1.235324220673955E-087
   60.4485000000000         1.465002952079251E-087
   60.6879000000000         6.775652383554622E-087
   60.9273000000000         1.545747808866606E-086
   61.1667000000000         2.768452217324106E-086
   61.4061000000000         4.228092583249467E-086
   61.6455000000000         5.566005764434436E-086
   61.8849000000000         6.058138377298718E-086
   62.1243000000000         4.504914451848217E-086
   62.3637000000000        -8.018316721683121E-087
   62.6031000000000        -1.193401773721319E-085
   62.8425000000000        -3.086591243529213E-085
   63.0819000000000        -5.853566965979319E-085
   63.3213000000000        -9.328984742596522E-085
   63.5607000000000        -1.286714192818263E-084
   63.8001000000000        -1.507373489627899E-084
   64.0395000000000        -1.354852276099708E-084
   64.2789000000000        -4.755035994918942E-085
   64.5183000000000         1.579280000653435E-084
   64.7577000000000         5.276092844682857E-084
   64.9971000000000         1.093246731020954E-083
   65.2365000000000         1.842995476249416E-083
   65.4759000000000         2.679324442857099E-083
   65.7153000000000         3.365875794040141E-083
   65.9547000000000         3.472344803928349E-083
   66.1941000000000         2.336616082609605E-083
   66.4335000000000        -9.234003589687543E-084
   66.6729000000000        -7.301474385884718E-083
   66.9123000000000        -1.764041326428280E-082
   67.1517000000000        -3.215660903994980E-082
   67.3911000000000        -4.971403229222316E-082
   67.6305000000000        -6.686535477042671E-082
   67.8699000000000        -7.678177926693904E-082
   68.1093000000000        -6.835492702744767E-082
   68.3487000000000        -2.597120455102942E-082
   68.5881000000000         6.929367419866316E-082
   68.8275000000000         2.360950097958731E-081
   69.0669000000000         4.858086721449867E-081
   69.3063000000000         8.112598488921143E-081
   69.5457000000000         1.171077834601527E-080
   69.7851000000000         1.471003066153603E-080
   70.0245000000000         1.545808993862534E-080
   70.2639000000000         1.148758766221294E-080
   70.5033000000000        -4.057837456554256E-082
   70.7427000000000        -2.375522544755345E-080
   70.9821000000000        -6.151560310169162E-080
   71.2215000000000        -1.145013751073754E-079
   71.4609000000000        -1.790931435062899E-079
   71.7003000000000        -2.443136012126531E-079
   71.9397000000000        -2.886782028474273E-079
   72.1791000000000        -2.776701577428453E-079
   72.4185000000000        -1.632504120117850E-079
   72.6579000000000         1.125906928604235E-079
   72.8973000000000         6.077677957115503E-079
   73.1367000000000         1.360980892097716E-078
   73.3761000000000         2.361702551233707E-078
   73.6155000000000         3.509345228245138E-078
   73.8549000000000         4.565239980982669E-078
   74.0943000000000         5.106540023466639E-078
   74.3337000000000         4.498470438469747E-078
   74.5731000000000         1.909717006934516E-078
   74.8125000000000        -3.596560199669596E-078
   75.0519000000000        -1.285958435734868E-077
   75.2913000000000        -2.627319477872273E-077
   75.5307000000000        -4.327847224400148E-077
   75.7701000000000        -6.171862297896567E-077
   76.0095000000000        -7.713884905482213E-077
   76.2489000000000        -8.219994829692677E-077
   76.4883000000000        -6.647994192545856E-077
   76.7277000000000        -1.704700121871762E-077
   76.9671000000000         7.973086600753267E-077
   77.2065000000000         2.346649533603242E-076
   77.4459000000000         4.501653950901198E-076
   77.6853000000000         7.125842732251513E-076
   77.9247000000000         9.830682868199850E-076
   78.1641000000000         1.188418318586713E-075
   78.4035000000000         1.214648847900593E-075
   78.6429000000000         9.072935322189080E-076
   78.8823000000000         8.374335144119227E-077
   79.1217000000000        -1.436417778011467E-075
   79.3611000000000        -3.777629799002722E-075
   79.6005000000000        -6.928157082683161E-075
   79.8399000000000        -1.063575331692125E-074
   80.0793000000000        -1.429010901244413E-074
   80.3187000000000        -1.681515493244617E-074
   80.5581000000000        -1.660919824673807E-074
   80.7975000000000        -1.158640104061833E-074
   81.0369000000000         6.146049405261825E-076
   81.2763000000000         2.218599144773775E-074
   81.5157000000000         5.441449467199626E-074
   81.7551000000000         9.663725456786241E-074
   81.9945000000000         1.449457313561505E-073
   82.2339000000000         1.908041994600502E-073
   82.4733000000000         2.198955810959153E-073
   82.7127000000000         2.116756576129041E-073
   82.9521000000000         1.402773809393140E-073
   83.1915000000000        -2.248867469175847E-074
   83.4309000000000        -3.013121611679649E-073
   83.6703000000000        -7.082424759156347E-073
   83.9097000000000        -1.230257970642908E-072
   84.1491000000000        -1.814463471645652E-072
   84.3885000000000        -2.353114060188315E-072
   84.6279000000000        -2.672267464605738E-072
   84.8673000000000        -2.529603841732227E-072
   85.1067000000000        -1.628459153240524E-072
   85.3461000000000         3.441532710420558E-073
   85.5855000000000         3.648534391859099E-072
   85.8249000000000         8.388418491277691E-072
   86.0643000000000         1.437458081033651E-071
   86.3037000000000         2.096821160051933E-071
   86.5431000000000         2.692988073827602E-071
   86.7825000000000         3.031610520748321E-071
   87.0219000000000         2.848204586131651E-071
   87.2613000000000         1.826176208806931E-071
   87.5007000000000        -3.598895166898819E-072
   87.7401000000000        -3.969431305813495E-071
   87.9795000000000        -9.087017320377061E-071
   88.2189000000000        -1.548347343445841E-070
   88.4583000000000        -2.246126174683417E-070
   88.6977000000000        -2.871157104567440E-070
   88.9371000000000        -3.222572753416353E-070
   89.1765000000000        -3.031813184373797E-070
   89.4159000000000        -1.982807432965020E-070
   89.6553000000000         2.431835199033392E-071
   89.8947000000000         3.892858532883566E-070
   90.1341000000000         9.034921321968293E-070
   90.3735000000000         1.542808118248711E-069
   90.6129000000000         2.237772589962459E-069
   90.8523000000000         2.860800288155180E-069
   91.0917000000000         3.218928678112291E-069
   91.3311000000000         3.057311079659123E-069
   91.5705000000000         2.079403935876013E-069
   91.8099000000000        -1.039726416493282E-071
   92.0493000000000        -3.437573976289171E-069
   92.2887000000000        -8.261279606420245E-069
   92.5281000000000        -1.425659941419566E-068
   92.7675000000000        -2.078909118488713E-068
   93.0069000000000        -2.670563925532605E-068
   93.2463000000000        -3.027654958905220E-068
   93.4857000000000        -2.923330235924672E-068
   93.7251000000000        -2.095145810879632E-068
   93.9645000000000        -2.825106465046550E-069
   94.2039000000000         2.713619667559446E-068
   94.4433000000000         6.948863619311979E-068
   94.6827000000000         1.223642258043028E-067
   94.9221000000000         1.804287698492814E-067
   95.1615000000000         2.339884504653704E-067
   95.4009000000000         2.685307088936390E-067
   95.6403000000000         2.650561621456000E-067
   95.8797000000000         2.015918338139068E-067
   96.1191000000000         5.624303549214707E-068
   96.3585000000000        -1.879889880269138E-067
   96.5979000000000        -5.366509854801855E-067
   96.8373000000000        -9.759642362109263E-067
   97.0767000000000        -1.464580860203485E-066
   97.3161000000000        -1.926536215500481E-066
   97.5555000000000        -2.247594372917605E-066
   97.7949000000000        -2.277696544835858E-066
   98.0343000000000        -1.842441803708882E-066
   98.2737000000000        -7.662457321987836E-067
   98.5131000000000         1.091181809081141E-066
   98.7525000000000         3.785307240424721E-066
   98.9919000000000         7.227364083443288E-066
   99.2313000000000         1.112206727124002E-065
   99.4707000000000         1.491391044943106E-065
   99.7101000000000         1.775799101847007E-065
   99.9495000000000         1.853489943374500E-065
   100.188900000000         1.593067763867727E-065
   100.428300000000         8.600752286920453E-066
   100.667700000000        -4.570389955081822E-066
   100.907100000000        -2.411540374221813E-065
   101.146500000000        -4.955797308758614E-065
   101.385900000000        -7.896264450577371E-065
   101.625300000000        -1.085394507489109E-064
   101.864700000000        -1.324128266889043E-064
   102.104100000000        -1.426888434611054E-064
   102.343500000000        -1.299650118502312E-064
   102.582900000000        -8.441334122752458E-065
   102.822300000000         2.479582688184962E-066
   103.061700000000         1.355197781400952E-064
   103.301100000000         3.128972090490784E-064
   103.540500000000         5.230717162344093E-064
   103.779900000000         7.419646700206507E-064
   104.019300000000         9.311692982984070E-064
   104.258700000000         1.038056177247702E-063
   104.498100000000         9.987240049101411E-064
   104.737500000000         7.446698190498046E-064
   104.976900000000         2.137672490020977E-064
   105.216300000000        -6.344025196431667E-064
   105.455700000000        -1.799646966633738E-063
   105.695100000000        -3.220549407478274E-063
   105.934500000000        -4.755271725742503E-063
   106.173900000000        -6.168178201195929E-063
   106.413300000000        -7.127749574940994E-063
   106.652700000000        -7.221791829446039E-063
   106.892100000000        -5.995591089728015E-063
   107.131500000000        -3.017060762158410E-063
   107.370900000000         2.030230062854043E-063
   107.610300000000         9.230114304788284E-063
   107.849700000000         1.830338870255428E-062
   108.089100000000         2.848188536425911E-062
   108.328500000000         3.841289374713812E-062
   108.567900000000         4.612649909903152E-062
   108.807300000000         4.910223023010897E-062
   109.046700000000         4.447025153354008E-062
   109.286100000000         2.937405975387216E-062
   109.525500000000         1.504455164763623E-063
   109.764900000000        -4.021252966673896E-062
   110.004300000000        -9.482764022717132E-062
   110.243700000000        -1.585779747466304E-061
   110.483100000000        -2.242378811652355E-061
   110.722500000000        -2.807961048157222E-061
   110.961900000000        -3.136704953810267E-061
   111.201300000000        -3.056715658667376E-061
   111.440700000000        -2.388877198306451E-061
   111.680100000000        -9.757749552891096E-062
   111.919500000000         1.279886736009469E-061
   112.158900000000         4.369921497711368E-061
   112.398300000000         8.133313102283410E-061
   112.637700000000         1.221445372986730E-060
   112.877100000000         1.603696877485905E-060
   113.116500000000         1.880486262513497E-060
   113.355900000000         1.954313851986603E-060
   113.595300000000         1.718849048531942E-060
   113.834700000000         1.073653910861146E-060
   114.074100000000        -5.550177334925010E-062
   114.313500000000        -1.691809636504939E-060
   114.552900000000        -3.780421609477585E-060
   114.792300000000        -6.163039824351417E-060
   115.031700000000        -8.559235933874125E-060
   115.271100000000        -1.056071896487424E-059
   115.510500000000        -1.164523833692784E-059
   115.749900000000        -1.121631704368032E-059
   115.989300000000        -8.673232033944325E-060
   116.228700000000        -3.512350911037477E-060
   116.468100000000         4.543986350567088E-060
   116.707500000000         1.540122416924775E-059
   116.946900000000         2.844651555866297E-059
   117.186300000000         4.242781428740857E-059
   117.425700000000         5.538950871134397E-059
   117.665100000000         6.469969645643275E-059
   117.904500000000         6.720353213583217E-059
   118.143900000000         5.953029691690909E-059
   118.383300000000         3.856753718458915E-059
   118.622700000000         2.093089901887382E-060
   118.862100000000        -5.047455979034508E-059
   119.101500000000        -1.172834937131197E-058
   119.340900000000        -1.933277512295702E-058
   119.580300000000        -2.699490352529661E-058
   119.819700000000        -3.347360277167754E-058
   120.059100000000        -3.720029538002582E-058
   120.298500000000        -3.640078602875657E-058
   120.537900000000        -2.930147166837702E-058
   120.777300000000        -1.442069790466325E-058
   121.016700000000         9.067661322355648E-059
   121.256100000000         4.092842636098828E-058
   121.495500000000         7.946624623319450E-058
   121.734900000000         1.212014897343990E-057
   121.974300000000         1.607039283342750E-057
   122.213700000000         1.906750067322609E-057
   122.453100000000         2.023656198271179E-057
   122.692500000000         1.863968231575994E-057
   122.931900000000         1.340127869331787E-057
   123.171300000000         3.873737929007803E-058
   123.410700000000        -1.016704216742010E-057
   123.650100000000        -2.831564537164972E-057
   123.889500000000        -4.934941802147921E-057
   124.128900000000        -7.109619643491612E-057
   124.368300000000        -9.040040497920874E-057
   124.607700000000        -1.032316387724008E-056
   124.847100000000        -1.049745006132560E-056
   125.086500000000        -9.092490992600878E-057
   125.325900000000        -5.699532625627834E-057
   125.565300000000        -5.993820256531006E-059
   125.804700000000         7.835318757075268E-057
   126.044100000000         1.764644043805493E-056
   126.283500000000         2.860149035548039E-056
   126.522900000000         3.944811935780866E-056
   126.762300000000         4.846135135783589E-056
   127.001700000000         5.352777139067656E-056
   127.241100000000         5.232236601371482E-056
   127.480500000000         4.258610397838116E-056
   127.719900000000         2.249984475305393E-056
   127.959300000000        -8.866375454975132E-057
   128.198700000000        -5.106917097231890E-056
   128.438100000000        -1.018338986991127E-055
   128.677500000000        -1.567031934788825E-055
   128.916900000000        -2.088859936586630E-055
   129.156300000000        -2.494057714006360E-055
   129.395700000000        -2.676380179343614E-055
   129.635100000000        -2.523014130411885E-055
   129.874500000000        -1.929221507748115E-055
   130.113900000000        -8.172628216134188E-056
   130.353300000000         8.416678184378209E-056
   130.592700000000         3.004692127154572E-055
   130.832100000000         5.536815667426610E-055
   131.071500000000         8.196759489348622E-055
   131.310900000000         1.063351500360582E-054
   131.550300000000         1.239811389784697E-054
   131.789700000000         1.297447320625145E-054
   132.029100000000         1.183173223324894E-054
   132.268500000000         8.498163145837343E-055
   132.507900000000         2.653535614923662E-055
   132.747300000000        -5.767088276440958E-055
   132.986700000000        -1.646943107464076E-054
   133.226100000000        -2.871140036320722E-054
   133.465500000000        -4.124861735762036E-054
   133.704900000000        -5.233464718253385E-054
   133.944300000000        -5.979585055804434E-054
   134.183700000000        -6.119692128579003E-054
   134.423100000000        -5.410553373629043E-054
   134.662500000000        -3.645286943807432E-054
   134.901900000000        -6.971406318664659E-055
   135.141300000000         3.432682033044288E-054
   135.380700000000         8.568754510424210E-054
   135.620100000000         1.432411461243962E-053
   135.859500000000         2.008064047505093E-053
   136.098900000000         2.499637531591588E-053
   136.338300000000         2.804840669564760E-053
   136.577700000000         2.811774541790512E-053
   136.817100000000         2.411876415733734E-053
   137.056500000000         1.517010577302209E-053
   137.295900000000         7.967625169603343E-055
   137.535300000000        -1.885522917392455E-053
   137.774700000000        -4.281849032053884E-053
   138.014100000000        -6.915288830543618E-053
   138.253500000000        -9.488255384518632E-053
   138.492900000000        -1.160618829207414E-052
   138.732300000000        -1.280064871895948E-052