  -1.79550000000000         0.000000000000000E+000
  -1.55610000000000         0.000000000000000E+000
  -1.31670000000000         0.000000000000000E+000
  -1.07730000000000         0.000000000000000E+000
 -0.837900000000000         0.000000000000000E+000
 -0.598500000000000         0.000000000000000E+000
 -0.359100000000000         0.000000000000000E+000
 -0.119700000000000         0.000000000000000E+000
  0.119700000000000         0.000000000000000E+000
  0.359100000000000         0.000000000000000E+000
  0.598500000000000         0.000000000000000E+000
  0.837900000000000         0.000000000000000E+000
   1.07730000000000         0.000000000000000E+000
   1.31670000000000         0.000000000000000E+000
   1.55610000000000         0.000000000000000E+000
   1.79550000000000         0.000000000000000E+000
   2.03490000000000         0.000000000000000E+000
   2.27430000000000         0.000000000000000E+000
   2.51370000000000         0.000000000000000E+000
   2.75310000000000         0.000000000000000E+000
   2.99250000000000         0.000000000000000E+000
   3.23190000000000         0.000000000000000E+000
   3.47130000000000         0.000000000000000E+000
   3.71070000000000         0.000000000000000E+000
   3.95010000000000         0.000000000000000E+000
   4.18950000000000         0.000000000000000E+000
   4.42890000000000         0.000000000000000E+000
   4.66830000000000         0.000000000000000E+000
   4.90770000000000         0.000000000000000E+000
   5.14710000000000         0.000000000000000E+000
   5.38650000000000         0.000000000000000E+000
   5.62590000000000         0.000000000000000E+000
   5.86530000000000         0.000000000000000E+000
   6.10470000000000         0.000000000000000E+000
   6.34410000000000         0.000000000000000E+000
   6.58350000000000         0.000000000000000E+000
   6.82290000000000         0.000000000000000E+000
   7.06230000000000         0.000000000000000E+000
   7.30170000000000         0.000000000000000E+000
   7.54110000000000         0.000000000000000E+000
   7.78050000000000         0.000000000000000E+000
   8.01990000000000         0.000000000000000E+000
   8.25930000000000         0.000000000000000E+000
   8.49870000000000         0.000000000000000E+000
   8.73810000000000         0.000000000000000E+000
   8.97750000000000         0.000000000000000E+000
   9.21690000000000         0.000000000000000E+000
   9.45630000000000         0.000000000000000E+000
   9.69570000000000        -7.608670835526976E-204
   9.93510000000000         6.862305696679421E-175
   10.1745000000000        -6.155951755421007E-168
   10.4139000000000        -1.022778023516078E-166
   10.6533000000000         1.947475281720281E-164
   10.8927000000000         1.073337758753437E-162
   11.1321000000000         2.185383997224140E-161
   11.3715000000000        -4.317592737853132E-161
   11.6109000000000        -1.569849560057542E-158
   11.8503000000000        -5.416180417163322E-157
   12.0897000000000        -1.202690477500352E-155
   12.3291000000000        -2.059116309606502E-154
   12.5685000000000        -2.912311863563433E-153
   12.8079000000000        -3.531016175052043E-152
   13.0473000000000        -3.757056602734153E-151
   13.2867000000000        -3.565982388637978E-150
   13.5261000000000        -3.056003007001856E-149
   13.7655000000000        -2.386934042680063E-148
   14.0049000000000        -1.711969811493417E-147
   14.2443000000000        -1.134527118364110E-146
   14.4837000000000        -6.984178909525507E-146
   14.7231000000000        -4.013359798202849E-145
   14.9625000000000        -2.163093384328992E-144
   15.2019000000000        -1.099240332908298E-143
   15.4413000000000        -5.300541798552612E-143
   15.6807000000000        -2.445485643053458E-142
   15.9201000000000        -1.091556158015091E-141
   16.1595000000000        -4.781132246662265E-141
   16.3989000000000        -2.088424991276695E-140
   16.6383000000000        -9.230377244558934E-140
   16.8777000000000        -4.161274970419555E-139
   17.1171000000000        -1.910788812532976E-138
   17.3565000000000        -8.852890682827002E-138
   17.5959000000000        -4.086194709780878E-137
   17.8353000000000        -1.857087234454603E-136
   18.0747000000000        -8.239038190719078E-136
   18.3141000000000        -3.549025116778238E-135
   18.5535000000000        -1.480136636936413E-134
   18.7929000000000        -5.970288974572302E-134
   19.0323000000000        -2.329268379002252E-133
   19.2717000000000        -8.796268109838481E-133
   19.5111000000000        -3.219021460077062E-132
   19.7505000000000        -1.143076256578007E-131
   19.9899000000000        -3.944292130090395E-131
   20.2293000000000        -1.324421756891218E-130
   20.4687000000000        -4.333601233677955E-130
   20.7081000000000        -1.383575269798617E-129
   20.9475000000000        -4.315221730018326E-129
   21.1869000000000        -1.316141608072540E-128
   21.4263000000000        -3.928995403250473E-128
   21.6657000000000        -1.148788968327339E-127
   21.9051000000000        -3.291511119324224E-127
   22.1445000000000        -9.244400559004134E-127
   22.3839000000000        -2.545313535322561E-126
   22.6233000000000        -6.870036945459441E-126
   22.8627000000000        -1.817369660353802E-125
   23.1021000000000        -4.710335802538848E-125
   23.3415000000000        -1.195647147782948E-124
   23.5809000000000        -2.970911905472710E-124
   23.8203000000000        -7.222643240571805E-124
   24.0597000000000        -1.717181729563639E-123
   24.2991000000000        -3.990966281442747E-123
   24.5385000000000        -9.065177180187851E-123
   24.7779000000000        -2.012426021977385E-122
   25.0173000000000        -4.368199922377352E-122
   25.2567000000000        -9.281238230992826E-122
   25.4961000000000        -1.934404605984809E-121
   25.7355000000000        -3.968904076705239E-121
   25.9749000000000        -8.060373209822268E-121
   26.2143000000000        -1.632870971245797E-120
   26.4537000000000        -3.331688474635265E-120
   26.6931000000000        -6.917477334331002E-120
   26.9325000000000        -1.473570803489209E-119
   27.1719000000000        -3.231158380085524E-119
   27.4113000000000        -7.270968831302797E-119
   27.6507000000000        -1.665437184175340E-118
   27.8901000000000        -3.842575720089552E-118
   28.1295000000000        -8.840710915256958E-118
   28.3689000000000        -2.011495916470778E-117
   28.6083000000000        -4.498087637897143E-117
   28.8477000000000        -9.842109929969710E-117
   29.0871000000000        -2.100397307280453E-116
   29.3265000000000        -4.360714105554871E-116
   29.5659000000000        -8.786581639882333E-116
   29.8053000000000        -1.713631406100882E-115
   30.0447000000000        -3.223335784103566E-115
   30.2841000000000        -5.817312709227348E-115
   30.5235000000000        -9.990417960273767E-115
   30.7629000000000        -1.609600729810054E-114
   31.0023000000000        -2.366941801591670E-114
   31.2417000000000        -2.977810942802618E-114
   31.4811000000000        -2.544785509677487E-114
   31.7205000000000         1.140075232211417E-114
   31.9599000000000         1.287591970329483E-113
   32.1993000000000         4.216058062794343E-113
   32.4387000000000         1.062276398871162E-112
   32.6781000000000         2.334809228474266E-112
   32.9175000000000         4.650529824895316E-112
   33.1569000000000         8.482514009633210E-112
   33.3963000000000         1.407710208688993E-111
   33.6357000000000         2.065819429233549E-111
   33.8751000000000         2.461458931202281E-111
   34.1145000000000         1.586175010563313E-111
   34.3539000000000        -2.870116268264380E-111
   34.5933000000000        -1.556414457445004E-110
   34.8327000000000        -4.491737888744400E-110
   35.0721000000000        -1.045093277724745E-109
   35.3115000000000        -2.131368262388008E-109
   35.5509000000000        -3.903749410979522E-109
   35.7903000000000        -6.411573397622019E-109
   36.0297000000000        -9.177019414429490E-109
   36.2691000000000        -1.040326650619469E-108
   36.5085000000000        -5.525912141506674E-109
   36.7479000000000         1.512625853630801E-108
   36.9873000000000         6.956279184530108E-108
   37.2267000000000         1.875232442136099E-107
   37.4661000000000         4.115962408972332E-107
   37.7055000000000         7.903066930424288E-107
   37.9449000000000         1.351733022112419E-106
   38.1843000000000         2.037823789090145E-106
   38.4237000000000         2.569500686341028E-106
   38.6631000000000         2.205250465461570E-106
   38.9025000000000        -6.377051722932274E-107
   39.1419000000000        -8.887890256226245E-106
   39.3813000000000        -2.731952387691273E-105
   39.6207000000000        -6.266384090961598E-105
   39.8601000000000        -1.224830334038115E-104
   40.0995000000000        -2.112172492393055E-104
   40.3389000000000        -3.208079046820186E-104
   40.5783000000000        -4.122450789991354E-104
   40.8177000000000        -3.839400580176101E-104
   41.0571000000000        -2.442711603981211E-105
   41.2965000000000         1.046798051406038E-103
   41.5359000000000         3.431271984856228E-103
   41.7753000000000         7.947489522677166E-103
   42.0147000000000         1.547131474084791E-102
   42.2541000000000         2.644733986583331E-102
   42.4935000000000         3.980775359243061E-102
   42.7329000000000         5.096110397160060E-102
   42.9723000000000         4.853048665718046E-102
   43.2117000000000         9.774852843962488E-103
   43.4511000000000        -1.046410948573557E-101
   43.6905000000000        -3.543123994971327E-101
   43.9299000000000        -8.162162049445049E-101
   44.1693000000000        -1.566053737548749E-100
   44.4087000000000        -2.629000086933207E-100
   44.6481000000000        -3.879447385802656E-100
   44.8875000000000        -4.867086614799936E-100
   45.1269000000000        -4.554582526692069E-100
   45.3663000000000        -9.816196422182327E-101
   45.6057000000000         9.062160036871087E-100
   45.8451000000000         3.014700811785874E-099
   46.0845000000000         6.768728296595553E-099
   46.3239000000000         1.261197363708864E-098
   46.5633000000000         2.048007897675245E-098
   46.8027000000000         2.904671730427008E-098
   47.0421000000000         3.453176639106352E-098
   47.2815000000000         2.908555088290852E-098
   47.5209000000000        -9.731463895679607E-100
   47.7603000000000        -7.628627998699609E-098
   47.9997000000000        -2.233671409734210E-097
   48.2391000000000        -4.686005209459385E-097
   48.4785000000000        -8.234212662048983E-097
   48.7179000000000        -1.255950901426755E-096
   48.9573000000000        -1.645029764630376E-096
   49.1967000000000        -1.716473983424933E-096
   49.4361000000000        -9.710222507918922E-097
   49.6755000000000         1.368271460484443E-096
   49.9149000000000         6.332235352033693E-096
   50.1543000000000         1.500885973952035E-095
   50.3937000000000         2.803441336665829E-095
   50.6331000000000         4.460625844066859E-095
   50.8725000000000         6.087740653184755E-095
   51.1119000000000         6.773260385854141E-095
   51.3513000000000         4.828225613308383E-095
   51.5907000000000        -2.396399663262727E-095
   51.8301000000000        -1.843041507965177E-094
   52.0695000000000        -4.701994321248142E-094
   52.3089000000000        -9.042027923169062E-094
   52.5483000000000        -1.461136989498770E-093
   52.7877000000000        -2.015266721683940E-093
   53.0271000000000        -2.268007796237742E-093
   53.2665000000000        -1.667787816680433E-093
   53.5059000000000         6.463065027227189E-094
   53.7453000000000         5.814901377932482E-093
   53.9847000000000         1.504121188597409E-092
   54.2241000000000         2.904551293932905E-092
   54.4635000000000         4.703110197595260E-092
   54.7029000000000         6.503935723828191E-092
   54.9423000000000         7.372205467436139E-092
   55.1817000000000         5.589444441142312E-092
   55.4211000000000        -1.517492380560020E-092
   55.6605000000000        -1.748948841929992E-091
   55.8999000000000        -4.609410260986145E-091
   56.1393000000000        -8.972474354886193E-091
   56.3787000000000        -1.463847864297988E-090
   56.6181000000000        -2.049123841083368E-090
   56.8575000000000        -2.385237280702747E-090
   57.0969000000000        -1.976741057261709E-090
   57.3363000000000        -4.841310495835467E-092
   57.5757000000000         4.437895497206934E-090
   57.8151000000000         1.261791893520914E-089
   58.0545000000000         2.530275390012384E-089
   58.2939000000000         4.217785839550686E-089
   58.5333000000000         6.052853165738328E-089
   58.7727000000000         7.350200991835270E-089
   59.0121000000000         6.814479999373603E-089
   59.2515000000000         2.385021306329934E-089
   59.4909000000000        -8.756431780557924E-089
   59.7303000000000        -2.981985042771137E-088
   59.9697000000000        -6.341538440339713E-088
   60.2091000000000        -1.096307191332467E-087
   60.4485000000000        -1.629259885082949E-087
   60.6879000000000        -2.078249802242801E-087
   60.9273000000000        -2.138911090761513E-087
   61.1667000000000        -1.313667830370483E-087
   61.4061000000000         1.098240731241320E-087
   61.6455000000000         5.933368935298358E-087
   61.8849000000000         1.395850640068881E-086
   62.1243000000000         2.545570594217487E-086
   62.3637000000000         3.953477827199620E-086
   62.6031000000000         5.315430194727040E-086
   62.8425000000000         5.993415841452915E-086
   63.0819000000000         4.902403202958848E-086
   63.3213000000000         4.565731920816346E-087
   63.5607000000000        -9.335918138817568E-086
   63.8001000000000        -2.650287217330775E-085
   64.0395000000000        -5.230893941699895E-085
   64.2789000000000        -8.587998480015476E-085
   64.5183000000000        -1.221762535308481E-084
   64.7577000000000        -1.494212958677165E-084
   64.9971000000000        -1.464278049537960E-084
   65.2365000000000        -8.077776382277943E-085
   65.4759000000000         9.049869752141516E-085
   65.7153000000000         4.153335658914353E-084
   65.9547000000000         9.330747194847695E-084
   66.1941000000000         1.649824148524976E-083
   66.4335000000000         2.500490559673492E-083
   66.6729000000000         3.298234717024663E-083
   66.9123000000000         3.677514145841229E-083
   67.1517000000000         3.045779859106445E-083
   67.3911000000000         5.710744186948025E-084
   67.6305000000000        -4.752859537500358E-083
   67.8699000000000        -1.390900477782593E-082
   68.1093000000000        -2.746569499293885E-082
   68.3487000000000        -4.493996739362258E-082
   68.5881000000000        -6.390271081916855E-082
   68.8275000000000        -7.889407024331803E-082
   69.0669000000000        -8.035426747184290E-082
   69.3063000000000        -5.397162319127231E-082
   69.5457000000000         1.890623760254871E-082
   69.7851000000000         1.589013328410730E-081
   70.0245000000000         3.832030853680964E-081
   70.2639000000000         6.960987994426070E-081
   70.5033000000000         1.074832589479948E-080
   70.7427000000000         1.451240737105975E-080
   70.9821000000000         1.691502081458866E-080
   71.2215000000000         1.579202986753631E-080
   71.4609000000000         8.106694889835026E-081
   71.7003000000000        -9.842890802030408E-081
   71.9397000000000        -4.179466555949184E-080
   72.1791000000000        -9.029126940269807E-080
   72.4185000000000        -1.547018052877190E-079
   72.6579000000000        -2.284686075561078E-079
   72.8973000000000        -2.957825715026304E-079
   73.1367000000000        -3.282639287449263E-079
   73.3761000000000        -2.827442591461968E-079
   73.6155000000000        -1.018698427182425E-079
   73.8549000000000         2.801334307951792E-079
   74.0943000000000         9.237813815850728E-079
   74.3337000000000         1.860097192554295E-078
   74.5731000000000         3.054230960742452E-078
   74.8125000000000         4.357815117530165E-078
   75.0519000000000         5.455271921392741E-078
   75.2913000000000         5.815715597116581E-078
   75.5307000000000         4.670380475332143E-078
   75.7701000000000         1.044653972049483E-078
   76.0095000000000        -6.118312470107931E-078
   76.2489000000000        -1.770228839928097E-077
   76.4883000000000        -3.399733735722886E-077
   76.7277000000000        -5.410250867958775E-077
   76.9671000000000        -7.518468387271417E-077
   77.2065000000000        -9.169729497010515E-077
   77.4459000000000        -9.476070378112600E-077
   77.6853000000000        -7.202407140919966E-077
   77.9247000000000        -8.447552639855106E-078
   78.1641000000000         1.114709296882997E-076
   78.4035000000000         2.995004705218909E-076
   78.6429000000000         5.571444033999461E-076
   78.8823000000000         8.667874698222032E-076
   79.1217000000000         1.181230065349864E-075
   79.3611000000000         1.413348168073732E-075
   79.6005000000000         1.428961391810428E-075
   79.8399000000000         1.047505582687836E-075
   80.0793000000000         5.648965059466035E-077
   80.3187000000000        -1.753526153658959E-075
   80.5581000000000        -4.527258170856707E-075
   80.7975000000000        -8.252902537282881E-075
   81.0369000000000        -1.264259089125334E-074
   81.2763000000000        -1.699705478561459E-074
   81.5157000000000        -2.007998715116617E-074
   81.7551000000000        -2.004429640885822E-074
   81.9945000000000        -1.447009654334530E-074
   82.2339000000000        -5.887147418853855E-076
   82.4733000000000         2.422810602854073E-074
   82.7127000000000         6.164766150514515E-074
   82.9521000000000         1.111988484740970E-073
   83.1915000000000         1.687896631993001E-073
   83.4309000000000         2.250915989046461E-073
   83.6703000000000         2.641246235567558E-073
   83.9097000000000         2.625666004618971E-073
   84.1491000000000         1.904995896606829E-073
   84.3885000000000         1.444139516566314E-074
   84.6279000000000        -2.964793194679310E-073
   84.8673000000000        -7.605539890492965E-073
   85.1067000000000        -1.369606224665402E-072
   85.3461000000000        -2.071989297517324E-072
   85.5855000000000        -2.754648134204106E-072
   85.8249000000000        -3.228200854352278E-072
   86.0643000000000        -3.220993514097687E-072
   86.3037000000000        -2.389945023591997E-072
   86.5431000000000        -3.571588412811669E-073
   86.7825000000000         3.219042360658804E-072
   87.0219000000000         8.532731098047928E-072
   87.2613000000000         1.547879310137733E-071
   87.5007000000000         2.347147978773251E-071
   87.7401000000000         3.125790529868014E-071
   87.9795000000000         3.676935604968721E-071
   88.2189000000000         3.707282272077745E-071
   88.4583000000000         2.850234535660652E-071
   88.6977000000000         7.058788799547702E-072
   88.9371000000000        -3.084004671686380E-071
   89.1765000000000        -8.720820721027423E-071
   89.4159000000000        -1.609524045712424E-070
   89.6553000000000        -2.460605392730873E-070
   89.8947000000000        -3.297749318310554E-070
   90.1341000000000        -3.911784334224541E-070
   90.3735000000000        -4.008006686762204E-070
   90.6129000000000        -3.220009296459941E-070
   90.8523000000000        -1.149491623417070E-070
   91.0917000000000         2.560618209654335E-070
   91.3311000000000         8.115572034868700E-070
   91.5705000000000         1.542274299237718E-069
   91.8099000000000         2.392166941946911E-069
   92.0493000000000         3.241463692909266E-069
   92.2887000000000         3.893744966615905E-069
   92.5281000000000         4.072552809458731E-069
   92.7675000000000         3.434281294299383E-069
   93.0069000000000         1.604537901078959E-069
   93.2463000000000        -1.755768703172843E-069
   93.4857000000000        -6.851295817030256E-069
   93.7251000000000        -1.362225247968967E-068
   93.9645000000000        -2.159398665200533E-068
   94.2039000000000        -2.972763434308408E-068
   94.4433000000000        -3.630604256126034E-068
   94.6827000000000        -3.890189304602750E-068
   94.9221000000000        -3.448476097037715E-068
   95.1615000000000        -1.972683028276766E-068
   95.4009000000000         8.441530713755316E-069
   95.6403000000000         5.200002036944572E-068
   95.8797000000000         1.107495042102431E-067
   96.1191000000000         1.810526918036433E-067
   96.3585000000000         2.545793004946623E-067
   96.5979000000000         3.173318166278470E-067
   96.8373000000000         3.493275982868366E-067
   97.0767000000000         3.253885662929805E-067
   97.3161000000000         2.175109487900327E-067
   97.5555000000000        -7.810058487163802E-070
   97.7949000000000        -3.478878983220935E-067
   98.0343000000000        -8.255349551438594E-067
   98.2737000000000        -1.408776699898838E-066
   98.5131000000000        -2.035933795906057E-066
   98.7525000000000        -2.600552687245767E-066
   98.9919000000000        -2.948226687311648E-066
   99.2313000000000        -2.881683395176157E-066
   99.4707000000000        -2.177708179647140E-066
   99.7101000000000        -6.189815594325695E-067
   99.9495000000000         1.957497434909324E-066
   100.188900000000         5.596255258161807E-066
   100.428300000000         1.014803781328611E-065
   100.667700000000         1.519274977974923E-065
   100.907100000000         1.997552191176630E-065
   101.146500000000         2.337618334296403E-065
   101.385900000000         2.393656037969571E-065
   101.625300000000         1.997140190796047E-065
   101.864700000000         9.785591360701372E-066
   102.104100000000        -7.989110778369818E-066
   102.343500000000        -3.394164728186753E-065
   102.582900000000        -6.734278533192996E-065
   102.822300000000        -1.055818511832271E-064
   103.061700000000        -1.436788062988492E-064
   103.301100000000        -1.740088031025860E-064
   103.540500000000        -1.864059224183068E-064
   103.779900000000        -1.688245672273833E-064
   104.019300000000        -1.087194657609551E-064
   104.258700000000         4.753145750498860E-066
   104.498100000000         1.777192065925969E-064
   104.737500000000         4.079244971447467E-064
   104.976900000000         6.808085724474138E-064
   105.216300000000         9.659441532810990E-064
   105.455700000000         1.214720628524088E-063
   105.695100000000         1.360355088942455E-063
   105.934500000000         1.321412262321642E-063
   106.173900000000         1.009933590657253E-063
   106.413300000000         3.449420693817703E-064
   106.652700000000        -7.285576015225773E-064
   106.892100000000        -2.215955205601196E-063
   107.131500000000        -4.046974284627098E-063
   107.370900000000        -6.050908236195698E-063
   107.610300000000        -7.938484911519185E-063
   107.849700000000        -9.297061952965495E-063
   108.089100000000        -9.606628591871079E-063
   108.328500000000        -8.283831163301520E-063
   108.567900000000        -4.759500139654226E-063
   108.807300000000         1.408449405896435E-063
   109.046700000000         1.039056364719798E-062
   109.286100000000         2.192137295368033E-062
   109.525500000000         3.513567894743812E-062
   109.764900000000         4.843620881720270E-062
   110.004300000000         5.943206371019645E-062
   110.243700000000         6.499312274854009E-062
   110.483100000000         6.146570381013390E-062
   110.722500000000         4.508668270074855E-062
   110.961900000000         1.261457414556679E-062
   111.201300000000        -3.783473076227071E-062
   111.440700000000        -1.058027944948264E-061
   111.680100000000        -1.874620772258951E-061
   111.919500000000        -2.747137565086152E-061
   112.158900000000        -3.546301028539953E-061
   112.398300000000        -4.095013977945181E-061
   112.637700000000        -4.177587558839626E-061
   112.877100000000        -3.560121970364572E-061
   113.116500000000        -2.023539854156039E-061
   113.355900000000         5.907933185747752E-062
   113.595300000000         4.325189881686020E-061
   113.834700000000         9.044699399348463E-061
   114.074100000000         1.437954531155773E-060
   114.313500000000         1.968258184761869E-060
   114.552900000000         2.401600235429124E-060
   114.792300000000         2.618277401862221E-060
   115.031700000000         2.481736211187753E-060
   115.271100000000         1.854645009346155E-060
   115.510500000000         6.222940803308557E-061
   115.749900000000        -1.277472940536253E-060
   115.989300000000        -3.820073561684904E-060
   116.228700000000        -6.859757579526504E-060
   116.468100000000        -1.010074271722782E-059
   116.707500000000        -1.308130127337033E-059
   116.946900000000        -1.517917932548423E-059
   117.186300000000        -1.564672043715443E-059
   117.425700000000        -1.368262338237152E-059
   117.665100000000        -8.544022864100933E-060
   117.904500000000         3.026699493714501E-061
   118.143900000000         1.300095578988422E-059
   118.383300000000         2.911106343820578E-059
   118.622700000000         4.743156766196388E-059
   118.862100000000         6.587203180769134E-059
   119.101500000000         8.141967981187300E-059
   119.340900000000         9.024553400231062E-059
   119.580300000000         8.799131851628865E-059
   119.819700000000         7.026568674019603E-059
   120.059100000000         3.335554323862956E-059
   120.298500000000        -2.487496747220065E-059
   120.537900000000        -1.039676277146616E-058
   120.777300000000        -1.998536528850007E-058
   121.016700000000        -3.040045203529729E-058
   121.256100000000        -4.029584971202958E-058
   121.495500000000        -4.784554268292743E-058
   121.734900000000        -5.084083754185979E-058
   121.974300000000        -4.688978898859797E-058
   122.213700000000        -3.372841904122798E-058
   122.453100000000        -9.639014465016227E-059
   122.692500000000         2.604844136635045E-058
   122.931900000000         7.241873902938180E-058
   123.171300000000         1.264696257817308E-057
   123.410700000000         1.827406431614093E-057
   123.650100000000         2.331846887327441E-057
   123.889500000000         2.674003696923557E-057
   124.128900000000         2.733327345375923E-057
   124.368300000000         2.385181913357426E-057
   124.607700000000         1.518930425907508E-057
   124.847100000000         6.103405398621167E-059
   125.086500000000        -1.998495954931800E-057
   125.325900000000        -4.579138080914510E-057
   125.565300000000        -7.486433872568948E-057
   125.804700000000        -1.039716486406656E-056
   126.044100000000        -1.285883524624392E-056
   126.283500000000        -1.430914648131693E-056
   126.522900000000        -1.412023880460011E-056
   126.762300000000        -1.167046630992559E-056
   127.001700000000        -6.443259400144294E-057
   127.241100000000         1.851750413577159E-057
   127.480500000000         1.314547850432840E-056
   127.719900000000         2.687991671728605E-056
   127.959300000000         4.190387413267484E-056
   128.198700000000         5.641967864609293E-056
   128.438100000000         6.800858844784393E-056
   128.677500000000         7.376115718714783E-056
   128.916900000000         7.053269608864040E-056
   129.156300000000         5.533248572260992E-056
   129.395700000000         2.583824199998851E-056
   129.635100000000        -1.899496815617350E-056
   129.874500000000        -7.828816772506077E-056
   130.113900000000        -1.486381910511284E-055
   130.353300000000        -2.236721404818882E-055
   130.592700000000        -2.938822930115759E-055
   130.832100000000        -3.468718458531988E-055
   131.071500000000        -3.681286014163021E-055
   131.310900000000        -3.424077939107091E-055
   131.550300000000        -2.557438024099102E-055
   131.789700000000        -9.802329420567050E-056
   132.029100000000         1.340569819192730E-055
   132.268500000000         4.339477077617731E-055
   132.507900000000         7.825434121595695E-055
   132.747300000000         1.146347155400899E-054
   132.986700000000         1.477098354697111E-054
   133.226100000000         1.713459357718825E-054
   133.465500000000         1.785268549368511E-054
   133.704900000000         1.620672180267979E-054
   133.944300000000         1.156133597187611E-054
   134.183700000000         3.488908827383585E-055
   134.423100000000        -8.090858300731802E-055
   134.662500000000        -2.277154125633360E-054
   134.901900000000        -3.954142418820332E-054
   135.141300000000        -5.671085486871463E-054
   135.380700000000        -7.191293446479225E-054
   135.620100000000        -8.220405862833935E-054
   135.859500000000        -8.428569465839244E-054
   136.098900000000        -7.485864172907858E-054
   136.338300000000        -5.110557619175594E-054
   136.577700000000        -1.127730683475960E-054
   136.817100000000         4.466590600003001E-054
   137.056500000000         1.144321517762238E-053
   137.295900000000         1.928927431854327E-053
   137.535300000000         2.718099779967070E-053
   137.774700000000         3.399208359849968E-053
   138.014100000000         3.834914066542140E-053
   138.253500000000         3.874288250274217E-053
   138.492900000000         3.369868125636825E-053
   138.732300000000         2.200269959376295E-053