  -1.79550000000000         0.000000000000000E+000
  -1.55610000000000         0.000000000000000E+000
  -1.31670000000000         0.000000000000000E+000
  -1.07730000000000         0.000000000000000E+000
 -0.837900000000000         0.000000000000000E+000
 -0.598500000000000         0.000000000000000E+000
 -0.359100000000000         0.000000000000000E+000
 -0.119700000000000         0.000000000000000E+000
  0.119700000000000         0.000000000000000E+000
  0.359100000000000         0.000000000000000E+000
  0.598500000000000         0.000000000000000E+000
  0.837900000000000         0.000000000000000E+000
   1.07730000000000         0.000000000000000E+000
   1.31670000000000         0.000000000000000E+000
   1.55610000000000         0.000000000000000E+000
   1.79550000000000         0.000000000000000E+000
   2.03490000000000         0.000000000000000E+000
   2.27430000000000         0.000000000000000E+000
   2.51370000000000         0.000000000000000E+000
   2.75310000000000         0.000000000000000E+000
   2.99250000000000         0.000000000000000E+000
   3.23190000000000         0.000000000000000E+000
   3.47130000000000         0.000000000000000E+000
   3.71070000000000         0.000000000000000E+000
   3.95010000000000         0.000000000000000E+000
   4.18950000000000         0.000000000000000E+000
   4.42890000000000         0.000000000000000E+000
   4.66830000000000         0.000000000000000E+000
   4.90770000000000         0.000000000000000E+000
   5.14710000000000         0.000000000000000E+000
   5.38650000000000         0.000000000000000E+000
   5.62590000000000         0.000000000000000E+000
   5.86530000000000         0.000000000000000E+000
   6.10470000000000         0.000000000000000E+000
   6.34410000000000         0.000000000000000E+000
   6.58350000000000         0.000000000000000E+000
   6.82290000000000         0.000000000000000E+000
   7.06230000000000         0.000000000000000E+000
   7.30170000000000         0.000000000000000E+000
   7.54110000000000         0.000000000000000E+000
   7.78050000000000         0.000000000000000E+000
   8.01990000000000         0.000000000000000E+000
   8.25930000000000         0.000000000000000E+000
   8.49870000000000         0.000000000000000E+000
   8.73810000000000         0.000000000000000E+000
   8.97750000000000         0.000000000000000E+000
   9.21690000000000         0.000000000000000E+000
   9.45630000000000        -2.121743531665532E-201
   9.69570000000000         1.410617687551366E-172
   9.93510000000000        -7.926014918485273E-167
   10.1745000000000         6.591826862553031E-166
   10.4139000000000         4.612817233495498E-163
   10.6533000000000         1.985569924941194E-161
   10.8927000000000         1.942793941896362E-160
   11.1321000000000        -1.283603486879851E-158
   11.3715000000000        -6.999382139893205E-157
   11.6109000000000        -2.022625047892104E-155
   11.8503000000000        -4.250101464555039E-154
   12.0897000000000        -7.159742666540476E-153
   12.3291000000000        -1.014996497041832E-151
   12.5685000000000        -1.247224420266585E-150
   12.8079000000000        -1.355518480793355E-149
   13.0473000000000        -1.322399344972212E-148
   13.2867000000000        -1.171205541722108E-147
   13.5261000000000        -9.501895777727320E-147
   13.7655000000000        -7.112968194493250E-146
   14.0049000000000        -4.942645574819706E-145
   14.2443000000000        -3.204141301416580E-144
   14.4837000000000        -1.945981043899760E-143
   14.7231000000000        -1.111181166299876E-142
   14.9625000000000        -5.983370765245433E-142
   15.2019000000000        -3.045704320556208E-141
   15.4413000000000        -1.468411714300317E-140
   15.6807000000000        -6.714481717441401E-140
   15.9201000000000        -2.913795880355225E-139
   16.1595000000000        -1.199611505472266E-138
   16.3989000000000        -4.676957686765557E-138
   16.6383000000000        -1.719298040174718E-137
   16.8777000000000        -5.906378054176627E-137
   17.1171000000000        -1.861100708967945E-136
   17.3565000000000        -5.150455870266821E-136
   17.5959000000000        -1.096546236232672E-135
   17.8353000000000        -6.055621258015455E-136
   18.0747000000000         1.153381374981267E-134
   18.3141000000000         9.463342814243995E-134
   18.5535000000000         5.360331915582540E-133
   18.7929000000000         2.612555458612999E-132
   19.0323000000000         1.166275094836040E-131
   19.2717000000000         4.896309885469198E-131
   19.5111000000000         1.959318026729480E-130
   19.7505000000000         7.530321983121505E-130
   19.9899000000000         2.792574011657783E-129
   20.2293000000000         1.002239976344584E-128
   20.4687000000000         3.488121154310883E-128
   20.7081000000000         1.178941049318599E-127
   20.9475000000000         3.873913378523085E-127
   21.1869000000000         1.238651780361539E-126
   21.4263000000000         3.856721090231337E-126
   21.6657000000000         1.170178037443440E-125
   21.9051000000000         3.462001088508593E-125
   22.1445000000000         9.993391286115586E-125
   22.3839000000000         2.816290950985882E-124
   22.6233000000000         7.753455794981801E-124
   22.8627000000000         2.086659767362566E-123
   23.1021000000000         5.493486170369482E-123
   23.3415000000000         1.415816434588649E-122
   23.5809000000000         3.574999897858469E-122
   23.8203000000000         8.851797448806920E-122
   24.0597000000000         2.151194142066402E-121
   24.2991000000000         5.136365523515841E-121
   24.5385000000000         1.206201850058364E-120
   24.7779000000000         2.788978886698565E-120
   25.0173000000000         6.356269418286171E-120
   25.2567000000000         1.429340705177734E-119
   25.4961000000000         3.174202288912467E-119
   25.7355000000000         6.966243808621324E-119
   25.9749000000000         1.511487352644585E-118
   26.2143000000000         3.242460943822354E-118
   26.4537000000000         6.874717889412420E-118
   26.6931000000000         1.439460744331011E-117
   26.9325000000000         2.972827375709057E-117
   27.1719000000000         6.045484641491663E-117
   27.4113000000000         1.207974399492278E-116
   27.6507000000000         2.365487188708468E-116
   27.8901000000000         4.525402055225737E-116
   28.1295000000000         8.425622757940136E-116
   28.3689000000000         1.519329935568944E-115
   28.6083000000000         2.636409234440418E-115
   28.8477000000000         4.362186610216756E-115
   29.0871000000000         6.784511104832545E-115
   29.3265000000000         9.671496496232228E-115
   29.5659000000000         1.197472586016710E-114
   29.8053000000000         1.094388501108444E-114
   30.0447000000000         8.077446480433674E-116
   30.2841000000000        -2.864613183504173E-114
   30.5235000000000        -9.221212842654658E-114
   30.7629000000000        -2.043564802352157E-113
   31.0023000000000        -3.607337033207556E-113
   31.2417000000000        -4.892886181259632E-113
   31.4811000000000        -3.415920108278539E-113
   31.7205000000000         7.195578676792597E-113
   31.9599000000000         4.087360105073273E-112
   32.1993000000000         1.245733767922173E-111
   32.4387000000000         3.045695963231908E-111
   32.6781000000000         6.493353883923377E-111
   32.9175000000000         1.237370153068680E-110
   33.1569000000000         2.103866486218072E-110
   33.3963000000000         3.094902675774946E-110
   33.6357000000000         3.539390750434757E-110
   33.8751000000000         1.600570211769255E-110
   34.1145000000000        -6.870450280153735E-110
   34.3539000000000        -3.013307105805011E-109
   34.5933000000000        -8.295677061431817E-109
   34.8327000000000        -1.889610411017220E-108
   35.0721000000000        -3.808473443474302E-108
   35.3115000000000        -6.937796105874959E-108
   35.5509000000000        -1.142572922516004E-107
   35.7903000000000        -1.666530366381387E-107
   36.0297000000000        -2.017483012555231E-107
   36.2691000000000        -1.560257136226791E-107
   36.5085000000000         1.040818847994078E-107
   36.7479000000000         8.242644471437213E-107
   36.9873000000000         2.405100933798878E-106
   37.2267000000000         5.415241344889110E-106
   37.4661000000000         1.050747009007086E-105
   37.7055000000000         1.811051564406780E-105
   37.9449000000000         2.768837786798039E-105
   38.1843000000000         3.627439867643034E-105
   38.4237000000000         3.595359552602711E-105
   38.6631000000000         1.010270766617331E-105
   38.9025000000000        -7.127959811638559E-105
   39.1419000000000        -2.555672297664709E-104
   39.3813000000000        -6.068037013518556E-104
   39.6207000000000        -1.192205757403800E-103
   39.8601000000000        -2.041932749520514E-103
   40.0995000000000        -3.061402208593825E-103
   40.3389000000000        -3.870665977829175E-103
   40.5783000000000        -3.549354260864522E-103
   40.8177000000000        -2.910588981798278E-104
   41.0571000000000         8.962048377926496E-103
   41.2965000000000         2.869767237275744E-102
   41.5359000000000         6.438439381305618E-102
   41.7753000000000         1.206084373900205E-101
   42.0147000000000         1.965842801768925E-101
   42.2541000000000         2.774624305148927E-101
   42.4935000000000         3.198841905942911E-101
   42.7329000000000         2.312779654113150E-101
   42.9723000000000        -1.545323853116082E-101
   43.2117000000000        -1.096334895415017E-100
   43.4511000000000        -2.938619035940857E-100
   43.6905000000000        -6.040827564529954E-100
   43.9299000000000        -1.058260958524291E-099
   44.1693000000000        -1.616345324240955E-099
   44.4087000000000        -2.110832317825390E-099
   44.6481000000000        -2.142566704315059E-099
   44.8875000000000        -9.484076972702922E-100
   45.1269000000000         2.725996743631852E-099
   45.3663000000000         1.066688382288972E-098
   45.6057000000000         2.499008614783072E-098
   45.8451000000000         4.743976413982352E-098
   46.0845000000000         7.782688937611237E-098
   46.3239000000000         1.111851991076123E-097
   46.5633000000000         1.333038970315557E-097
   46.8027000000000         1.146835740435239E-097
   47.0421000000000         3.887479496860546E-099
   47.2815000000000        -2.769979206835317E-097
   47.5209000000000        -8.292815594959394E-097
   47.7603000000000        -1.757576818385551E-096
   47.9997000000000        -3.118858519437904E-096
   48.2391000000000        -4.823291730715743E-096
   48.4785000000000        -6.469930583643987E-096
   48.7179000000000        -7.110152480516246E-096
   48.9573000000000        -4.958561952726436E-096
   49.1967000000000         2.875076254008317E-096
   49.4361000000000         2.046873671775433E-095
   49.6755000000000         5.268948922555374E-095
   49.9149000000000         1.038518105595675E-094
   50.1543000000000         1.748094820351025E-094
   50.3937000000000         2.577810451279795E-094
   50.6331000000000         3.283658421811536E-094
   50.8725000000000         3.348298444944184E-094
   51.1119000000000         1.861411657751552E-094
   51.3513000000000        -2.572296467150111E-094
   51.5907000000000        -1.181769416477076E-093
   51.8301000000000        -2.795271812708918E-093
   52.0695000000000        -5.257501864283703E-093
   52.3089000000000        -8.542369437654527E-093
   52.5483000000000        -1.220613649582183E-092
   52.7877000000000        -1.504614107265655E-092
   53.0271000000000        -1.466405767954325E-092
   53.2665000000000        -7.008330620809666E-093
   53.5059000000000         1.392569172696962E-092
   53.7453000000000         5.590377972428215E-092
   53.9847000000000         1.272311128032813E-091
   54.2241000000000         2.337399951619300E-091
   54.4635000000000         3.730570429089820E-091
   54.7029000000000         5.252447123736372E-091
   54.9423000000000         6.393603133040027E-091
   55.1817000000000         6.166778492503974E-091
   55.4211000000000         2.936880121657252E-091
   55.6605000000000        -5.680482944468092E-091
   55.8999000000000        -2.272307556269000E-090
   56.1393000000000        -5.138540873497898E-090
   56.3787000000000        -9.383904615628062E-090
   56.6181000000000        -1.490320476672141E-089
   56.8575000000000        -2.091505874816517E-089
   57.0969000000000        -2.546073840942376E-089
   57.3363000000000        -2.478829585592367E-089
   57.5757000000000        -1.274315498198707E-089
   57.8151000000000         1.956867250818952E-089
   58.0545000000000         8.337038032413985E-089
   58.2939000000000         1.903231963796334E-088
   58.5333000000000         3.481572835480529E-088
   58.7727000000000         5.526687052274533E-088
   59.0121000000000         7.750635158182332E-088
   59.2515000000000         9.443600450833904E-088
   59.4909000000000         9.262837424510696E-088
   59.7303000000000         5.032628454203197E-088
   59.9697000000000        -6.348538430019153E-088
   60.2091000000000        -2.872808591776083E-087
   60.4485000000000        -6.599923542141135E-087
   60.6879000000000        -1.205574932773089E-086
   60.9273000000000        -1.905600825380394E-086
   61.1667000000000        -2.657143548586767E-086
   61.4061000000000        -3.216055127031359E-086
   61.6455000000000        -3.131815149248040E-086
   61.8849000000000        -1.690654722006873E-086
   62.1243000000000         2.100585593257869E-086
   62.3637000000000         9.436875603766426E-086
   62.6031000000000         2.146830773613615E-085
   62.8425000000000         3.879155793586868E-085
   63.0819000000000         6.058699961018447E-085
   63.3213000000000         8.334627328674557E-085
   63.5607000000000         9.923557817757295E-085
   63.8001000000000         9.433329134715537E-085
   64.0395000000000         4.729221982786243E-085
   64.2789000000000        -7.058645805529543E-085
   64.5183000000000        -2.923535824802203E-084
   64.7577000000000        -6.474628965298991E-084
   64.9971000000000        -1.146570682187893E-083
   65.2365000000000        -1.757089832000447E-083
   65.4759000000000        -2.368898646449622E-083
   65.7153000000000        -2.752700390589455E-083
   65.9547000000000        -2.518936123481597E-083
   66.1941000000000        -1.093241283272472E-083
   66.4335000000000         2.265046400948628E-083
   66.6729000000000         8.363291071150943E-083
   66.9123000000000         1.784753503976401E-082
   67.1517000000000         3.079732836250629E-082
   67.3911000000000         4.610977267647001E-082
   67.6305000000000         6.068175699749791E-082
   67.8699000000000         6.848163099881793E-082
   68.1093000000000         5.973326611180900E-082
   68.3487000000000         2.061824083596159E-082
   68.5881000000000        -6.587928549069319E-082
   68.8275000000000        -2.171481426263535E-081
   69.0669000000000        -4.451850987377417E-081
   69.3063000000000        -7.470213225015711E-081
   69.5457000000000        -1.090960249590935E-080
   69.7851000000000        -1.399337695701431E-080
   70.0245000000000        -1.530406484776994E-080
   70.2639000000000        -1.264746740665989E-080
   70.5033000000000        -3.052046490240282E-081
   70.7427000000000         1.696710524185399E-080
   70.9821000000000         5.071821661355098E-080
   71.2215000000000         1.000475798038000E-079
   71.4609000000000         1.633321735720990E-079
   71.7003000000000         2.327470899428706E-079
   71.9397000000000         2.910435304562363E-079
   72.1791000000000         3.084524541752166E-079
   72.4185000000000         2.408506929352064E-079
   72.6579000000000         3.094729958698981E-080
   72.8973000000000        -3.851462114566639E-079
   73.1367000000000        -1.063218085238416E-078
   73.3761000000000        -2.025557116631525E-078
   73.6155000000000        -3.223428553290659E-078
   73.8549000000000        -4.488625355053249E-078
   74.0943000000000        -5.479841857225448E-078
   74.3337000000000        -5.636313663213497E-078
   74.5731000000000        -4.159755156024930E-078
   74.8125000000000        -5.502644814238117E-080
   75.0519000000000         7.732077666050792E-078
   75.2913000000000         2.003871725346783E-077
   75.5307000000000         3.703696939638807E-077
   75.7701000000000         5.760468504341247E-077
   76.0095000000000         7.855394740777142E-077
   76.2489000000000         9.383211263476059E-077
   76.4883000000000         9.391541758908027E-077
   76.7277000000000         6.574075658117324E-077
   76.9671000000000        -6.353556289505206E-078
   77.2065000000000        -1.381204490974380E-076
   77.4459000000000        -3.407816421938557E-076
   77.6853000000000        -6.139215483325223E-076
   77.9247000000000        -9.359645850512419E-076
   78.1641000000000        -1.253070852518766E-075
   78.4035000000000        -1.468425068535176E-075
   78.6429000000000        -1.435367648484557E-075
   78.8823000000000        -9.594592350668441E-076
   79.1217000000000         1.839638894707985E-076
   79.3611000000000         2.209459181022054E-075
   79.6005000000000         5.251887337406825E-075
   79.8399000000000         9.264361382246384E-075
   80.0793000000000         1.388728800851125E-074
   80.3187000000000         1.830302697129837E-074
   80.5581000000000         2.110601320771730E-074
   80.7975000000000         2.023684409108784E-074
   81.0369000000000         1.304812262443303E-074
   81.2763000000000        -3.415156610446829E-075
   81.5157000000000        -3.183460068826849E-074
   81.7551000000000        -7.366881079297572E-074
   81.9945000000000        -1.278176303064258E-073
   82.2339000000000        -1.889755981678291E-073
   82.4733000000000        -2.458912039063489E-073
   82.7127000000000        -2.799351248626754E-073
   82.9521000000000        -2.645949786616310E-073
   83.1915000000000        -1.667183947200001E-073
   83.4309000000000         4.954205884080037E-074
   83.6703000000000         4.151571806953027E-073
   83.9097000000000         9.443943917511452E-073
   84.1491000000000         1.618785022346498E-072
   84.3885000000000         2.368084157157639E-072
   84.6279000000000         3.051073771064285E-072
   84.8673000000000         3.441134338348432E-072
   85.1067000000000         3.223758850085503E-072
   85.3461000000000         2.015139905576743E-072
   85.5855000000000        -5.880882278291309E-073
   85.8249000000000        -4.918869549720717E-072
   86.0643000000000        -1.110446279089151E-071
   86.3037000000000        -1.888897453651745E-071
   86.5431000000000        -2.742969581780816E-071
   86.7825000000000        -3.510094360096458E-071
   87.0219000000000        -3.936029878056880E-071
   87.2613000000000        -3.675380128558631E-071
   87.5007000000000        -2.315365308823751E-071
   87.7401000000000         5.673123314915103E-072
   87.9795000000000         5.308311425525063E-071
   88.2189000000000         1.201280310391072E-070
   88.4583000000000         2.037335847528701E-070
   88.6977000000000         2.946732053632780E-070
   88.9371000000000         3.756987473374088E-070
   89.1765000000000         4.203904199668757E-070
   89.4159000000000         3.934811043057873E-070
   89.6553000000000         2.535441182030826E-070
   89.8947000000000        -4.106231158156978E-071
   90.1341000000000        -5.223103436018994E-070
   90.3735000000000        -1.198503599376269E-069
   90.6129000000000        -2.036867176209175E-069
   90.8523000000000        -2.944696440826221E-069
   91.0917000000000        -3.752632962930626E-069
   91.3311000000000        -4.205393093335199E-069
   91.5705000000000        -3.966871686857436E-069
   91.8099000000000        -2.647502002575656E-069
   92.0493000000000         1.385495105402688E-070
   92.2887000000000         4.681045522309343E-069
   92.5281000000000         1.104580608328752E-068
   92.7675000000000         1.891894583220481E-068
   93.0069000000000         2.744204376395001E-068
   93.2463000000000         3.507071114455201E-068
   93.4857000000000         3.950345825628465E-068
   93.7251000000000         3.774013744079075E-068
   93.9645000000000         2.633547886953789E-068
   94.2039000000000         1.908240742470879E-069
   94.4433000000000        -3.805527577313774E-068
   94.6827000000000        -9.410813074700688E-068
   94.9221000000000        -1.635331184367174E-067
   95.1615000000000        -2.389817594873411E-067
   95.4009000000000        -3.073362003486522E-067
   95.6403000000000        -3.491799070130032E-067
   95.8797000000000        -3.393535545622492E-067
   96.1191000000000        -2.491095627851990E-067
   96.3585000000000        -5.032328674007067E-068
   96.5979000000000         2.779698188928430E-067
   96.8373000000000         7.407981158078512E-067
   97.0767000000000         1.316866824674666E-066
   97.3161000000000         1.947899741142913E-066
   97.5555000000000         2.529871773645883E-066
   97.7949000000000         2.909111244801239E-066
   98.0343000000000         2.886881107781361E-066
   98.2737000000000         2.236251271348838E-066
   98.5131000000000         7.345689839519425E-067
   98.7525000000000        -1.786662399886718E-066
   98.9919000000000        -5.375399124654160E-066
   99.2313000000000        -9.881087184449575E-066
   99.4707000000000        -1.487520429181489E-065
   99.7101000000000        -1.958628007150657E-065
   99.9495000000000        -2.287105310384175E-065
   100.188900000000        -2.324764088559547E-065
   100.428300000000        -1.901765952208942E-065
   100.667700000000        -8.500218804107647E-066
   100.907100000000         9.610234177479060E-066
   101.146500000000         3.576955154918399E-065
   101.385900000000         6.902839153507185E-065
   101.625300000000         1.064666132842542E-064
   101.864700000000         1.427283845937915E-064
   102.104100000000         1.698068010101564E-064
   102.343500000000         1.772541953363138E-064
   102.582900000000         1.529999879901540E-064
   102.822300000000         8.492948847540604E-065
   103.061700000000        -3.669730427278768E-065
   103.301100000000        -2.160366506466056E-064
   103.540500000000        -4.478965544017979E-064
   103.779900000000        -7.138842054179989E-064
   104.019300000000        -9.791904319631131E-064
   104.258700000000        -1.190979808828368E-063
   104.498100000000        -1.279528835693836E-063
   104.737500000000        -1.163288794813624E-063
   104.976900000000        -7.588678294333946E-064
   105.216300000000         3.543345691239431E-066
   105.455700000000         1.159586141518061E-063
   105.695100000000         2.686428227455531E-063
   105.934500000000         4.477621671167700E-063
   106.173900000000         6.321605354028317E-063
   106.413300000000         7.889839565959569E-063
   106.652700000000         8.741643568472613E-063
   106.892100000000         8.353048150502636E-063
   107.131500000000         6.175920277829252E-063
   107.370900000000         1.730843887065625E-063
   107.610300000000        -5.267542646303522E-063
   107.849700000000        -1.476089070353893E-062
   108.089100000000        -2.618987163430236E-062
   108.328500000000        -3.835547643563756E-062
   108.567900000000        -4.933408821048007E-062
   108.807300000000        -5.648816131276131E-062
   109.046700000000        -5.661620171332889E-062
   109.286100000000        -4.628024447625781E-062
   109.525500000000        -2.233376141755142E-062
   109.764900000000         1.735377703642099E-062
   110.004300000000         7.301792792047998E-062
   110.243700000000         1.420566086531038E-061
   110.483100000000         2.181685273359836E-061
   110.722500000000         2.907696919718744E-061
   110.961900000000         3.449247596025478E-061
   111.201300000000         3.620443413562847E-061
   111.440700000000         3.215741053493521E-061
   111.680100000000         2.038233062215334E-061
   111.919500000000        -6.060349245825878E-063
   112.158900000000        -3.131682181253110E-061
   112.398300000000        -7.074214883504249E-061
   112.637700000000        -1.158432334416605E-060
   112.877100000000        -1.611684449059918E-060
   113.116500000000        -1.987314618702543E-060
   113.355900000000        -2.182882371860438E-060
   113.595300000000        -2.081417684383521E-060
   113.834700000000        -1.565665756896800E-060
   114.074100000000        -5.387494386400747E-061
   114.313500000000         1.049574270042530E-060
   114.552900000000         3.173241493883754E-060
   114.792300000000         5.700528766060989E-060
   115.031700000000         8.370331134725362E-060
   115.271100000000         1.078070151037910E-059
   115.510500000000         1.239700432944343E-059
   115.749900000000         1.258677998924173E-059
   115.989300000000         1.068680814556574E-059
   116.228700000000         6.104604771055312E-060
   116.468100000000        -1.548439295709501E-060
   116.707500000000        -1.230174593627452E-059
   116.946900000000        -2.566538973953173E-059
   117.186300000000        -4.049059466756142E-059
   117.425700000000        -5.488361087020619E-059
   117.665100000000        -6.621031321368645E-059
   117.904500000000        -7.122900725812769E-059
   118.143900000000        -6.638272286138895E-059
   118.383300000000        -4.826816190360002E-059
   118.622700000000        -1.427559931221908E-059
   118.862100000000         3.663728399705888E-059
   119.101500000000         1.031125736329485E-058
   119.340900000000         1.806160216555625E-058
   119.580300000000         2.608713343055165E-058
   119.819700000000         3.316860672512545E-058
   120.059100000000         3.773587207596485E-058
   120.298500000000         3.798367034939317E-058
   120.537900000000         3.207386071579040E-058
   120.777300000000         1.842565739719519E-058
   121.016700000000        -3.918482565813211E-059
   121.256100000000        -3.488113178136909E-058
   121.495500000000        -7.294161343592820E-058
   121.734900000000        -1.147995487815410E-057
   121.974300000000        -1.551940231671210E-057
   122.213700000000        -1.869699346909032E-057
   122.453100000000        -2.014789658171439E-057
   122.692500000000        -1.893826407861195E-057
   122.931900000000        -1.418861967235526E-057
   123.171300000000        -5.237352903393278E-058
   123.410700000000         8.166288238941488E-058
   123.650100000000         2.565919620561261E-057
   123.889500000000         4.608005759486793E-057
   124.128900000000         6.734043243764253E-057
   124.368300000000         8.639336723202069E-057
   124.607700000000         9.934231266605401E-057
   124.847100000000         1.017272280302336E-056
   125.086500000000         8.901077256507562E-057
   125.325900000000         5.726457318261796E-057
   125.565300000000         4.023980026629356E-058
   125.804700000000        -7.075879930808932E-057
   126.044100000000        -1.637753041365576E-056
   126.283500000000        -2.675874953057313E-056
   126.522900000000        -3.702043011125692E-056
   126.762300000000        -4.552064094929585E-056
   127.001700000000        -5.026068389972452E-056
   127.241100000000        -4.905908550520906E-056
   127.480500000000        -3.981963007135288E-056
   127.719900000000        -2.088729402123825E-056
   127.959300000000         8.529885236549746E-057
   128.198700000000         4.791325997347159E-056
   128.438100000000         9.501944293493915E-056
   128.677500000000         1.455754288801941E-055
   128.916900000000         1.931700893898304E-055
   129.156300000000         2.294313218107526E-055
   129.395700000000         2.445675136775996E-055
   129.635100000000         2.283255613944131E-055
   129.874500000000         1.713737269303251E-055
   130.113900000000         6.705641717258065E-056
   130.353300000000        -8.660749004493962E-056
   130.592700000000        -2.848946806380154E-055
   130.832100000000        -5.146096919455745E-055
   131.071500000000        -7.529409530148734E-055
   131.310900000000        -9.673400274139100E-055
   131.550300000000        -1.116815471045025E-054
   131.789700000000        -1.154963358252396E-054
   132.029100000000        -1.034914136512217E-054
   132.268500000000        -7.161549743371322E-055
   132.507900000000        -1.728928571308850E-055
   132.747300000000         5.967264095840351E-055
   132.986700000000         1.561602713897345E-054
   133.226100000000         2.650281512519559E-054
   133.465500000000         3.746851096353814E-054
   133.704900000000         4.691937789517622E-054
   133.944300000000         5.290494540551416E-054
   134.183700000000         5.327684962243442E-054
   134.423100000000         4.593437746414702E-054
   134.662500000000         2.915173024723060E-054
   134.901900000000         1.968167198132248E-055
   135.141300000000        -3.539386475747115E-054
   135.380700000000        -8.113418301545607E-054
   135.620100000000        -1.315705293335268E-053
   135.859500000000        -1.810017040815228E-053
   136.098900000000        -2.218185062100203E-053
   136.338300000000        -2.449351285606984E-053
   136.577700000000        -2.405925039393088E-053
   136.817100000000        -1.995487578241667E-053
   137.056500000000        -1.146203164645590E-053
   137.295900000000         1.752750671957604E-054
   137.535300000000         1.945146026133771E-053
   137.774700000000         4.065523856069053E-053
   138.014100000000         6.352329809966286E-053
   138.253500000000         8.531516705629771E-053
   138.492900000000         1.024715143945205E-052
   138.732300000000         1.108438896173567E-052