  -1.79550000000000         0.000000000000000E+000
  -1.55610000000000         0.000000000000000E+000
  -1.31670000000000         0.000000000000000E+000
  -1.07730000000000         0.000000000000000E+000
 -0.837900000000000         0.000000000000000E+000
 -0.598500000000000         0.000000000000000E+000
 -0.359100000000000         0.000000000000000E+000
 -0.119700000000000         0.000000000000000E+000
  0.119700000000000         0.000000000000000E+000
  0.359100000000000         0.000000000000000E+000
  0.598500000000000         0.000000000000000E+000
  0.837900000000000         0.000000000000000E+000
   1.07730000000000         0.000000000000000E+000
   1.31670000000000         0.000000000000000E+000
   1.55610000000000         0.000000000000000E+000
   1.79550000000000         0.000000000000000E+000
   2.03490000000000         0.000000000000000E+000
   2.27430000000000         0.000000000000000E+000
   2.51370000000000         0.000000000000000E+000
   2.75310000000000         0.000000000000000E+000
   2.99250000000000         0.000000000000000E+000
   3.23190000000000         0.000000000000000E+000
   3.47130000000000         0.000000000000000E+000
   3.71070000000000         0.000000000000000E+000
   3.95010000000000         0.000000000000000E+000
   4.18950000000000         0.000000000000000E+000
   4.42890000000000         0.000000000000000E+000
   4.66830000000000         0.000000000000000E+000
   4.90770000000000         0.000000000000000E+000
   5.14710000000000         0.000000000000000E+000
   5.38650000000000         0.000000000000000E+000
   5.62590000000000         0.000000000000000E+000
   5.86530000000000         0.000000000000000E+000
   6.10470000000000         0.000000000000000E+000
   6.34410000000000         0.000000000000000E+000
   6.58350000000000         0.000000000000000E+000
   6.82290000000000         0.000000000000000E+000
   7.06230000000000         0.000000000000000E+000
   7.30170000000000         0.000000000000000E+000
   7.54110000000000         0.000000000000000E+000
   7.78050000000000         0.000000000000000E+000
   8.01990000000000         0.000000000000000E+000
   8.25930000000000         0.000000000000000E+000
   8.49870000000000         0.000000000000000E+000
   8.73810000000000         0.000000000000000E+000
   8.97750000000000         0.000000000000000E+000
   9.21690000000000         0.000000000000000E+000
   9.45630000000000         0.000000000000000E+000
   9.69570000000000        -3.565684124565921E-203
   9.93510000000000         1.461434939732781E-174
   10.1745000000000         8.967366982121331E-168
   10.4139000000000        -1.407849568554720E-166
   10.6533000000000        -5.572576694103524E-164
   10.8927000000000        -2.364867795930506E-162
   11.1321000000000        -2.637861287624452E-161
   11.3715000000000         1.284028499877956E-159
   11.6109000000000         7.388336129423759E-158
   11.8503000000000         2.156225262262164E-156
   12.0897000000000         4.542368651728799E-155
   12.3291000000000         7.653139985750747E-154
   12.5685000000000         1.083959828004097E-152
   12.8079000000000         1.330068273833378E-151
   13.0473000000000         1.443113579425640E-150
   13.2867000000000         1.405324033388920E-149
   13.5261000000000         1.242426028319819E-148
   13.7655000000000         1.006288866306707E-147
   14.0049000000000         7.522050418923765E-147
   14.2443000000000         5.221134083966795E-146
   14.4837000000000         3.382491886173779E-145
   14.7231000000000         2.054186007234455E-144
   14.9625000000000         1.173757734984434E-143
   15.2019000000000         6.330098705515994E-143
   15.4413000000000         3.230455643883388E-142
   15.6807000000000         1.563270668880590E-141
   15.9201000000000         7.183861153868415E-141
   16.1595000000000         3.137244427661750E-140
   16.3989000000000         1.301589610117651E-139
   16.6383000000000         5.120734930303309E-139
   16.8777000000000         1.902010058362032E-138
   17.1171000000000         6.609818846250833E-138
   17.3565000000000         2.109421742949630E-137
   17.5959000000000         5.923270608443081E-137
   17.8353000000000         1.287555306694514E-136
   18.0747000000000         8.187145301048796E-137
   18.3141000000000        -1.297836033223939E-135
   18.5535000000000        -1.090254363429960E-134
   18.7929000000000        -6.223464542269797E-134
   19.0323000000000        -3.040098617047544E-133
   19.2717000000000        -1.355245383439143E-132
   19.5111000000000        -5.665158478999820E-132
   19.7505000000000        -2.251802549090962E-131
   19.9899000000000        -8.579906751550688E-131
   20.2293000000000        -3.149770679932312E-130
   20.4687000000000        -1.117908590204142E-129
   20.7081000000000        -3.845249769870980E-129
   20.9475000000000        -1.284195032817021E-128
   21.1869000000000        -4.170196808455265E-128
   21.4263000000000        -1.318331983887361E-127
   21.6657000000000        -4.061523066812087E-127
   21.9051000000000        -1.220550817497430E-126
   22.1445000000000        -3.580980854077077E-126
   22.3839000000000        -1.026558493632874E-125
   22.6233000000000        -2.877692016298879E-125
   22.8627000000000        -7.894390320219033E-125
   23.1021000000000        -2.120973614601905E-124
   23.3415000000000        -5.584932190799573E-124
   23.5809000000000        -1.442395596316835E-123
   23.8203000000000        -3.656325634931678E-123
   24.0597000000000        -9.103288234646868E-123
   24.2991000000000        -2.227550134473781E-122
   24.5385000000000        -5.360345781892946E-122
   24.7779000000000        -1.269183875088706E-121
   25.0173000000000        -2.958109826076168E-121
   25.2567000000000        -6.788995617421273E-121
   25.4961000000000        -1.534559690182548E-120
   25.7355000000000        -3.416383876041614E-120
   25.9749000000000        -7.490205536925722E-120
   26.2143000000000        -1.616650605334733E-119
   26.4537000000000        -3.433091266214664E-119
   26.6931000000000        -7.167028788062245E-119
   26.9325000000000        -1.469208997630246E-118
   27.1719000000000        -2.953018184232742E-118
   27.4113000000000        -5.808109227462693E-118
   27.6507000000000        -1.114994419413001E-117
   27.8901000000000        -2.082044871484097E-117
   28.1295000000000        -3.763895868050598E-117
   28.3689000000000        -6.542816196550267E-117
   28.6083000000000        -1.082283285357384E-116
   28.8477000000000        -1.673941123549286E-116
   29.0871000000000        -2.340004041196392E-116
   29.3265000000000        -2.720774463764088E-116
   29.5659000000000        -1.860925047431168E-116
   29.8053000000000         2.341424412279541E-116
   30.0447000000000         1.390237122376155E-115
   30.2841000000000         3.942169988165504E-115
   30.5235000000000         8.748192438058384E-115
   30.7629000000000         1.635675634578476E-114
   31.0023000000000         2.529803040899358E-114
   31.2417000000000         2.759628216360564E-114
   31.4811000000000        -1.497007333073715E-115
   31.7205000000000        -1.246753333289556E-113
   31.9599000000000        -4.822686385054968E-113
   32.1993000000000        -1.359280346277312E-112
   32.4387000000000        -3.283888310096205E-112
   32.6781000000000        -7.140176849044555E-112
   32.9175000000000        -1.421826472730801E-111
   33.1569000000000        -2.598849424601560E-111
   33.3963000000000        -4.311237719991730E-111
   33.6357000000000        -6.271308388397401E-111
   33.8751000000000        -7.215634410141448E-111
   34.1145000000000        -3.657516443098822E-111
   34.3539000000000         1.235460466392319E-110
   34.5933000000000         5.681745280202746E-110
   34.8327000000000         1.586522951140068E-109
   35.0721000000000         3.646155706664717E-109
   35.3115000000000         7.400674062027935E-109
   35.5509000000000         1.355601985375823E-108
   35.7903000000000         2.239324894646656E-108
   36.0297000000000         3.258955892084057E-108
   36.2691000000000         3.878302271829512E-108
   36.5085000000000         2.716555735624208E-108
   36.7479000000000        -3.153087912047541E-108
   36.9873000000000        -1.915278444565867E-107
   37.2267000000000        -5.415996063037470E-107
   37.4661000000000        -1.207401639002302E-106
   37.7055000000000        -2.329713397493806E-106
   37.9449000000000        -3.986296499514903E-106
   38.1843000000000        -6.003385706476378E-106
   38.4237000000000        -7.579216702585269E-106
   38.6631000000000        -6.630531478571732E-106
   38.9025000000000         1.194031478849805E-106
   39.1419000000000         2.375099151553716E-105
   39.3813000000000         7.346171775017666E-105
   39.6207000000000         1.670750406127399E-104
   39.8601000000000         3.218209361080937E-104
   40.0995000000000         5.438697360038647E-104
   40.3389000000000         8.028358748824432E-104
   40.5783000000000         9.842767401690202E-104
   40.8177000000000         8.126818801068685E-104
   41.0571000000000        -2.558424467801671E-104
   41.2965000000000        -3.152666056284873E-103
   41.5359000000000        -9.267734039994384E-103
   41.7753000000000        -2.033879970981665E-102
   42.0147000000000        -3.790980778360744E-102
   42.2541000000000        -6.195804400949225E-102
   42.4935000000000        -8.813829120128287E-102
   42.7329000000000        -1.030384865739422E-101
   42.9723000000000        -7.708403003696387E-102
   43.2117000000000         4.439161610420812E-102
   43.4511000000000         3.493701436229890E-101
   43.6905000000000         9.603441911753983E-101
   43.9299000000000         2.016091105835180E-100
   44.1693000000000         3.613277595716429E-100
   44.4087000000000         5.677935230072019E-100
   44.6481000000000         7.730960067865555E-100
   44.8875000000000         8.518013504329884E-100
   45.1269000000000         5.507844175085920E-100
   45.3663000000000        -5.653020650493132E-100
   45.6057000000000        -3.147845168813146E-099
   45.8451000000000        -8.025491350416361E-099
   46.0845000000000        -1.600299502751511E-098
   46.3239000000000        -2.736394845559762E-098
   46.5633000000000        -4.090955396055017E-098
   46.8027000000000        -5.237555855721013E-098
   47.0421000000000        -5.218337155782766E-098
   47.2815000000000        -2.278887820176613E-098
   47.5209000000000         6.349384502583844E-098
   47.7603000000000         2.442907282973266E-097
   47.9997000000000         5.612151338770217E-097
   48.2391000000000         1.043047272665580E-096
   48.4785000000000         1.671469862967175E-096
   48.7179000000000         2.322816915084740E-096
   48.9573000000000         2.682920344938224E-096
   49.1967000000000         2.142489865382886E-096
   49.4361000000000        -2.985676844605266E-097
   49.6755000000000        -6.054249035757526E-096
   49.9149000000000        -1.678874977534371E-095
   50.1543000000000        -3.389137861911812E-095
   50.3937000000000        -5.736387591202424E-095
   50.6331000000000        -8.389025763234362E-095
   50.8725000000000        -1.039713592912305E-094
   51.1119000000000        -9.833341259934928E-095
   51.3513000000000        -3.448420142365212E-095
   51.5907000000000         1.345968916911432E-094
   51.8301000000000         4.660580245994034E-094
   52.0695000000000         1.011595629813186E-093
   52.3089000000000         1.783607497918882E-093
   52.5483000000000         2.695824067874699E-093
   52.7877000000000         3.474473767380877E-093
   53.0271000000000         3.545740029670029E-093
   53.2665000000000         1.924881700758169E-093
   53.5059000000000        -2.834941663428991E-093
   53.7453000000000        -1.252966530016477E-092
   53.9847000000000        -2.886769047450726E-092
   54.2241000000000        -5.250287503339728E-092
   54.4635000000000        -8.132397098258660E-092
   54.7029000000000        -1.078775156990814E-091
   54.9423000000000        -1.160674578545216E-091
   55.1817000000000        -7.781196125317064E-092
   55.4211000000000         4.877056763788975E-092
   55.6605000000000         3.168100189957502E-091
   55.8999000000000         7.794322441166165E-091
   56.1393000000000         1.464156854906831E-090
   56.3787000000000         2.327023066907942E-090
   56.6181000000000         3.182708907736016E-090
   56.8575000000000         3.613569453755702E-090
   57.0969000000000         2.874042382591609E-090
   57.3363000000000        -1.706289323962619E-091
   57.5757000000000        -7.000381717509621E-090
   57.8151000000000        -1.918168548444086E-089
   58.0545000000000        -3.775007537497742E-089
   58.2939000000000        -6.207845881070690E-089
   58.5333000000000        -8.812149239501482E-089
   58.7727000000000        -1.060761607220876E-088
   59.0121000000000        -9.780897809524943E-089
   59.2515000000000        -3.492211604157556E-089
   59.4909000000000         1.209183628784594E-088
   59.7303000000000         4.128520139635105E-088
   59.9697000000000         8.754761096326458E-088
   60.2091000000000         1.509461167232077E-087
   60.4485000000000         2.241094227731410E-087
   60.6879000000000         2.866707612335075E-087
   60.9273000000000         2.988391571694960E-087
   61.1667000000000         1.958446255526488E-087
   61.4061000000000        -1.133766049884103E-087
   61.6455000000000        -7.378587478415181E-087
   61.8849000000000        -1.779193285305519E-086
   62.1243000000000        -3.280328406856430E-086
   62.3637000000000        -5.140853086881930E-086
   62.6031000000000        -6.996261138441004E-086
   62.8425000000000        -8.070688692974054E-086
   63.0819000000000        -7.033894263088355E-086
   63.3213000000000        -1.925261205969248E-086
   63.5607000000000         9.750937051510151E-086
   63.8001000000000         3.061028063042754E-085
   64.0395000000000         6.247114611936107E-085
   64.2789000000000         1.047575347032475E-084
   64.5183000000000         1.521208011506592E-084
   64.7577000000000         1.913778591737732E-084
   64.9971000000000         1.982328910897321E-084
   65.2365000000000         1.348250777740814E-084
   65.4759000000000        -5.008128676182659E-085
   65.7153000000000        -4.155668576935089E-084
   65.9547000000000        -1.014226310728561E-083
   66.1941000000000        -1.865336707132383E-083
   66.4335000000000        -2.912734096892516E-083
   66.6729000000000        -3.967481279555521E-083
   66.9123000000000        -4.641154631625648E-083
   67.1517000000000        -4.284940070358331E-083
   67.3911000000000        -1.962864253367160E-083
   67.6305000000000         3.496668538549907E-083
   67.8699000000000         1.331140010096292E-082
   68.1093000000000         2.834904308323297E-082
   68.3487000000000         4.846230535553201E-082
   68.5881000000000         7.152836234693978E-082
   68.8275000000000         9.224515611611141E-082
   69.0669000000000         1.008738236566235E-081
   69.3063000000000         8.231828061883398E-082
   69.5457000000000         1.619049482605182E-082
   69.7851000000000        -1.212135805479943E-081
   70.0245000000000        -3.518848997660795E-081
   70.2639000000000        -6.868477573588609E-081
   70.5033000000000        -1.111855885725106E-080
   70.7427000000000        -1.568160615116027E-080
   70.9821000000000        -1.930258608139308E-080
   71.2215000000000        -1.985313985647477E-080
   71.4609000000000        -1.422718699535972E-080
   71.7003000000000         1.533602108401797E-081
   71.9397000000000         3.171495750246738E-080
   72.1791000000000         7.981415561609160E-080
   72.4185000000000         1.466624545041111E-079
   72.6579000000000         2.277105196638928E-079
   72.8973000000000         3.096063231978864E-079
   73.1367000000000         3.665392360870020E-079
   73.3761000000000         3.573191583929814E-079
   73.6155000000000         2.247786075828095E-079
   73.8549000000000        -1.002609155625194E-079
   74.0943000000000        -6.877066428866351E-079
   74.3337000000000        -1.586761222804423E-078
   74.5731000000000        -2.792237610468179E-078
   74.8125000000000        -4.198539838436710E-078
   75.0519000000000        -5.544989530518254E-078
   75.2913000000000        -6.361989437287291E-078
   75.5307000000000        -5.935305458307500E-078
   75.7701000000000        -3.314782812148039E-078
   76.0095000000000         2.597629972935922E-078
   76.2489000000000         1.284058223807558E-077
   76.4883000000000         2.802953706475253E-077
   76.7277000000000         4.781549148270814E-077
   76.9671000000000         7.018093625967635E-077
   77.2065000000000         9.064828207929589E-077
   77.4459000000000         1.015632557682713E-076
   77.6853000000000         9.172560076557575E-077
   77.9247000000000         4.675758804959707E-077
   78.1641000000000        -4.930052577619076E-077
   78.4035000000000        -2.106440026023540E-076
   78.6429000000000        -4.441709777881419E-076
   78.8823000000000        -7.416129636525457E-076
   79.1217000000000        -1.069728519904328E-075
   79.3611000000000        -1.359826681520681E-075
   79.6005000000000        -1.499066953150471E-075
   79.8399000000000        -1.327383865757405E-075
   80.0793000000000        -6.452807402461932E-076
   80.3187000000000         7.612656899025719E-076
   80.5581000000000         3.072532236305279E-075
   80.7975000000000         6.358860521694441E-075
   81.0369000000000         1.047626563323355E-074
   81.2763000000000         1.494109922554578E-074
   81.5157000000000         1.880222700279089E-074
   81.7551000000000         2.054369390878146E-074
   81.9945000000000         1.806716928930260E-074
   82.2339000000000         8.818495302235143E-075
   82.4733000000000        -9.868589848848552E-075
   82.7127000000000        -4.014293775605761E-074
   82.9521000000000        -8.267810152650879E-074
   83.1915000000000        -1.353997293092700E-073
   83.4309000000000        -1.920051140271037E-073
   83.6703000000000        -2.405137857504468E-073
   83.9097000000000        -2.622517269423781E-073
   84.1491000000000        -2.318467416726206E-073
   84.3885000000000        -1.189610329977450E-073
   84.6279000000000         1.074479837416651E-073
   84.8673000000000         4.716413690601016E-073
   85.1067000000000         9.800283711199612E-073
   85.3461000000000         1.606820278668056E-072
   85.5855000000000         2.277766659196566E-072
   85.8249000000000         2.854761943638985E-072
   86.0643000000000         3.125816691225021E-072
   86.3037000000000         2.806628377057725E-072
   86.5431000000000         1.561346667691171E-072
   86.7825000000000        -9.494893477331102E-073
   87.0219000000000        -4.987211606671333E-072
   87.2613000000000        -1.061674933905616E-071
   87.5007000000000        -1.755627285738651E-071
   87.7401000000000        -2.501008166685692E-071
   87.9795000000000        -3.151439580741852E-071
   88.2189000000000        -3.484226391490796E-071
   88.4583000000000        -3.202999817930395E-071
   88.6977000000000        -1.959921975078697E-071
   88.9371000000000         5.950009548499806E-072
   89.1765000000000         4.731535883728605E-071
   89.4159000000000         1.052185084070644E-070
   89.6553000000000         1.769333693773826E-070
   89.8947000000000         2.546723107773774E-070
   90.1341000000000         3.241202634654649E-070
   90.3735000000000         3.635569944043481E-070
   90.6129000000000         3.441499232849285E-070
   90.8523000000000         2.320950067570674E-070
   91.0917000000000        -6.720109060913327E-072
   91.3311000000000        -3.990187313390208E-070
   91.5705000000000        -9.532735799545275E-070
   91.8099000000000        -1.646199869439655E-069
   92.0493000000000        -2.408051774567173E-069
   92.2887000000000        -3.109340581549288E-069
   92.5281000000000        -3.552880283211142E-069
   92.7675000000000        -3.476249759131725E-069
   93.0069000000000        -2.570508311149796E-069
   93.2463000000000        -5.208818525033865E-070
   93.4857000000000         2.926342031959330E-069
   93.7251000000000         7.869789366262008E-069
   93.9645000000000         1.413642972790361E-068
   94.2039000000000         2.115480393860607E-068
   94.4433000000000         2.784000763742981E-068
   94.6827000000000         3.252281882719093E-068
   94.9221000000000         3.296477510800233E-068
   95.1615000000000         2.650674926692785E-068
   95.4009000000000         1.039724939602550E-068
   95.6403000000000        -1.766551020351027E-068
   95.8797000000000        -5.877035119672085E-068
   96.1191000000000        -1.118448488441475E-067
   96.3585000000000        -1.726189575424326E-067
   96.5979000000000        -2.326721057077253E-067
   96.8373000000000        -2.788156161100118E-067
   97.0767000000000        -2.931342630433756E-067
   97.3161000000000        -2.540543460659673E-067
   97.5555000000000        -1.387956861181200E-067
   97.7949000000000         7.252629365069938E-068
   98.0343000000000         3.910805844445480E-067
   98.2737000000000         8.120377707505846E-067
   98.5131000000000         1.306527652194032E-066
   98.7525000000000         1.814089085025612E-066
   98.9919000000000         2.237452963861281E-066
   99.2313000000000         2.442028655673585E-066
   99.4707000000000         2.262791673593700E-066
   99.7101000000000         1.521219160506756E-066
   99.9495000000000         5.429655292222475E-068
   100.188900000000        -2.243755122180831E-066
   100.428300000000        -5.368626282968374E-066
   100.667700000000        -9.146655305588518E-066
   100.907100000000        -1.317769519201217E-065
   101.146500000000        -1.679277875259586E-065
   101.385900000000        -1.904300507822828E-065
   101.625300000000        -1.873849898843194E-065
   101.864700000000        -1.455621841158322E-065
   102.104100000000        -5.231514093392031E-066
   102.343500000000         1.016051191521968E-065
   102.582900000000         3.184246002305901E-065
   102.822300000000         5.892004201632929E-065
   103.061700000000         8.896994298711052E-065
   103.301100000000         1.177122737582983E-064
   103.540500000000         1.388754022606093E-064
   103.779900000000         1.443785769473841E-064
   104.019300000000         1.249598542430282E-064
   104.258700000000         7.135519314201144E-065
   104.498100000000        -2.391851638160897E-065
   104.737500000000        -1.642136905351008E-064
   104.976900000000        -3.460005603492989E-064
   105.216300000000        -5.560387521220517E-064
   105.455700000000        -7.689736372299306E-064
   105.695100000000        -9.460276910034527E-064
   105.934500000000        -1.035581001923962E-063
   106.173900000000        -9.764689163104793E-064
   106.413300000000        -7.047182936589533E-064
   106.652700000000        -1.641490219585706E-064
   106.892100000000         6.792511214220210E-064
   107.131500000000         1.820022686977668E-063
   107.370900000000         3.194803812059751E-063
   107.610300000000         4.665655920874255E-063
   107.849700000000         6.009091796273444E-063
   108.089100000000         6.915588795698657E-063
   108.328500000000         7.004718904238227E-063
   108.567900000000         5.860593472110608E-063
   108.807300000000         3.090815869114183E-063
   109.046700000000        -1.590664859684880E-063
   109.286100000000        -8.260592808131874E-063
   109.525500000000        -1.667258153510657E-062
   109.764900000000        -2.614798068862767E-062
   110.004300000000        -3.549339657752042E-062
   110.243700000000        -4.297222742484770E-062
   110.483100000000        -4.636051436599525E-062
   110.722500000000        -4.311623778635290E-062
   110.961900000000        -3.068424184179416E-062
   111.201300000000        -6.944872271826140E-063
   111.440700000000         2.920754755992769E-062
   111.680100000000         7.719972297412417E-062
   111.919500000000         1.341062452880161E-061
   112.158900000000         1.940835990304383E-061
   112.398300000000         2.480597220292954E-061
   112.637700000000         2.838492403509476E-061
   112.877100000000         2.868659502628974E-061
   113.116500000000         2.415760811492691E-061
   113.355900000000         1.337702686645754E-061
   113.595300000000        -4.637602428166089E-062
   113.834700000000        -3.006344383550344E-061
   114.074100000000        -6.188139484023503E-061
   114.313500000000        -9.751779961969151E-061
   114.552900000000        -1.325949765999654E-060
   114.792300000000        -1.608811844529557E-060
   115.031700000000        -1.745358353201236E-060
   115.271100000000        -1.647367418243645E-060
   115.510500000000        -1.227484223685746E-060
   115.749900000000        -4.144074228535831E-061
   115.989300000000         8.280542277769127E-061
   116.228700000000         2.479615765086651E-060
   116.468100000000         4.442458234139366E-060
   116.707500000000         6.524158930544704E-060
   116.946900000000         8.429178813356177E-060
   117.186300000000         9.763971074538910E-060
   117.425700000000         1.006062726882404E-059
   117.665100000000         8.822944945589184E-060
   117.904500000000         5.596689208075612E-060
   118.143900000000         6.253641606313905E-062
   118.383300000000        -7.854205128712608E-060
   118.622700000000        -1.786823123164062E-059
   118.862100000000        -2.922990783877818E-059
   119.101500000000        -4.065370220742631E-059
   119.340900000000        -5.030466954199382E-059
   119.580300000000        -5.586913746992586E-059
   119.819700000000        -5.473264583153699E-059
   120.059100000000        -4.428009377480676E-059
   120.298500000000        -2.231922385806056E-059
   120.537900000000         1.239100755858580E-059
   120.777300000000         5.955008344954555E-059
   121.016700000000         1.167338297700886E-058
   121.256100000000         1.789176887640319E-058
   121.495500000000         2.382244385623805E-058
   121.734900000000         2.840269701202104E-058
   121.974300000000         3.035318787587210E-058
   122.213700000000         2.829427164866028E-058
   122.453100000000         2.092484333310244E-058
   122.692500000000         7.260098751396456E-059
   122.931900000000        -1.308617059664902E-058
   123.171300000000        -3.960184831187598E-058
   123.410700000000        -7.059981608326317E-058
   123.650100000000        -1.030170149880450E-057
   123.889500000000        -1.323505583930711E-057
   124.128900000000        -1.527945286807991E-057
   124.368300000000        -1.576343107718438E-057
   124.607700000000        -1.399370117436257E-057
   124.847100000000        -9.354514325887826E-058
   125.086500000000        -1.433621404528400E-058
   125.325900000000         9.834487521360605E-058
   125.565300000000         2.402363125991856E-057
   125.804700000000         4.009106618094177E-057
   126.044100000000         5.629970495938338E-057
   126.283500000000         7.021745423150734E-057
   126.522900000000         7.882322810396883E-057
   126.762300000000         7.874399077327156E-057
   127.001700000000         6.663627056457555E-057
   127.241100000000         3.970850724466017E-057
   127.480500000000        -3.642343330114790E-058
   127.719900000000        -6.313399301962452E-057
   127.959300000000        -1.359253313752215E-056
   128.198700000000        -2.160775651147385E-056
   128.438100000000        -2.942824582829533E-056
   128.677500000000        -3.579990483974131E-056
   128.916900000000        -3.921309631620362E-056
   129.156300000000        -3.803437521752540E-056
   129.395700000000        -3.070617791615277E-056
   129.635100000000        -1.600962457417506E-056
   129.874500000000         6.625720819396087E-057
   130.113900000000         3.679433273604435E-056
   130.353300000000         7.281209436912776E-056
   130.592700000000         1.114931713579605E-055
   130.832100000000         1.480691590718434E-055
   131.071500000000         1.763149949051863E-055
   131.310900000000         1.889388106715509E-055
   131.550300000000         1.782743510076054E-055
   131.789700000000         1.372834933861240E-055
   132.029100000000         6.083286916988711E-056
   132.268500000000        -5.284540502524912E-056
   132.507900000000        -2.006590454157335E-055
   132.747300000000        -3.733367335439721E-055
   132.986700000000        -5.545447777717682E-055
   133.226100000000        -7.207283839201235E-055
   133.465500000000        -8.419636022802709E-055
   133.704900000000        -8.840594152889351E-055
   133.944300000000        -8.120504899296743E-055
   134.183700000000        -5.950657460775962E-055
   134.423100000000        -2.123489199457661E-055
   134.662500000000         3.400434500847771E-055
   134.901900000000         1.042611462371563E-054
   135.141300000000         1.846850251234318E-054
   135.380700000000         2.671959082703172E-054
   135.620100000000         3.405116795658238E-054
   135.859500000000         3.906555117937442E-054
   136.098900000000         4.020392553779899E-054
   136.338300000000         3.591685111271649E-054
   136.577700000000         2.489396819213422E-054
   136.817100000000         6.340167909195361E-055
   137.056500000000        -1.972583927017170E-054
   137.295900000000        -5.218641336348603E-054
   137.535300000000        -8.859984922626048E-054
   137.774700000000        -1.250892920410409E-053
   138.014100000000        -1.564020363216101E-053
   138.253500000000        -1.761902990154010E-053
   138.492900000000        -1.775499665198163E-053
   138.732300000000        -1.538287602645691E-053