  -1.79550000000000         0.000000000000000E+000
  -1.55610000000000         0.000000000000000E+000
  -1.31670000000000         0.000000000000000E+000
  -1.07730000000000         0.000000000000000E+000
 -0.837900000000000         0.000000000000000E+000
 -0.598500000000000         0.000000000000000E+000
 -0.359100000000000         0.000000000000000E+000
 -0.119700000000000         0.000000000000000E+000
  0.119700000000000         0.000000000000000E+000
  0.359100000000000         0.000000000000000E+000
  0.598500000000000         0.000000000000000E+000
  0.837900000000000         0.000000000000000E+000
   1.07730000000000         0.000000000000000E+000
   1.31670000000000         0.000000000000000E+000
   1.55610000000000         0.000000000000000E+000
   1.79550000000000         0.000000000000000E+000
   2.03490000000000         0.000000000000000E+000
   2.27430000000000         0.000000000000000E+000
   2.51370000000000         0.000000000000000E+000
   2.75310000000000         0.000000000000000E+000
   2.99250000000000         0.000000000000000E+000
   3.23190000000000         0.000000000000000E+000
   3.47130000000000         0.000000000000000E+000
   3.71070000000000         0.000000000000000E+000
   3.95010000000000         0.000000000000000E+000
   4.18950000000000         0.000000000000000E+000
   4.42890000000000         0.000000000000000E+000
   4.66830000000000         0.000000000000000E+000
   4.90770000000000         0.000000000000000E+000
   5.14710000000000         0.000000000000000E+000
   5.38650000000000         0.000000000000000E+000
   5.62590000000000         0.000000000000000E+000
   5.86530000000000         0.000000000000000E+000
   6.10470000000000         0.000000000000000E+000
   6.34410000000000         0.000000000000000E+000
   6.58350000000000         0.000000000000000E+000
   6.82290000000000         0.000000000000000E+000
   7.06230000000000         0.000000000000000E+000
   7.30170000000000         0.000000000000000E+000
   7.54110000000000         0.000000000000000E+000
   7.78050000000000         0.000000000000000E+000
   8.01990000000000         0.000000000000000E+000
   8.25930000000000         0.000000000000000E+000
   8.49870000000000         0.000000000000000E+000
   8.73810000000000         0.000000000000000E+000
   8.97750000000000         0.000000000000000E+000
   9.21690000000000         0.000000000000000E+000
   9.45630000000000         0.000000000000000E+000
   9.69570000000000        -1.216021291144864E-202
   9.93510000000000         8.084582873131140E-174
   10.1745000000000        -4.542570034570242E-168
   10.4139000000000         2.869416726670762E-167
   10.6533000000000         2.649907509459779E-164
   10.8927000000000         1.190946439455956E-162
   11.1321000000000         1.349000438419565E-161
   11.3715000000000        -7.098743890441977E-160
   11.6109000000000        -4.154834968038556E-158
   11.8503000000000        -1.241600973869822E-156
   12.0897000000000        -2.679998811536982E-155
   12.3291000000000        -4.627001244689976E-154
   12.5685000000000        -6.715784724542666E-153
   12.8079000000000        -8.445024429972614E-152
   13.0473000000000        -9.390643354537280E-151
   13.2867000000000        -9.372661158888892E-150
   13.5261000000000        -8.493081162349653E-149
   13.7655000000000        -7.050650335836922E-148
   14.0049000000000        -5.401809193857359E-147
   14.2443000000000        -3.842602160777842E-146
   14.4837000000000        -2.550871337793550E-145
   14.7231000000000        -1.587035907362521E-144
   14.9625000000000        -9.287426183765521E-144
   15.2019000000000        -5.127992639129070E-143
   15.4413000000000        -2.678289290720886E-142
   15.6807000000000        -1.325959339734856E-141
   15.9201000000000        -6.232317684431821E-141
   16.1595000000000        -2.783832787527235E-140
   16.3989000000000        -1.181969045278813E-139
   16.6383000000000        -4.766029638291650E-139
   16.8777000000000        -1.820379305388328E-138
   17.1171000000000        -6.549240300318197E-138
   17.3565000000000        -2.194450867811067E-137
   17.5959000000000        -6.685825515598768E-137
   17.8353000000000        -1.746176542814765E-136
   18.0747000000000        -3.170832479632686E-136
   18.3141000000000         2.014812441571518E-136
   18.5535000000000         6.143710838011222E-135
   18.7929000000000         4.280726767840090E-134
   19.0323000000000         2.292025434827838E-133
   19.2717000000000         1.084017600229940E-132
   19.5111000000000         4.745023405252792E-132
   19.7505000000000         1.963534322051660E-131
   19.9899000000000         7.768371547703777E-131
   20.2293000000000         2.957810948163340E-130
   20.4687000000000         1.088285857462153E-129
   20.7081000000000         3.879915173302780E-129
   20.9475000000000         1.342833387287594E-128
   21.1869000000000         4.517906438832223E-128
   21.4263000000000         1.479198516544900E-127
   21.6657000000000         4.716984264635887E-127
   21.9051000000000         1.466133650733207E-126
   22.1445000000000         4.444723402052788E-126
   22.3839000000000         1.315076154347957E-125
   22.6233000000000         3.799762776967086E-125
   22.8627000000000         1.072813789724705E-124
   23.1021000000000         2.961565259598698E-124
   23.3415000000000         7.998763299985062E-124
   23.5809000000000         2.115033945967753E-123
   23.8203000000000         5.479108373397279E-123
   24.0597000000000         1.391635682115784E-122
   24.2991000000000         3.468260657891849E-122
   24.5385000000000         8.488657933421197E-122
   24.7779000000000         2.042208267527164E-121
   25.0173000000000         4.833980361580883E-121
   25.2567000000000         1.126868046721268E-120
   25.4961000000000         2.589526947862449E-120
   25.7355000000000         5.871396091953382E-120
   25.9749000000000         1.314578396611908E-119
   26.2143000000000         2.908286256930611E-119
   26.4537000000000         6.360325006232180E-119
   26.6931000000000         1.375242682129820E-118
   26.9325000000000         2.939441787486090E-118
   27.1719000000000         6.207438420587288E-118
   27.4113000000000         1.294024497516490E-117
   27.6507000000000         2.659623789519103E-117
   27.8901000000000         5.380939614868194E-117
   28.1295000000000         1.069587015755566E-116
   28.3689000000000         2.083972394751570E-116
   28.6083000000000         3.969121616008615E-116
   28.8477000000000         7.365259188781398E-116
   29.0871000000000         1.326146885547340E-115
   29.3265000000000         2.304604195080702E-115
   29.5659000000000         3.837357793544863E-115
   29.8053000000000         6.056411191408230E-115
   30.0447000000000         8.902684466825473E-115
   30.2841000000000         1.179525149429945E-114
   30.5235000000000         1.304604110143606E-114
   30.7629000000000         9.011936007824190E-115
   31.0023000000000        -6.734321249361244E-115
   31.2417000000000        -4.315507837539900E-114
   31.4811000000000        -1.076181209273745E-113
   31.7205000000000        -1.916586077770399E-113
   31.9599000000000        -2.344595350734392E-113
   32.1993000000000        -4.300420857824104E-114
   32.4387000000000         8.624105396300775E-113
   32.6781000000000         3.513385522791334E-112
   32.9175000000000         9.885854859980742E-112
   33.1569000000000         2.334998456376287E-111
   33.3963000000000         4.887186961255152E-111
   33.6357000000000         9.213137229323785E-111
   33.8751000000000         1.556759586608829E-110
   34.1145000000000         2.283937906467475E-110
   34.3539000000000         2.617354506507851E-110
   34.5933000000000         1.223773690163676E-110
   34.8327000000000        -4.924255428065722E-110
   35.0721000000000        -2.190208775989181E-109
   35.3115000000000        -6.070718019600178E-109
   35.5509000000000        -1.392744194347621E-108
   35.7903000000000        -2.833252093350119E-108
   36.0297000000000        -5.228887875442434E-108
   36.2691000000000        -8.780790784629250E-108
   36.5085000000000        -1.322691388065605E-107
   36.7479000000000        -1.707651913157264E-107
   36.9873000000000        -1.620207030949904E-107
   37.2267000000000        -1.543420432003678E-108
   37.4661000000000         4.415125559000857E-107
   37.7055000000000         1.500667224611582E-106
   37.9449000000000         3.597778285701523E-106
   38.1843000000000         7.281775626977190E-106
   38.4237000000000         1.304474436397996E-105
   38.6631000000000         2.086829851106477E-105
   38.9025000000000         2.927086267688807E-105
   39.1419000000000         3.358822485480976E-105
   39.3813000000000         2.325842595615276E-105
   39.6207000000000        -2.184872512371428E-105
   39.8601000000000        -1.352840017659806E-104
   40.0995000000000        -3.657472632445564E-104
   40.3389000000000        -7.716667102068568E-104
   40.5783000000000        -1.399423159130255E-103
   40.8177000000000        -2.230601477219854E-103
   41.0571000000000        -3.078461067663139E-103
   41.2965000000000        -3.412684515133284E-103
   41.5359000000000        -2.102176632413900E-103
   41.7753000000000         2.898352806901129E-103
   42.0147000000000         1.481123642895048E-102
   42.2541000000000         3.799082908683875E-102
   42.4935000000000         7.707244844887153E-102
   42.7329000000000         1.344873857005529E-101
   42.9723000000000         2.051574089659552E-101
   43.2117000000000         2.669708165327199E-101
   43.4511000000000         2.659506838928967E-101
   43.6905000000000         9.651135916237831E-102
   43.9299000000000        -4.191420496444042E-101
   44.1693000000000        -1.541309788740079E-100
   44.4087000000000        -3.589843178907897E-100
   44.6481000000000        -6.848144386064147E-100
   44.8875000000000        -1.133440113603758E-099
   45.1269000000000        -1.636421271973827E-099
   45.3663000000000        -1.983169123614040E-099
   45.6057000000000        -1.718572689518620E-099
   45.8451000000000        -2.173544168771360E-101
   46.0845000000000         4.393986646839849E-099
   46.3239000000000         1.327015143697134E-098
   46.5633000000000         2.851860238502998E-098
   46.8027000000000         5.140701426916408E-098
   47.0421000000000         8.086821243496726E-098
   47.2815000000000         1.105522112251871E-097
   47.5209000000000         1.243608054659410E-097
   47.7603000000000         9.064131642750224E-098
   47.9997000000000        -4.380904795390394E-098
   48.2391000000000        -3.570085545904022E-097
   48.4785000000000        -9.466422932827041E-097
   48.7179000000000        -1.907083022759820E-096
   48.9573000000000        -3.275023370855177E-096
   49.1967000000000        -4.927150606667493E-096
   49.4361000000000        -6.414500437182635E-096
   49.6755000000000        -6.728738660184622E-096
   49.9149000000000        -4.023217908475549E-096
   50.1543000000000         4.634295196675256E-096
   50.3937000000000         2.331055226763538E-095
   50.6331000000000         5.676084939814652E-095
   50.8725000000000         1.090305678874471E-094
   51.1119000000000         1.804901749631558E-094
   51.3513000000000         2.626179715425899E-094
   51.5907000000000         3.300033300068205E-094
   51.8301000000000         3.296586942369270E-094
   52.0695000000000         1.691104340392074E-094
   52.3089000000000        -2.927576657050111E-094
   52.5483000000000        -1.244209117913083E-093
   52.7877000000000        -2.895223059178835E-093
   53.0271000000000        -5.408566854211466E-093
   53.2665000000000        -8.762342402034843E-093
   53.5059000000000        -1.251778191739708E-092
   53.7453000000000        -1.547510717525423E-092
   53.9847000000000        -1.522845488419260E-092
   54.2241000000000        -7.689887252948723E-093
   54.4635000000000         1.324487112741396E-092
   54.7029000000000         5.556040905151165E-092
   54.9423000000000         1.279789610192637E-091
   55.1817000000000         2.370407614328075E-091
   55.4211000000000         3.814458247466159E-091
   55.6605000000000         5.426828411413508E-091
   55.8999000000000         6.713636691873642E-091
   56.1393000000000         6.698131885377682E-091
   56.3787000000000         3.737608034715462E-091
   56.6181000000000        -4.601053011312124E-091
   56.8575000000000        -2.148109242478024E-090
   57.0969000000000        -5.034804560220829E-090
   57.3363000000000        -9.380714883550353E-090
   57.5757000000000        -1.514730094276109E-089
   57.8151000000000        -2.164422728783525E-089
   58.0545000000000        -2.701962682939796E-089
   58.2939000000000        -2.761687312048664E-089
   58.5333000000000        -1.730624786431509E-089
   58.7727000000000         1.295809296318457E-089
   59.0121000000000         7.489718158541390E-089
   59.2515000000000         1.812569894490835E-088
   59.4909000000000         3.417403001861886E-088
   59.7303000000000         5.553111182327969E-088
   59.9697000000000         7.977251176507588E-088
   60.2091000000000         1.003754145071211E-087
   60.4485000000000         1.045135732268700E-087
   60.6879000000000         7.082601254465208E-088
   60.9273000000000        -3.195589269163297E-088
   61.1667000000000        -2.439522784484163E-087
   61.4061000000000        -6.082358318334818E-087
   61.6455000000000        -1.156839094438814E-086
   61.8849000000000        -1.884934074331304E-086
   62.1243000000000        -2.709924466287151E-086
   62.3637000000000        -3.414525340511391E-086
   62.6031000000000        -3.578276602857351E-086
   62.8425000000000        -2.511628483639093E-086
   63.0819000000000         7.782553689605309E-087
   63.3213000000000         7.540523154538909E-086
   63.5607000000000         1.907956255938562E-085
   63.8001000000000         3.630602714555356E-085
   64.0395000000000         5.893895528539456E-085
   64.2789000000000         8.428231215320915E-085
   64.5183000000000         1.055801925258337E-084
   64.7577000000000         1.101225991320622E-084
   64.9971000000000         7.755737912572641E-085
   65.2365000000000        -2.072051258360756E-085
   65.4759000000000        -2.197013692968906E-084
   65.7153000000000        -5.544493980390074E-084
   65.9547000000000        -1.046961182538727E-083
   66.1941000000000        -1.683839140964430E-083
   66.4335000000000        -2.383373337383906E-083
   66.6729000000000        -2.953092379055509E-083
   66.9123000000000        -3.043491472072524E-083
   67.1517000000000        -2.111006211777971E-083
   67.3911000000000         5.865466186667532E-084
   67.6305000000000         5.926759340263488E-083
   67.8699000000000         1.474478676433335E-082
   68.1093000000000         2.748765807759463E-082
   68.3487000000000         4.365398384223169E-082
   68.5881000000000         6.100198964822608E-082
   68.8275000000000         7.457429812763511E-082
   69.0669000000000         7.570133408351120E-082
   69.3063000000000         5.131376139389429E-082
   69.5457000000000        -1.588736625860874E-082
   69.7851000000000        -1.456140004813573E-081
   70.0245000000000        -3.555399804817168E-081
   70.2639000000000        -6.531771678839501E-081
   70.5033000000000        -1.023299975796059E-080
   70.7427000000000        -1.410914782426706E-080
   70.9821000000000        -1.701287104679452E-080
   71.2215000000000        -1.700981358020815E-080
   71.4609000000000        -1.127279320277767E-080
   71.7003000000000         3.825179505999426E-081
   71.9397000000000         3.226243722253469E-080
   72.1791000000000         7.738008653224876E-080
   72.4185000000000         1.401758739385363E-079
   72.6579000000000         2.167753829645759E-079
   72.8973000000000         2.951485547655728E-079
   73.1367000000000         3.514480882429294E-079
   73.3761000000000         3.468120840605911E-079
   73.6155000000000         2.260866212093051E-079
   73.8549000000000        -7.938113932245464E-080
   74.0943000000000        -6.421026121081538E-079
   74.3337000000000        -1.518886754158226E-078
   74.5731000000000        -2.718701333947309E-078
   74.8125000000000        -4.156921298750350E-078
   75.0519000000000        -5.598294959158848E-078
   75.2913000000000        -6.596525000822683E-078
   75.5307000000000        -6.446288865317558E-078
   75.7701000000000        -4.173376606457656E-078
   76.0095000000000         1.400996099296916E-078
   76.2489000000000         1.147748091830675E-077
   76.4883000000000         2.693170555620053E-077
   76.7277000000000         4.776844441651000E-077
   76.9671000000000         7.237294118467206E-077
   77.2065000000000         9.661330064748973E-077
   77.4459000000000         1.129376512082734E-076
   77.6853000000000         1.097310016102515E-076
   77.9247000000000         7.133905922243878E-077
   78.1641000000000        -2.069522241108135E-077
   78.4035000000000        -1.845459518496639E-076
   78.6429000000000        -4.325555874491591E-076
   78.8823000000000        -7.628295304509547E-076
   79.1217000000000        -1.148092346538226E-075
   79.3611000000000        -1.522811757965146E-075
   79.6005000000000        -1.770901849404025E-075
   79.8399000000000        -1.717993883082004E-075
   80.0793000000000        -1.134123502050580E-075
   80.3187000000000         2.456601287483242E-076
   80.5581000000000         2.674433430415990E-075
   80.7975000000000         6.312842159209106E-075
   81.0369000000000         1.111107218181452E-074
   81.2763000000000         1.665712090559559E-074
   81.5157000000000         2.200743894426234E-074
   81.7551000000000         2.553324088782680E-074
   81.9945000000000         2.483690942645236E-074
   82.2339000000000         1.681504792260913E-074
   82.4733000000000        -2.037451094644062E-075
   82.7127000000000        -3.498255531101132E-074
   82.9521000000000        -8.397140218015320E-074
   83.1915000000000        -1.481248117205428E-073
   83.4309000000000        -2.218332459177471E-073
   83.6703000000000        -2.927023078035263E-073
   83.9097000000000        -3.397777318927112E-073
   84.1491000000000        -3.327276846198736E-073
   84.3885000000000        -2.329012473837053E-073
   84.6279000000000         2.645681577778265E-075
   84.8673000000000         4.130568488930554E-073
   85.1067000000000         1.020687546216120E-072
   85.3461000000000         1.813079471308471E-072
   85.5855000000000         2.720963820119602E-072
   85.8249000000000         3.595143444705628E-072
   86.0643000000000         4.187411046865022E-072
   86.3037000000000         4.143255679946236E-072
   86.5431000000000         3.016528604359731E-072
   86.7825000000000         3.177409273725089E-073
   87.0219000000000        -4.392764665612890E-072
   87.2613000000000        -1.135910187201781E-071
   87.5007000000000        -2.043188616907071E-071
   87.7401000000000        -3.083166096723180E-071
   87.9795000000000        -4.090629567964407E-071
   88.2189000000000        -4.793861183793830E-071
   88.4583000000000        -4.808610703522804E-071
   88.6977000000000        -3.655714967907077E-071
   88.9371000000000        -8.139775494779396E-072
   89.1765000000000         4.180978054846259E-071
   89.4159000000000         1.158529036813974E-070
   89.6553000000000         2.124473575175030E-070
   89.8947000000000         3.235730231319462E-070
   90.1341000000000         4.323453107625944E-070
   90.3735000000000         5.111827599490066E-070
   90.6129000000000         5.213311393866706E-070
   90.8523000000000         4.147418539492508E-070
   91.0917000000000         1.393850660044799E-070
   91.3311000000000        -3.510439732596377E-070
   91.5705000000000        -1.082494015430496E-069
   91.8099000000000        -2.041294835792335E-069
   92.0493000000000        -3.151830244026511E-069
   92.2887000000000        -4.254425052834778E-069
   92.5281000000000        -5.088738095492065E-069
   92.7675000000000        -5.289989923413790E-069
   93.0069000000000        -4.406952316979690E-069
   93.2463000000000        -1.951146419210332E-069
   93.4857000000000         2.514644701131601E-069
   93.7251000000000         9.244472242302693E-069
   93.9645000000000         1.813727612692986E-068
   94.2039000000000         2.853942845730038E-068
   94.4433000000000         3.905094656807006E-068
   94.6827000000000         4.738142701383038E-068
   94.9221000000000         5.031834839129118E-068
   95.1615000000000         4.388280081298420E-068
   95.4009000000000         2.375064460150531E-068
   95.6403000000000        -1.399567456538765E-068
   95.8797000000000        -7.175431826777642E-068
   96.1191000000000        -1.489621150565165E-067
   96.3585000000000        -2.404469687870443E-067
   96.5979000000000        -3.348159688436025E-067
   96.8373000000000        -4.132538625706391E-067
   97.0767000000000        -4.492348679971747E-067
   97.3161000000000        -4.097431278958987E-067
   97.5555000000000        -2.586126565863332E-067
   97.7949000000000         3.751073656826348E-068
   98.0343000000000         5.003621606649570E-067
   98.2737000000000         1.128667554088015E-066
   98.5131000000000         1.885137785425075E-066
   98.7525000000000         2.683707898815222E-066
   98.9919000000000         3.379880173544600E-066
   99.2313000000000         3.767975638498112E-066
   99.4707000000000         3.589762677545063E-066
   99.7101000000000         2.559016653145975E-066
   99.9495000000000         4.057346942278771E-067
   100.188900000000        -3.058341293756717E-066
   100.428300000000        -7.854794445327278E-066
   100.667700000000        -1.374119454578526E-065
   100.907100000000        -2.011476224642303E-065
   101.146500000000        -2.593754474619681E-065
   101.385900000000        -2.971028983054520E-065
   101.625300000000        -2.952685488901459E-065
   101.864700000000        -2.324156707895604E-065
   102.104100000000        -8.776178708839646E-066
   102.343500000000         1.542123817121919E-065
   102.582900000000         4.977751130590319E-065
   102.822300000000         9.290257483227454E-065
   103.061700000000         1.408951477767642E-064
   103.301100000000         1.867845116077423E-064
   103.540500000000         2.202923051436680E-064
   103.779900000000         2.281300901109581E-064
   104.019300000000         1.950534864990181E-064
   104.258700000000         1.058571683418525E-064
   104.498100000000        -5.159701337161563E-065
   104.737500000000        -2.823840123467498E-064
   104.976900000000        -5.798418375142084E-064
   105.216300000000        -9.207921689145723E-064
   105.455700000000        -1.261539422811075E-063
   105.695100000000        -1.535828058313885E-063
   105.934500000000        -1.656151152130600E-063
   106.173900000000        -1.519851180785551E-063
   106.413300000000        -1.021245087612504E-063
   106.652700000000        -7.045366889293759E-065
   106.892100000000         1.381341973014616E-063
   107.131500000000         3.311870517621111E-063
   107.370900000000         5.596355628521855E-063
   107.610300000000         7.980039487381907E-063
   107.849700000000         1.006182804578166E-062
   108.089100000000         1.129763512225953E-062
   108.328500000000         1.103243884727847E-062
   108.567900000000         8.568999698846643E-063
   108.807300000000         3.278107526624022E-063
   109.046700000000        -5.250254482493645E-063
   109.286100000000        -1.702342462603823E-062
   109.525500000000        -3.144902480189412E-062
   109.764900000000        -4.715462555226683E-062
   110.004300000000        -6.186564038576842E-062
   110.243700000000        -7.239182544783745E-062
   110.483100000000        -7.477641101440065E-062
   110.722500000000        -6.465724340161414E-062
   110.961900000000        -3.787337852544643E-062
   111.201300000000         8.678938345975937E-063
   111.440700000000         7.598087084517258E-062
   111.680100000000         1.617129742368292E-061
   111.919500000000         2.591266723310446E-061
   112.158900000000         3.561930375075576E-061
   112.398300000000         4.353109930263141E-061
   112.637700000000         4.738849535329952E-061
   112.877100000000         4.460664230539517E-061
   113.116500000000         3.258784532239844E-061
   113.355900000000         9.179279253367419E-062
   113.595300000000        -2.673990084903554E-061
   113.834700000000        -7.458817691521396E-061
   114.074100000000        -1.314096529312865E-060
   114.313500000000        -1.913188291250729E-060
   114.552900000000        -2.452126474777179E-060
   114.792300000000        -2.809198699439224E-060
   115.031700000000        -2.839560167270427E-060
   115.271100000000        -2.390198203789040E-060
   115.510500000000        -1.322968794292264E-060
   115.749900000000         4.547621902551336E-061
   115.989300000000         2.953871240786749E-060
   116.228700000000         6.065466487007961E-060
   116.468100000000         9.526931039525612E-060
   116.707500000000         1.289965088168942E-059
   116.946900000000         1.556732863212491E-059
   117.186300000000         1.676406232626807E-059
   117.425700000000         1.564018448220986E-059
   117.665100000000         1.137079737385848E-059
   117.904500000000         3.306740958891546E-060
   118.143900000000        -8.839617962495813E-060
   118.383300000000        -2.479052739429534E-059
   118.622700000000        -4.350779909765226E-059
   118.862100000000        -6.304323908800683E-059
   119.101500000000        -8.047890986849975E-059
   119.340900000000        -9.200495570841460E-059
   119.580300000000        -9.317947109343804E-059
   119.819700000000        -7.940283465306339E-059
   120.059100000000        -4.661648691940063E-059
   120.298500000000         7.797179667578580E-060
   120.537900000000         8.398018414641526E-059
   120.777300000000         1.785454751445844E-058
   121.016700000000         2.836709452426004E-058
   121.256100000000         3.865506405059606E-058
   121.495500000000         4.694391359507078E-058
   121.734900000000         5.105230713132479E-058
   121.974300000000         4.858126759997352E-058
   122.213700000000         3.721569234301990E-058
   122.453100000000         1.513442887988473E-058
   122.692500000000        -1.849406960459028E-058
   122.931900000000        -6.297653417555006E-058
   123.171300000000        -1.155908315321609E-057
   123.410700000000        -1.712067794392349E-057
   123.650100000000        -2.221424348321691E-057
   123.889500000000        -2.583721993226364E-057
   124.128900000000        -2.681923953161254E-057
   124.368300000000        -2.394182002453962E-057
   124.607700000000        -1.611299275305291E-057
   124.847100000000        -2.590623094816758E-058
   125.086500000000         1.676197407809024E-057
   125.325900000000         4.121598869212497E-057
   125.565300000000         6.895197113964825E-057
   125.804700000000         9.691857737909053E-057
   126.044100000000         1.208298298394198E-056
   126.283500000000         1.353547331099653E-056
   126.522900000000         1.345435655180503E-056
   126.762300000000         1.125151157472234E-056
   127.001700000000         6.439771236122857E-057
   127.241100000000        -1.252527511983836E-057
   127.480500000000        -1.175651822983586E-056
   127.719900000000        -2.454266592140408E-056
   127.959300000000        -3.852591372734335E-056
   128.198700000000        -5.202029367984678E-056
   128.438100000000        -6.276865162797706E-056
   128.677500000000        -6.807122105562062E-056
   128.916900000000        -6.503051909612810E-056
   129.156300000000        -5.091878343229344E-056
   129.395700000000        -2.365779725756509E-056
   129.635100000000         1.761993030535879E-056
   129.874500000000         7.198353464012139E-056
   130.113900000000         1.361689717072564E-055
   130.353300000000         2.041975702956967E-055
   130.592700000000         2.672624892359849E-055
   130.832100000000         3.139994216774622E-055
   131.071500000000         3.312428581946655E-055
   131.310900000000         3.053334717539374E-055
   131.550300000000         2.239835454196533E-055
   131.789700000000         7.862628875526724E-056
   132.029100000000        -1.329246436840891E-055
   132.268500000000        -4.037889476843229E-055
   132.507900000000        -7.156977833895573E-055
   132.747300000000        -1.037515516764105E-054
   132.986700000000        -1.325133451331066E-054
   133.226100000000        -1.523252248982165E-054
   133.465500000000        -1.569477158486398E-054
   133.704900000000        -1.400961189090007E-054
   133.944300000000        -9.635391920031777E-055
   134.183700000000        -2.229064672302311E-055
   134.423100000000         8.230684560653982E-055
   134.662500000000         2.132304137121135E-054
   134.901900000000         3.608615264032090E-054
   135.141300000000         5.096206421642997E-054
   135.380700000000         6.380946987376757E-054
   135.620100000000         7.200688402581745E-054
   135.859500000000         7.266368063531370E-054
   136.098900000000         6.294684241987622E-054
   136.338300000000         4.051706212186780E-054
   136.577700000000         4.049471559142387E-055
   136.817100000000        -4.620704320265412E-054
   137.056500000000        -1.079001682104221E-053
   137.295900000000        -1.761624540587208E-053
   137.535300000000        -2.434201971320047E-053
   137.774700000000        -2.995298492750538E-053
   138.014100000000        -3.323390247353411E-053
   138.253500000000        -3.287414989048765E-053
   138.492900000000        -2.762478373965052E-053
   138.732300000000        -1.650253326608945E-053