  -1.79550000000000         0.000000000000000E+000
  -1.55610000000000         0.000000000000000E+000
  -1.31670000000000         0.000000000000000E+000
  -1.07730000000000         0.000000000000000E+000
 -0.837900000000000         0.000000000000000E+000
 -0.598500000000000         0.000000000000000E+000
 -0.359100000000000         0.000000000000000E+000
 -0.119700000000000         0.000000000000000E+000
  0.119700000000000         0.000000000000000E+000
  0.359100000000000         0.000000000000000E+000
  0.598500000000000         0.000000000000000E+000
  0.837900000000000         0.000000000000000E+000
   1.07730000000000         0.000000000000000E+000
   1.31670000000000         0.000000000000000E+000
   1.55610000000000         0.000000000000000E+000
   1.79550000000000         0.000000000000000E+000
   2.03490000000000         0.000000000000000E+000
   2.27430000000000         0.000000000000000E+000
   2.51370000000000         0.000000000000000E+000
   2.75310000000000         0.000000000000000E+000
   2.99250000000000         0.000000000000000E+000
   3.23190000000000         0.000000000000000E+000
   3.47130000000000         0.000000000000000E+000
   3.71070000000000         0.000000000000000E+000
   3.95010000000000         0.000000000000000E+000
   4.18950000000000         0.000000000000000E+000
   4.42890000000000         0.000000000000000E+000
   4.66830000000000         0.000000000000000E+000
   4.90770000000000         0.000000000000000E+000
   5.14710000000000         0.000000000000000E+000
   5.38650000000000         0.000000000000000E+000
   5.62590000000000         0.000000000000000E+000
   5.86530000000000         0.000000000000000E+000
   6.10470000000000         0.000000000000000E+000
   6.34410000000000         0.000000000000000E+000
   6.58350000000000         0.000000000000000E+000
   6.82290000000000         0.000000000000000E+000
   7.06230000000000         0.000000000000000E+000
   7.30170000000000         0.000000000000000E+000
   7.54110000000000         0.000000000000000E+000
   7.78050000000000         0.000000000000000E+000
   8.01990000000000         0.000000000000000E+000
   8.25930000000000         0.000000000000000E+000
   8.49870000000000         0.000000000000000E+000
   8.73810000000000         0.000000000000000E+000
   8.97750000000000         0.000000000000000E+000
   9.21690000000000         3.612772398658139E-188
   9.45630000000000         4.245944793289814E-186
   9.69570000000000        -4.733420541901611E-182
   9.93510000000000        -6.411674415093529E-171
   10.1745000000000         6.720862547291963E-169
   10.4139000000000         8.925406478816747E-167
   10.6533000000000         1.341123226901559E-165
   10.8927000000000        -1.163915937038947E-163
   11.1321000000000        -7.093681777661327E-162
   11.3715000000000        -2.099332813887134E-160
   11.6109000000000        -4.135062502014266E-159
   11.8503000000000        -5.844250597274431E-158
   12.0897000000000        -5.761426325076811E-157
   12.3291000000000        -2.840419433282396E-156
   12.5685000000000         2.743409260988342E-155
   12.8079000000000         9.548695099265185E-154
   13.0473000000000         1.559606362334090E-152
   13.2867000000000         1.931744064914647E-151
   13.5261000000000         2.013376295800388E-150
   13.7655000000000         1.844506940724075E-149
   14.0049000000000         1.521426896564480E-148
   14.2443000000000         1.147477405674972E-147
   14.4837000000000         8.000125920582436E-147
   14.7231000000000         5.198229749631043E-146
   14.9625000000000         3.167827407710561E-145
   15.2019000000000         1.819515695675672E-144
   15.4413000000000         9.887543665597469E-144
   15.6807000000000         5.097690532192966E-143
   15.9201000000000         2.498084609011549E-142
   16.1595000000000         1.164539007654690E-141
   16.3989000000000         5.162926781879507E-141
   16.6383000000000         2.173310468128824E-140
   16.8777000000000         8.655808016753432E-140
   17.1171000000000         3.240926708117638E-139
   17.3565000000000         1.127667524848880E-138
   17.5959000000000         3.565658308787782E-138
   17.8353000000000         9.742822644364986E-138
   18.0747000000000         1.965792809949273E-137
   18.3141000000000         3.730003281215017E-138
   18.5535000000000        -2.489792294933943E-136
   18.7929000000000        -1.829620083810454E-135
   19.0323000000000        -9.590090372848027E-135
   19.2717000000000        -4.308607206372743E-134
   19.5111000000000        -1.754575831593265E-133
   19.7505000000000        -6.636907554923274E-133
   19.9899000000000        -2.362153666490678E-132
   20.2293000000000        -7.970334866202544E-132
   20.4687000000000        -2.561766180936451E-131
   20.7081000000000        -7.868342644291327E-131
   20.9475000000000        -2.314759205856414E-130
   21.1869000000000        -6.534561525709309E-130
   21.4263000000000        -1.773425871657638E-129
   21.6657000000000        -4.637522334805478E-129
   21.9051000000000        -1.172444404004858E-128
   22.1445000000000        -2.880920343680790E-128
   22.3839000000000        -6.937543498014498E-128
   22.6233000000000        -1.657299540451432E-127
   22.8627000000000        -3.989700902473342E-127
   23.1021000000000        -9.837508412997536E-127
   23.3415000000000        -2.511899855983132E-126
   23.5809000000000        -6.643823979045808E-126
   23.8203000000000        -1.800937879259247E-125
   24.0597000000000        -4.921140363297499E-125
   24.2991000000000        -1.333417108069364E-124
   24.5385000000000        -3.535529145355011E-124
   24.7779000000000        -9.085906094395330E-124
   25.0173000000000        -2.247545431132790E-123
   25.2567000000000        -5.322044278619780E-123
   25.4961000000000        -1.199858434780979E-122
   25.7355000000000        -2.558394786481798E-122
   25.9749000000000        -5.108575824180984E-122
   26.2143000000000        -9.392644792877069E-122
   26.4537000000000        -1.537460181997203E-121
   26.6931000000000        -2.057463902526894E-121
   26.9325000000000        -1.547482283850338E-121
   27.1719000000000         2.633702526106188E-121
   27.4113000000000         1.668778831080109E-120
   27.6507000000000         5.349318381757404E-120
   27.8901000000000         1.369909502102976E-119
   28.1295000000000         3.068619654049122E-119
   28.3689000000000         6.207414994540581E-119
   28.6083000000000         1.150011675757800E-118
   28.8477000000000         1.970666267313402E-118
   29.0871000000000         3.181136830997131E-118
   29.3265000000000         5.079113310572515E-118
   29.5659000000000         8.893682131832524E-118
   29.8053000000000         1.906894553481624E-117
   30.0447000000000         4.928757417908012E-117
   30.2841000000000         1.364714050058409E-116
   30.5235000000000         3.698501120626582E-116
   30.7629000000000         9.446109118597233E-116
   31.0023000000000         2.247283905510672E-115
   31.2417000000000         4.961776534272265E-115
   31.4811000000000         1.012712541124506E-114
   31.7205000000000         1.893678052030007E-114
   31.9599000000000         3.177557235008546E-114
   32.1993000000000         4.545891233733164E-114
   32.4387000000000         4.681529306526919E-114
   32.6781000000000        -2.488129085451937E-116
   32.9175000000000        -1.776619186619162E-113
   33.1569000000000        -6.481240679823414E-113
   33.3963000000000        -1.697145921116847E-112
   33.6357000000000        -3.758135279283477E-112
   33.8751000000000        -7.354586603536410E-112
   34.1145000000000        -1.281499951161319E-111
   34.3539000000000        -1.948970185908893E-111
   34.5933000000000        -2.403084680022157E-111
   34.8327000000000        -1.714646622842377E-111
   35.0721000000000         2.171903594476762E-111
   35.3115000000000         1.317045375390732E-110
   35.5509000000000         3.778550949463319E-110
   35.7903000000000         8.520749963606044E-110
   36.0297000000000         1.653010922499691E-109
   36.2691000000000         2.816581143363695E-109
   36.5085000000000         4.150405969431895E-109
   36.7479000000000         4.907282117492334E-109
   36.9873000000000         3.230735387198988E-109
   37.2267000000000        -4.645997545903922E-109
   37.4661000000000        -2.530447438390310E-108
   37.7055000000000        -6.863290792702265E-108
   37.9449000000000        -1.466810439513151E-107
   38.1843000000000        -2.685074296905764E-107
   38.4237000000000        -4.271031928457766E-107
   38.6631000000000        -5.729566578239201E-107
   38.9025000000000        -5.685483057867617E-107
   39.1419000000000        -1.216269211749392E-107
   39.3813000000000         1.292904120783392E-106
   39.6207000000000         4.485426198272437E-106
   39.8601000000000         1.049063217596148E-105
   40.0995000000000         2.022536504689609E-105
   40.3389000000000         3.359291346588235E-105
   40.5783000000000         4.766382921058473E-105
   40.8177000000000         5.355625845275717E-105
   41.0571000000000         3.189043634000112E-105
   41.2965000000000        -5.251466618181830E-105
   41.5359000000000        -2.543007780778825E-104
   41.7753000000000        -6.440742917161365E-104
   42.0147000000000        -1.287526893810191E-103
   42.2541000000000        -2.191112238203414E-103
   42.4935000000000        -3.193377126856688E-103
   42.7329000000000        -3.782231053228133E-103
   42.9723000000000        -2.835121232056992E-103
   43.2117000000000         1.673806827935493E-103
   43.4511000000000         1.285851922029343E-102
   43.6905000000000         3.469170932067833E-102
   43.9299000000000         7.081868144672001E-102
   44.1693000000000         1.216035021974045E-101
   44.4087000000000         1.784203854100544E-101
   44.6481000000000         2.143861734996553E-101
   44.8875000000000         1.717348435279530E-101
   45.1269000000000        -5.146361081679968E-102
   45.3663000000000        -6.077544154014668E-101
   45.6057000000000        -1.684801430532625E-100
   45.8451000000000        -3.442699904524785E-100
   46.0845000000000        -5.868741356323599E-100
   46.3239000000000        -8.510579716627037E-100
   46.5633000000000        -1.006381327611299E-099
   46.8027000000000        -7.843501415669824E-100
   47.0421000000000         2.712899122953784E-100
   47.2815000000000         2.815534543845893E-099
   47.5209000000000         7.607949734821258E-099
   47.7603000000000         1.520975861949213E-098
   47.9997000000000         2.533820541292218E-098
   48.2391000000000         3.574917889490093E-098
   48.4785000000000         4.060923482216172E-098
   48.7179000000000         2.856610878150589E-098
   48.9573000000000        -1.878191695161380E-098
   49.1967000000000        -1.265161808964751E-097
   49.4361000000000        -3.215333620877310E-097
   49.6755000000000        -6.194260514373256E-097
   49.9149000000000        -9.986790889787362E-097
   50.1543000000000        -1.358687883326667E-096
   50.3937000000000        -1.462402330497596E-096
   50.6331000000000        -8.743871299304568E-097
   50.8725000000000         1.076861649866446E-096
   51.1119000000000         5.256257189828530E-096
   51.3513000000000         1.250904853104575E-095
   51.5907000000000         2.315619378556586E-095
   51.8301000000000         3.607026927594580E-095
   52.0695000000000         4.725886370357307E-095
   52.3089000000000         4.805337734218699E-095
   52.5483000000000         2.335328527939014E-095
   52.7877000000000        -4.903626803437592E-095
   53.0271000000000        -1.961119008642775E-094
   53.2665000000000        -4.416294890940901E-094
   53.5059000000000        -7.888276968608359E-094
   53.7453000000000        -1.190682187885083E-093
   53.9847000000000        -1.506754553908035E-093
   54.2241000000000        -1.451546128651650E-093
   54.4635000000000        -5.502551865032656E-094
   54.7029000000000         1.865039111541811E-093
   54.9423000000000         6.563376492199109E-093
   55.1817000000000         1.414884934001349E-092
   55.4211000000000         2.452995445562975E-092
   55.6605000000000         3.605201933394168E-092
   55.8999000000000         4.429861152093632E-092
   56.1393000000000         4.074303757775158E-092
   56.3787000000000         1.173791099647808E-092
   56.6181000000000        -6.121798049829980E-092
   56.8575000000000        -1.984434979235107E-091
   57.0969000000000        -4.142691581597078E-091
   57.3363000000000        -7.023004960899856E-091
   57.5757000000000        -1.012285291506247E-090
   57.8151000000000        -1.219383893792213E-090
   58.0545000000000        -1.091303286568551E-090
   58.2939000000000        -2.664973983321955E-091
   58.5333000000000         1.732495955644060E-090
   58.7727000000000         5.413889687993757E-090
   59.0121000000000         1.111241290076802E-089
   59.2515000000000         1.861768001301849E-089
   59.4909000000000         2.660692762486784E-089
   59.7303000000000         3.191085778278694E-089
   59.9697000000000         2.875234663246370E-089
   60.2091000000000         8.275371776409584E-090
   60.4485000000000        -4.107737118136614E-089
   60.6879000000000        -1.315100754261232E-088
   60.9273000000000        -2.711041314937902E-088
   61.1667000000000        -4.553043824955862E-088
   61.4061000000000        -6.541085106957019E-088
   61.6455000000000        -7.956673316223123E-088
   61.8849000000000        -7.493824823909954E-088
   62.1243000000000        -3.153062433458155E-088
   62.3637000000000         7.684023670837804E-088
   62.6031000000000         2.782782866218331E-087
   62.8425000000000         5.928828418875309E-087
   63.0819000000000         1.015071396179232E-086
   63.3213000000000         1.487004057213266E-086
   63.5607000000000         1.864432832971220E-086
   63.8001000000000         1.880896883454000E-086
   64.0395000000000         1.123301294621228E-086
   64.2789000000000        -9.586737562836611E-087
   64.5183000000000        -4.976577624326903E-086
   64.7577000000000        -1.141985847160443E-085
   64.9971000000000        -2.032440789993815E-085
   65.2365000000000        -3.076841753780416E-085
   65.4759000000000        -4.021391978788804E-085
   65.7153000000000        -4.379267376203117E-085
   65.9547000000000        -3.375959032495599E-085
   66.1941000000000         4.976502172228549E-087
   66.4335000000000         7.132022596398354E-085
   66.6729000000000         1.897882500627778E-084
   66.9123000000000         3.601312305917748E-084
   67.1517000000000         5.710250455301274E-084
   67.3911000000000         7.839246455251622E-084
   67.6305000000000         9.198485964918341E-084
   67.8699000000000         8.480229241950886E-084
   68.1093000000000         3.824767066793902E-084
   68.3487000000000        -7.042559719888479E-084
   68.5881000000000        -2.638492954193258E-083
   68.8275000000000        -5.561033443006815E-083
   69.0669000000000        -9.391052002124729E-083
   69.3063000000000        -1.363730986840562E-082
   69.5457000000000        -1.717378310829028E-082
   69.7851000000000        -1.802587343624365E-082
   70.0245000000000        -1.325347414406270E-082
   70.2639000000000         9.355443498539360E-084
   70.5033000000000         2.866332220501696E-082
   70.7427000000000         7.324967062305421E-082
   70.9821000000000         1.352921615057545E-081
   71.2215000000000         2.098898611585648E-081
   71.4609000000000         2.831733627290910E-081
   71.7003000000000         3.286904221252951E-081
   71.9397000000000         3.047466895085840E-081
   72.1791000000000         1.544751889395349E-081
   72.4185000000000        -1.889100342265427E-081
   72.6579000000000        -7.887529057092214E-081
   72.8973000000000        -1.680654895540308E-080
   73.1367000000000        -2.835514224861002E-080
   73.3761000000000        -4.110840494197925E-080
   73.6155000000000        -5.195956210541183E-080
   73.8549000000000        -5.563613028128613E-080
   74.0943000000000        -4.449391101562931E-080
   74.3337000000000        -8.898062182212634E-081
   74.5731000000000         6.142143568854442E-080
   74.8125000000000         1.746318956479085E-079
   75.0519000000000         3.323613790384360E-079
   75.2913000000000         5.235170714372819E-079
   75.5307000000000         7.168239999852882E-079
   75.7701000000000         8.533442929963917E-079
   76.0095000000000         8.413011017799730E-079
   76.2489000000000         5.567553971991153E-079
   76.4883000000000        -1.451796126527742E-079
   76.7277000000000        -1.403275103795822E-078
   76.9671000000000        -3.302454303102563E-078
   77.2065000000000        -5.802937037760403E-078
   77.4459000000000        -8.648840640791085E-078
   77.6853000000000        -1.126713690858865E-077
   77.9247000000000        -1.267959088097634E-077
   78.1641000000000        -1.146462937696103E-077
   78.4035000000000        -5.820780123557729E-078
   78.6429000000000         6.205697539913571E-078
   78.8823000000000         2.626527697142452E-077
   79.1217000000000         5.497486652956002E-077
   79.3611000000000         9.090972721085387E-077
   79.6005000000000         1.293934894247080E-076
   79.8399000000000         1.612802131993489E-076
   80.0793000000000         1.720754799096972E-076
   80.3187000000000         1.419140599310197E-076
   80.5581000000000         4.706399817275712E-077
   80.7975000000000        -1.362965544436279E-076
   81.0369000000000        -4.253619340104851E-076
   81.2763000000000        -8.207009850747895E-076
   81.5157000000000        -1.293309699731360E-075
   81.7551000000000        -1.770127062292190E-075
   81.9945000000000        -2.120919191998016E-075
   82.2339000000000        -2.151226803751202E-075
   82.4733000000000        -1.607878221776872E-075
   82.7127000000000        -2.049050527359403E-076
   82.9521000000000         2.322154893587902E-075
   83.1915000000000         6.127528246164684E-075
   83.4309000000000         1.113103287419719E-074
   83.6703000000000         1.686638928022469E-074
   83.9097000000000         2.232319833770754E-074
   84.1491000000000         2.582081332165321E-074
   84.3885000000000         2.497126533556513E-074
   84.6279000000000         1.680545066780485E-074
   84.8673000000000        -1.853958564837590E-075
   85.1067000000000        -3.369593978333022E-074
   85.3461000000000        -7.985557596935319E-074
   85.5855000000000        -1.385001498642533E-073
   85.8249000000000        -2.031941031950923E-073
   86.0643000000000        -2.613175276279276E-073
   86.3037000000000        -2.929905570390046E-073
   86.5431000000000        -2.711382576564367E-073
   86.7825000000000        -1.634728598136208E-073
   87.0219000000000         6.279192436533902E-074
   87.2613000000000         4.328270941600376E-073
   87.5007000000000         9.524278135737921E-073
   87.7401000000000         1.593127934263458E-072
   87.9795000000000         2.275866747258769E-072
   88.2189000000000         2.856390108789805E-072
   88.4583000000000         3.117272375201331E-072
   88.6977000000000         2.773048492387304E-072
   88.9371000000000         1.495973664566731E-072
   89.1765000000000        -1.030258177885605E-072
   89.4159000000000        -5.023658727484559E-072
   89.6553000000000        -1.048364288476707E-071
   89.8947000000000        -1.704511124929049E-071
   90.1341000000000        -2.382626301215389E-071
   90.3735000000000        -2.930369669677964E-071
   90.6129000000000        -3.126348879399282E-071
   90.8523000000000        -2.688984947934541E-071
   91.0917000000000        -1.305903687828453E-071
   91.3311000000000         1.310038754631786E-071
   91.5705000000000         5.334561865921447E-071
   91.8099000000000         1.071713811273942E-070
   92.0493000000000         1.704700294589980E-070
   92.2887000000000         2.342010059786304E-070
   92.5281000000000         2.833956732576042E-070
   92.7675000000000         2.969485989749004E-070
   93.0069000000000         2.487415362845351E-070
   93.2463000000000         1.106702874495295E-070
   93.4857000000000        -1.419523818572193E-070
   93.7251000000000        -5.224140370203896E-070
   93.9645000000000        -1.022320108605300E-069
   94.2039000000000        -1.600006545466089E-069
   94.4433000000000        -2.169560740790748E-069
   94.6827000000000        -2.593393359601636E-069
   94.9221000000000        -2.682270517052393E-069
   95.1615000000000        -2.207356396272576E-069
   95.4009000000000        -9.287858070758391E-070
   95.6403000000000         1.355810212816108E-069
   95.8797000000000         4.741946684587737E-069
   96.1191000000000         9.131480648042019E-069
   96.3585000000000         1.413777006247256E-068
   96.5979000000000         1.899964317066426E-068
   96.8373000000000         2.252900991089924E-068
   97.0767000000000         2.312397671360955E-068
   97.3161000000000         1.888324716781723E-068
   97.5555000000000         7.855707803018964E-069
   97.7949000000000        -1.155152674352708E-068
   98.0343000000000        -4.000535521321047E-068
   98.2737000000000        -7.655299013135695E-068
   98.5131000000000        -1.178837353226303E-067
   98.7525000000000        -1.576844981848560E-067
   98.9919000000000        -1.862859123519509E-067
   99.2313000000000        -1.908443486305424E-067
   99.4707000000000        -1.563268032040259E-067
   99.7101000000000        -6.754086043902879E-068
   99.9495000000000         8.764000015443082E-068
   100.188900000000         3.138819220951630E-067
   100.428300000000         6.031226469947890E-067
   100.667700000000         9.290809859722541E-067
   100.907100000000         1.242606517269350E-066
   101.146500000000         1.469342088711723E-066
   101.385900000000         1.511490238560350E-066
   101.625300000000         1.255583381664336E-066
   101.864700000000         5.879188711376572E-067
   102.104100000000        -5.814037991020240E-067
   102.343500000000        -2.286223508286220E-066
   102.582900000000        -4.466165925171657E-066
   102.822300000000        -6.927440475668601E-066
   103.061700000000        -9.310266660729044E-066
   103.301100000000        -1.107335813584614E-065
   103.540500000000        -1.150792204812982E-065
   103.779900000000        -9.794136489567041E-066
   104.019300000000        -5.111140986354469E-066
   104.258700000000         3.193664975195777E-066
   104.498100000000         1.537942151429134E-065
   104.737500000000         3.104744136513868E-065
   104.976900000000         4.887127099855331E-065
   105.216300000000         6.637353205913212E-065
   105.455700000000         7.981969202831236E-065
   105.695100000000         8.431162265448265E-065
   105.934500000000         7.416623196120640E-065
   106.173900000000         4.365085109233145E-065
   106.413300000000        -1.188799816455629E-065
   106.652700000000        -9.452616551342630E-065
   106.892100000000        -2.020037678910296E-064
   107.131500000000        -3.259254914328976E-064
   107.370900000000        -4.502565985503205E-064
   107.610300000000        -5.505642011456104E-064
   107.849700000000        -5.945329292661516E-064
   108.089100000000        -5.442990107790308E-064
   108.328500000000        -3.610619738511503E-064
   108.567900000000        -1.221606169696786E-065
   108.807300000000         5.191287005273762E-064
   109.046700000000         1.222896579624100E-063
   109.286100000000         2.050391922520202E-063
   109.525500000000         2.904298377017399E-063
   109.764900000000         3.633083929722109E-063
   110.004300000000         4.033067952504768E-063
   110.243700000000         3.861530447843065E-063
   110.483100000000         2.863781066492459E-063
   110.722500000000         8.158624684989279E-064
   110.961900000000        -2.417598608542383E-063
   111.201300000000        -6.813988085752114E-063
   111.440700000000        -1.211926580510728E-062
   111.680100000000        -1.778238966786272E-062
   111.919500000000        -2.291373923093786E-062
   112.158900000000        -2.628690969672285E-062
   112.398300000000        -2.640440122326907E-062
   112.637700000000        -2.164560891065341E-062
   112.877100000000        -1.050898212117623E-062
   113.116500000000         8.051592565952241E-063
   113.355900000000         3.421351176002100E-062
   113.595300000000         6.683495686671091E-062
   113.834700000000         1.030323933884006E-061
   114.074100000000         1.378768265106236E-061
   114.313500000000         1.643204665074182E-061
   114.552900000000         1.734757600815777E-061
   114.792300000000         1.553616962023953E-061
   115.031700000000         1.002011722202497E-061
   115.271100000000         2.925364001612503E-064
   115.510500000000        -1.476144640782477E-061
   115.749900000000        -3.396313283820879E-061
   115.989300000000        -5.620704581155850E-061
   116.228700000000        -7.893020382575348E-061
   116.468100000000        -9.827523913717050E-061
   116.707500000000        -1.091752368204671E-060
   116.946900000000        -1.056941269751748E-060
   117.186300000000        -8.168020413970554E-061
   117.425700000000        -3.176122732017121E-061
   117.665100000000         4.733791856601052E-061
   117.904500000000         1.552398200536197E-060
   118.143900000000         2.862870848721967E-060
   118.383300000000         4.280971064951503E-060
   118.622700000000         5.606375044312683E-060
   118.862100000000         6.562237686610175E-060
   119.101500000000         6.808619280293640E-060
   119.340900000000         5.973159014960523E-060
   119.580300000000         3.701499129499176E-060
   119.819700000000        -2.723546047580936E-061
   120.059100000000        -6.038953102671563E-060
   120.298500000000        -1.341720603971213E-059
   120.537900000000        -2.186171123678130E-059
   120.777300000000        -3.039137975346121E-059
   121.016700000000        -3.756146869016219E-059
   121.256100000000        -4.150358843751132E-059
   121.495500000000        -4.005753602949769E-059
   121.734900000000        -3.101361524705221E-059
   121.974300000000        -1.247332269008530E-059
   122.213700000000         1.668073453273347E-059
   122.453100000000         5.623791319440207E-059
   122.692500000000         1.040957025061412E-058
   122.931900000000         1.557690552474712E-058
   123.171300000000         2.040907247704039E-058
   123.410700000000         2.392402163457695E-058
   123.650100000000         2.492436867801071E-058
   123.889500000000         2.210692575205865E-058
   124.128900000000         1.423947524869930E-058
   124.368300000000         4.042881357393385E-060
   124.607700000000        -1.970387708345892E-058
   124.847100000000        -4.545243287394323E-058
   125.086500000000        -7.496219395368220E-058
   125.325900000000        -1.048757046656401E-057
   125.565300000000        -1.302766633291482E-057
   125.804700000000        -1.448410665393926E-057
   126.044100000000        -1.412962886207710E-057
   126.283500000000        -1.122447829837743E-057
   126.522900000000        -5.137118836160116E-058
   126.762300000000         4.500613799186134E-058
   127.001700000000         1.761544294075020E-057
   127.241100000000         3.351216219716451E-057
   127.480500000000         5.072056269417734E-057
   127.719900000000         6.690786704833317E-057
   127.959300000000         7.890003376395851E-057
   128.198700000000         8.285538685677614E-057
   128.438100000000         7.462668530181467E-057
   128.677500000000         5.033104672178784E-057
   128.916900000000         7.119944762858737E-058
   129.156300000000        -5.589599455919351E-057
   129.395700000000        -1.366584066425873E-056
   129.635100000000        -2.292494390920912E-056
   129.874500000000        -3.232440946979522E-056
   130.113900000000        -4.035482990948747E-056
   130.353300000000        -4.509553978973303E-056
   130.592700000000        -4.436298659518215E-056
   130.832100000000        -3.596575206531207E-056
   131.071500000000        -1.806793001575556E-056
   131.310900000000         1.035504260674273E-056
   131.550300000000         4.900623758397710E-056
   131.789700000000         9.576589498210305E-056
   132.029100000000         1.462866519921458E-055
   132.268500000000         1.937930636913222E-055
   132.507900000000         2.292031250822910E-055
   132.747300000000         2.416837500349801E-055
   132.986700000000         2.197252274544165E-055
   133.226100000000         1.527674991304275E-055
   133.465500000000         3.333225716575548E-056
   133.704900000000        -1.404881605862082E-055
   133.944300000000        -3.624537149615470E-055
   134.183700000000        -6.159029000305521E-055
   134.423100000000        -8.722804449544600E-055
   134.662500000000        -1.091031057001000E-054
   134.901900000000        -1.221422753819315E-054
   135.141300000000        -1.206768373635190E-054
   135.380700000000        -9.913037000890021E-055
   135.620100000000        -5.296448994581311E-055
   135.859500000000         2.017069167887109E-055
   136.098900000000         1.191891477814415E-054
   136.338300000000         2.383903751728411E-054
   136.577700000000         3.665689490715201E-054
   136.817100000000         4.866696228640198E-054
   137.056500000000         5.762561739029805E-054
   137.295900000000         6.090332566851022E-054
   137.535300000000         5.575814012170814E-054
   137.774700000000         3.973297595220842E-054
   138.014100000000         1.115999075005559E-054
   138.253500000000        -3.026830321735390E-054
   138.492900000000        -8.292772080396398E-054
   138.732300000000        -1.427826832036456E-053