  -1.79550000000000         0.000000000000000E+000
  -1.55610000000000         0.000000000000000E+000
  -1.31670000000000         0.000000000000000E+000
  -1.07730000000000         0.000000000000000E+000
 -0.837900000000000         0.000000000000000E+000
 -0.598500000000000         0.000000000000000E+000
 -0.359100000000000         0.000000000000000E+000
 -0.119700000000000         0.000000000000000E+000
  0.119700000000000         0.000000000000000E+000
  0.359100000000000         0.000000000000000E+000
  0.598500000000000         0.000000000000000E+000
  0.837900000000000         0.000000000000000E+000
   1.07730000000000         0.000000000000000E+000
   1.31670000000000         0.000000000000000E+000
   1.55610000000000         0.000000000000000E+000
   1.79550000000000         0.000000000000000E+000
   2.03490000000000         0.000000000000000E+000
   2.27430000000000         0.000000000000000E+000
   2.51370000000000         0.000000000000000E+000
   2.75310000000000         0.000000000000000E+000
   2.99250000000000         0.000000000000000E+000
   3.23190000000000         0.000000000000000E+000
   3.47130000000000         0.000000000000000E+000
   3.71070000000000         0.000000000000000E+000
   3.95010000000000         0.000000000000000E+000
   4.18950000000000         0.000000000000000E+000
   4.42890000000000         0.000000000000000E+000
   4.66830000000000         0.000000000000000E+000
   4.90770000000000         0.000000000000000E+000
   5.14710000000000         0.000000000000000E+000
   5.38650000000000         0.000000000000000E+000
   5.62590000000000         0.000000000000000E+000
   5.86530000000000         0.000000000000000E+000
   6.10470000000000         0.000000000000000E+000
   6.34410000000000         0.000000000000000E+000
   6.58350000000000         0.000000000000000E+000
   6.82290000000000         0.000000000000000E+000
   7.06230000000000         0.000000000000000E+000
   7.30170000000000         0.000000000000000E+000
   7.54110000000000         0.000000000000000E+000
   7.78050000000000         0.000000000000000E+000
   8.01990000000000         0.000000000000000E+000
   8.25930000000000         0.000000000000000E+000
   8.49870000000000         5.625584687943122E-190
   8.73810000000000        -7.394278238843863E-182
   8.97750000000000         1.076747390796626E-175
   9.21690000000000         9.558401920170207E-175
   9.45630000000000         6.009160220617109E-170
   9.69570000000000         4.730167890504651E-168
   9.93510000000000         1.777579585250286E-166
   10.1745000000000         4.229235234602263E-165
   10.4139000000000         6.924924943873042E-164
   10.6533000000000         7.293524104573785E-163
   10.8927000000000         1.478081809173639E-162
   11.1321000000000        -1.427957821532228E-160
   11.3715000000000        -4.153116886945199E-159
   11.6109000000000        -7.773177088216096E-158
   11.8503000000000        -1.159994384384922E-156
   12.0897000000000        -1.472820830816619E-155
   12.3291000000000        -1.640015924961648E-154
   12.5685000000000        -1.630662018476238E-153
   12.8079000000000        -1.465985246821001E-152
   13.0473000000000        -1.203231191420567E-151
   13.2867000000000        -9.089305574320091E-151
   13.5261000000000        -6.364687026619795E-150
   13.7655000000000        -4.158844226055886E-149
   14.0049000000000        -2.552253493194532E-148
   14.2443000000000        -1.480703747722112E-147
   14.4837000000000        -8.176171047409010E-147
   14.7231000000000        -4.327528809254354E-146
   14.9625000000000        -2.211411263557198E-145
   15.2019000000000        -1.098635775680482E-144
   15.4413000000000        -5.338430529867553E-144
   15.6807000000000        -2.548389535285801E-143
   15.9201000000000        -1.197839883500526E-142
   16.1595000000000        -5.544219321198282E-142
   16.3989000000000        -2.522543999957785E-141
   16.6383000000000        -1.125058473012018E-140
   16.8777000000000        -4.903289106954625E-140
   17.1171000000000        -2.082160094474117E-139
   17.3565000000000        -8.594632222851783E-139
   17.5959000000000        -3.442514610672702E-138
   17.8353000000000        -1.336500490141581E-137
   18.0747000000000        -5.026141507530769E-137
   18.3141000000000        -1.830492812242933E-136
   18.5535000000000        -6.456338510231883E-136
   18.7929000000000        -2.205920762793743E-135
   19.0323000000000        -7.303520770179817E-135
   19.2717000000000        -2.344213174726024E-134
   19.5111000000000        -7.297634071628583E-134
   19.7505000000000        -2.204385528853315E-133
   19.9899000000000        -6.464122569056370E-133
   20.2293000000000        -1.840929226128541E-132
   20.4687000000000        -5.093933757678078E-132
   20.7081000000000        -1.370069205302171E-131
   20.9475000000000        -3.583474023582663E-131
   21.1869000000000        -9.119642864296676E-131
   21.4263000000000        -2.259861481153826E-130
   21.6657000000000        -5.458522649265987E-130
   21.9051000000000        -1.287201557148087E-129
   22.1445000000000        -2.970564417877365E-129
   22.3839000000000        -6.732934014995312E-129
   22.6233000000000        -1.506476290128827E-128
   22.8627000000000        -3.350316689942868E-128
   23.1021000000000        -7.467504191171515E-128
   23.3415000000000        -1.682521115083445E-127
   23.5809000000000        -3.858354053322504E-127
   23.8203000000000        -9.030184334519652E-127
   24.0597000000000        -2.151507239753499E-126
   24.2991000000000        -5.181237587738011E-126
   24.5385000000000        -1.248983409056422E-125
   24.7779000000000        -2.983590780570354E-125
   25.0173000000000        -6.998886036155810E-125
   25.2567000000000        -1.599759958007876E-124
   25.4961000000000        -3.539141294844467E-124
   25.7355000000000        -7.530101262788176E-124
   25.9749000000000        -1.530252048925229E-123
   26.2143000000000        -2.944096361910774E-123
   26.4537000000000        -5.292614614057182E-123
   26.6931000000000        -8.691145767191046E-123
   26.9325000000000        -1.243644065965637E-122
   27.1719000000000        -1.355484737610833E-122
   27.4113000000000        -4.010984920306778E-123
   27.6507000000000         3.371669369084808E-122
   27.8901000000000         1.316405608829728E-121
   28.1295000000000         3.367652819101374E-121
   28.3689000000000         6.926444637910520E-121
   28.6083000000000         1.169540626856408E-120
   28.8477000000000         1.482650009466172E-120
   29.0871000000000         7.080826675252202E-121
   29.3265000000000        -3.388198518787363E-120
   29.5659000000000        -1.524960164620066E-119
   29.8053000000000        -4.208410804362172E-119
   30.0447000000000        -9.217701558032819E-119
   30.2841000000000        -1.662065334806880E-118
   30.5235000000000        -2.315199141418830E-118
   30.7629000000000        -1.610669730282044E-118
   31.0023000000000         3.911390051003776E-118
   31.2417000000000         2.210587100389877E-117
   31.4811000000000         6.850966084337156E-117
   31.7205000000000         1.699443199524028E-116
   31.9599000000000         3.652767748706696E-116
   32.1993000000000         6.949418830341769E-116
   32.4387000000000         1.160963715975538E-115
   32.6781000000000         1.623183401132350E-115
   32.9175000000000         1.576002834767137E-115
   33.1569000000000        -2.689795732365623E-116
   33.3963000000000        -6.661635691464039E-115
   33.6357000000000        -2.273189104021049E-114
   33.8751000000000        -5.685109201739658E-114
   34.1145000000000        -1.204987688708138E-113
   34.3539000000000        -2.249419352255815E-113
   34.5933000000000        -3.703957354858648E-113
   34.8327000000000        -5.202199261604482E-113
   35.0721000000000        -5.491478455789164E-113
   35.3115000000000        -1.525824797361624E-113
   35.5509000000000         1.291342464280937E-112
   35.7903000000000         4.893803595809173E-112
   36.0297000000000         1.239244624114227E-111
   36.2691000000000         2.606799108216828E-111
   36.5085000000000         4.804498115817665E-111
   36.7479000000000         7.825459559198878E-111
   36.9873000000000         1.099120072988633E-110
   37.2267000000000         1.209681004689007E-110
   37.4661000000000         6.000231711356127E-111
   37.7055000000000        -1.737855186752003E-110
   37.9449000000000        -7.530286224964596E-110
   38.1843000000000        -1.935004350851979E-109
   38.4237000000000        -4.036336069103361E-109
   38.6631000000000        -7.314246632834342E-109
   38.9025000000000        -1.166143840116416E-108
   39.1419000000000        -1.598062422259439E-108
   39.3813000000000        -1.708368331230115E-108
   39.6207000000000        -8.012255282777566E-109
   39.8601000000000         2.410008278959889E-108
   40.0995000000000         9.995161534536422E-108
   40.3389000000000         2.480175146922192E-107
   40.5783000000000         4.989080328083440E-107
   40.8177000000000         8.678776320661130E-107
   41.0571000000000         1.316165207311008E-106
   41.2965000000000         1.679810483890714E-106
   41.5359000000000         1.556838039418279E-106
   41.7753000000000         1.562868958921273E-107
   42.0147000000000        -3.854943326024301E-106
   42.2541000000000        -1.240648550192686E-105
   42.4935000000000        -2.776962098265785E-105
   42.7329000000000        -5.162590939460442E-105
   42.9723000000000        -8.291366269321360E-105
   43.2117000000000        -1.137900640079333E-104
   43.4511000000000        -1.231767528896403E-104
   43.6905000000000        -6.806504256124886E-105
   43.9299000000000         1.254526026025032E-104
   44.1693000000000         5.659584286019046E-104
   44.4087000000000         1.384077686511413E-103
   44.6481000000000         2.684276368449747E-103
   44.8875000000000         4.433349131048168E-103
   45.1269000000000         6.253205746186030E-103
   45.3663000000000         7.094250551415347E-103
   45.6057000000000         4.803722832472297E-103
   45.8451000000000        -4.306136633147661E-103
   46.0845000000000        -2.561580473042178E-102
   46.3239000000000        -6.554072179111676E-102
   46.5633000000000        -1.291649771506216E-101
   46.8027000000000        -2.149230130147630E-101
   47.0421000000000        -3.049560464025398E-101
   47.2815000000000        -3.502827550014376E-101
   47.5209000000000        -2.517580847007439E-101
   47.7603000000000         1.581361757260591E-101
   47.9997000000000         1.120364872736489E-100
   48.2391000000000         2.918032410274190E-100
   48.4785000000000         5.771789435103512E-100
   48.7179000000000         9.612649053811885E-100
   48.9573000000000         1.368089289056123E-099
   49.1967000000000         1.592458003963781E-099
   49.4361000000000         1.224783370619003E-099
   49.6755000000000        -4.180934312549785E-100
   49.9149000000000        -4.307790499359361E-099
   50.1543000000000        -1.157731988969073E-098
   50.3937000000000        -2.311774483962628E-098
   50.6331000000000        -3.872586818620270E-098
   50.8725000000000        -5.563297660729973E-098
   51.1119000000000        -6.634431514150195E-098
   51.3513000000000        -5.599581939744604E-098
   51.5907000000000         1.653560207402484E-101
   51.8301000000000         1.364802960137059E-097
   52.0695000000000         3.939809386564723E-097
   52.3089000000000         8.053769614841996E-097
   52.5483000000000         1.367779651124125E-096
   52.7877000000000         1.995025605850514E-096
   53.0271000000000         2.449028098012472E-096
   53.2665000000000         2.257121907626822E-096
   53.5059000000000         6.390990028531561E-097
   53.7453000000000        -3.506117862425893E-096
   53.9847000000000        -1.146901776396882E-095
   54.2241000000000        -2.433007490407040E-095
   54.4635000000000        -4.214357227639860E-095
   54.7029000000000        -6.257121716573549E-095
   54.9423000000000        -7.893253568568786E-095
   55.1817000000000        -7.788261170212909E-095
   55.4211000000000        -3.737529048837516E-095
   55.6605000000000         7.374054403421885E-095
   55.8999000000000         2.922436175411833E-094
   56.1393000000000         6.499917720611461E-094
   56.3787000000000         1.152523476932064E-093
   56.6181000000000         1.743502523205104E-093
   56.8575000000000         2.254297343942583E-093
   57.0969000000000         2.344068160427927E-093
   57.3363000000000         1.446672157570760E-093
   57.5757000000000        -1.242733623132416E-093
   57.8151000000000        -6.687177731470596E-093
   58.0545000000000        -1.575717839021448E-092
   58.2939000000000        -2.871991909834900E-092
   58.5333000000000        -4.438900710587876E-092
   58.7727000000000        -5.891417595239138E-092
   59.0121000000000        -6.432671659214155E-092
   59.2515000000000        -4.720051298029783E-092
   59.4909000000000         1.184251724906955E-092
   59.7303000000000         1.365773682460827E-091
   59.9697000000000         3.498654422306153E-091
   60.2091000000000         6.625454766424919E-091
   60.4485000000000         1.054637646069023E-090
   60.6879000000000         1.448108227468622E-090
   60.9273000000000         1.673179627350099E-090
   61.1667000000000         1.435150938183269E-090
   61.4061000000000         2.963365338143259E-091
   61.6455000000000        -2.302182830886890E-090
   61.8849000000000        -6.943226897104443E-090
   62.1243000000000        -1.401621437819761E-089
   62.3637000000000        -2.333554026521077E-089
   62.6031000000000        -3.356836950329099E-089
   62.8425000000000        -4.149404361626502E-089
   63.0819000000000        -4.120956443044338E-089
   63.3213000000000        -2.354217128225467E-089
   63.5607000000000         2.386885152755642E-089
   63.8001000000000         1.151240567052783E-088
   64.0395000000000         2.623393489648198E-088
   64.2789000000000         4.686500337793340E-088
   64.5183000000000         7.171589711519137E-088
   64.7577000000000         9.557805648549153E-088
   64.9971000000000         1.079462699196660E-087
   65.2365000000000         9.138397947137153E-088
   65.4759000000000         2.080907328750535E-088
   65.7153000000000        -1.350564570344172E-087
   65.9547000000000        -4.083472368097178E-087
   66.1941000000000        -8.207639266721916E-087
   66.4335000000000        -1.364354547749713E-086
   66.6729000000000        -1.973294282784989E-086
   66.9123000000000        -2.487811780397083E-086
   67.1517000000000        -2.615471560278686E-086
   67.3911000000000        -1.901301587173074E-086
   67.6305000000000         2.732934726331015E-087
   67.8699000000000         4.633142057767260E-086
   68.1093000000000         1.185490044287850E-085
   68.3487000000000         2.227320838452932E-085
   68.5881000000000         3.541234528519342E-085
   68.8275000000000         4.933541597545053E-085
   69.0669000000000         5.985972056516016E-085
   69.3063000000000         5.978212250534325E-085
   69.5457000000000         3.839618750202540E-085
   69.7851000000000        -1.824287751156460E-085
   70.0245000000000        -1.256642214626712E-084
   70.2639000000000        -2.971541568683513E-084
   70.5033000000000        -5.369608428666302E-084
   70.7427000000000        -8.299868367641907E-084
   70.9821000000000        -1.128101370495574E-083
   71.2215000000000        -1.334477770847952E-083
   71.4609000000000        -1.289365600809076E-083
   71.7003000000000        -7.634530997963749E-084
   71.9397000000000         5.317634390032276E-084
   72.1791000000000         2.904019090625481E-083
   72.4185000000000         6.596208280690757E-083
   72.6579000000000         1.164475186733712E-082
   72.8973000000000         1.767343752189188E-082
   73.1367000000000         2.363048291133320E-082
   73.3761000000000         2.750220031685022E-082
   73.6155000000000         2.607473485746247E-082
   73.8549000000000         1.486481318171281E-082
   74.0943000000000        -1.160445766231285E-082
   74.3337000000000        -5.895859442262611E-082
   74.5731000000000        -1.313138550697404E-081
   74.8125000000000        -2.286032620011296E-081
   75.0519000000000        -3.428238394324075E-081
   75.2913000000000        -4.534262695412197E-081
   75.5307000000000        -5.225314041032199E-081
   75.7701000000000        -4.913116138117039E-081
   76.0095000000000        -2.796800513552319E-081
   76.2489000000000         2.077312560750129E-081
   76.4883000000000         1.065682926249987E-080
   76.7277000000000         2.358828444364238E-080
   76.9671000000000         4.075883542193711E-080
   77.2065000000000         6.067382952113713E-080
   77.4459000000000         7.971828404278604E-080
   77.6853000000000         9.142570810023446E-080
   77.9247000000000         8.597907203626614E-080
   78.1641000000000         5.028733816839841E-080
   78.4035000000000        -3.090422710552133E-080
   78.6429000000000        -1.723377681158935E-079
   78.8823000000000        -3.834902697452394E-079
   79.1217000000000        -6.614234130961881E-079
   79.3611000000000        -9.813504789641635E-079
   79.6005000000000        -1.285789464429873E-078
   79.8399000000000        -1.474281419942911E-078
   80.0793000000000        -1.397081593276852E-078
   80.3187000000000        -8.578216416693852E-079
   80.5581000000000         3.684316445765272E-079
   80.7975000000000         2.494565044155504E-078
   81.0369000000000         5.651814856903781E-078
   81.2763000000000         9.787814612835801E-078
   81.5157000000000         1.453536041185659E-077
   81.7551000000000         1.906549588553747E-077
   81.9945000000000         2.195339783600477E-077
   82.2339000000000         2.110396605209348E-077
   82.4733000000000         1.380360788762895E-077
   82.7127000000000        -3.019025846654122E-078
   82.9521000000000        -3.223458757302041E-077
   83.1915000000000        -7.558165590300387E-077
   83.4309000000000        -1.323312790219154E-076
   83.6703000000000        -1.976015882856536E-076
   83.9097000000000        -2.605107931911434E-076
   84.1491000000000        -3.025399856792794E-076
   84.3885000000000        -2.966963891531061E-076
   84.6279000000000        -2.082912147481691E-076
   84.8673000000000         1.681728609297068E-078
   85.1067000000000         3.695425639657578E-076
   85.3461000000000         9.174753984446738E-076
   85.5855000000000         1.637372757231968E-075
   85.8249000000000         2.470748514212990E-075
   86.0643000000000         3.287064603347336E-075
   86.3037000000000         3.864901405645474E-075
   86.5431000000000         3.882826034824112E-075
   86.7825000000000         2.929194646230390E-075
   87.0219000000000         5.418272413876432E-076
   87.2613000000000        -3.711389310686643E-075
   87.5007000000000        -1.010251045642689E-074
   87.7401000000000        -1.856222307519924E-074
   87.9795000000000        -2.845680171482200E-074
   88.2189000000000        -3.834996171420699E-074
   88.4583000000000        -4.579831445293027E-074
   88.6977000000000        -4.725416196458120E-074
   88.9371000000000        -3.817314804065948E-074
   89.1765000000000        -1.344009101728987E-074
   89.4159000000000         3.177507789474897E-074
   89.6553000000000         1.006491014825521E-073
   89.8947000000000         1.928124138571668E-073
   90.1341000000000         3.020379187801160E-073
   90.3735000000000         4.137900282765395E-073
   90.6129000000000         5.031304487626348E-073
   90.8523000000000         5.337186285478120E-073
   91.0917000000000         4.588667672061462E-073
   91.3311000000000         2.257459602017252E-073
   91.5705000000000        -2.161963165969061E-073
   91.8099000000000        -9.018590348832332E-073
   92.0493000000000        -1.832091726121247E-072
   92.2887000000000        -2.951364481137106E-072
   92.5281000000000        -4.124203996616191E-072
   92.7675000000000        -5.115100392592215E-072
   93.0069000000000        -5.578756590943431E-072
   93.2463000000000        -5.069475862395182E-072
   93.4857000000000        -3.079563511495096E-072
   93.7251000000000         8.839177492779250E-073
   93.9645000000000         7.177723719244479E-072
   94.2039000000000         1.585635916387531E-071
   94.4433000000000         2.647159797552057E-071
   94.6827000000000         3.786191789719419E-071
   94.9221000000000         4.797325583320870E-071
   95.1615000000000         5.377045889015220E-071
   95.4009000000000         5.131410393698729E-071
   95.6403000000000         3.608492636432627E-071
   95.8797000000000         3.631656935943385E-072
   96.1191000000000        -4.940916781889244E-071
   96.3585000000000        -1.239269133779487E-070
   96.5979000000000        -2.166739252455205E-070
   96.8373000000000        -3.185291654502851E-070
   97.0767000000000        -4.130253264631204E-070
   97.3161000000000        -4.756124431400010E-070
   97.5555000000000        -4.742407440467871E-070
   97.7949000000000        -3.718897580295184E-070
   98.0343000000000        -1.316031087181637E-070
   98.2737000000000         2.756385095989541E-070
   98.5131000000000         8.602986168429762E-070
   98.7525000000000         1.601652247827796E-069
   98.9919000000000         2.434703120421904E-069
   99.2313000000000         3.239164086117869E-069
   99.4707000000000         3.833940001023638E-069
   99.7101000000000         3.981242555972211E-069
   99.9495000000000         3.404649131691778E-069
   100.188900000000         1.824786132307331E-069
   100.428300000000        -9.854194494217107E-070
   100.667700000000        -5.127022842692869E-069
   100.907100000000        -1.048836688251087E-068
   101.146500000000        -1.665638200689555E-068
   101.385900000000        -2.284283871248776E-068
   101.625300000000        -2.784799668904085E-068
   101.864700000000        -3.008768906876025E-068
   102.104100000000        -2.770990412561064E-068
   102.343500000000        -1.882163695786700E-068
   102.582900000000        -1.834713441887930E-069
   102.822300000000         2.408030487320300E-068
   103.061700000000         5.846965803896329E-068
   103.301100000000         9.907036987717337E-068
   103.540500000000         1.413837795372267E-067
   103.779900000000         1.784761498828845E-067
   104.019300000000         2.011466452593152E-067
   104.258700000000         1.985933728471686E-067
   104.498100000000         1.596683396946817E-067
   104.737500000000         7.473711870863848E-068
   104.976900000000        -6.195093817786912E-068
   105.216300000000        -2.496130539358740E-067
   105.455700000000        -4.783819243790155E-067
   105.695100000000        -7.273613876118201E-067
   105.934500000000        -9.638765858482019E-067
   106.173900000000        -1.144497715295699E-066
   106.413300000000        -1.218286312582345E-066
   106.652700000000        -1.132441438428239E-066
   106.892100000000        -8.401143512109036E-067
   107.131500000000        -3.096525611103008E-067
   107.370900000000         4.659941727017054E-067
   107.610300000000         1.461404915215920E-066
   107.849700000000         2.614244383877274E-066
   108.089100000000         3.825932961846606E-066
   108.328500000000         4.968409066271314E-066
   108.567900000000         5.896711574077361E-066
   108.807300000000         6.465409270623360E-066
   109.046700000000         6.545020796721360E-066
   109.286100000000         6.032960996215868E-066
   109.525500000000         4.852848234040246E-066
   109.764900000000         2.936937325967301E-066
   110.004300000000         1.896802765993378E-067
   110.243700000000        -3.563621747944827E-066
   110.483100000000        -8.630531319930448E-066
   110.722500000000        -1.548470626397572E-065
   110.961900000000        -2.474569144097861E-065
   111.201300000000        -3.706540650332114E-065
   111.440700000000        -5.288174577761893E-065
   111.680100000000        -7.201165971354062E-065
   111.919500000000        -9.308386519077313E-065
   112.158900000000        -1.128575213312421E-064
   112.398300000000        -1.255372918816190E-064
   112.637700000000        -1.222719233413340E-064
   112.877100000000        -9.110133322927059E-065
   113.116500000000        -1.767778024605240E-065
   113.355900000000         1.128950424986652E-064
   113.595300000000         3.128146568951522E-064
   113.834700000000         5.867887760619155E-064
   114.074100000000         9.258447118982109E-064
   114.313500000000         1.300295485219033E-063
   114.552900000000         1.652946649237752E-063
   114.792300000000         1.894219210896944E-063
   115.031700000000         1.901424914646368E-063
   115.271100000000         1.524822092277743E-063
   115.510500000000         6.031266276054418E-064
   115.749900000000        -1.009344328759262E-063
   115.989300000000        -3.402946897434162E-063
   116.228700000000        -6.561550431847548E-063
   116.468100000000        -1.030408251929092E-062
   116.707500000000        -1.422666930133266E-062
   116.946900000000        -1.765740956672708E-062
   117.186300000000        -1.963974425192495E-062
   117.425700000000        -1.896318993689456E-062
   117.665100000000        -1.426077735047888E-062
   117.904500000000        -4.189633450645716E-063
   118.143900000000         1.229641627747727E-062
   118.383300000000         3.558644809668078E-062
   118.622700000000         6.498736337225297E-062
   118.862100000000         9.828125419953428E-062
   119.101500000000         1.313394521358536E-061
   119.340900000000         1.578942484009499E-061
   119.580300000000         1.695905571789899E-061
   119.819700000000         1.564491054017589E-061
   120.059100000000         1.078626538486859E-061
   120.298500000000         1.420984774020239E-062
   120.537900000000        -1.308986009887632E-061
   120.777300000000        -3.278328126338463E-061
   121.016700000000        -5.678478733055040E-061
   121.256100000000        -8.300783887518439E-061
   121.495500000000        -1.079199258696172E-060
   121.734900000000        -1.264488621191706E-060
   121.974300000000        -1.321137370807727E-060
   122.213700000000        -1.174663743365212E-060
   122.453100000000        -7.491648071196795E-061
   122.692500000000         2.017476959671608E-062
   122.931900000000         1.170426043670767E-060
   123.171300000000         2.690981082712335E-060
   123.410700000000         4.502181239928604E-060
   123.650100000000         6.435466963212028E-060
   123.889500000000         8.219153220608559E-060
   124.128900000000         9.474930240896769E-060
   124.368300000000         9.730798874077245E-060
   124.607700000000         8.456090793164332E-060
   124.847100000000         5.123191248585641E-060
   125.086500000000        -7.017109676808189E-061
   125.325900000000        -9.240289186896618E-060
   125.565300000000        -2.036291553409684E-059
   125.804700000000        -3.344212885265403E-059
   126.044100000000        -4.721983381034991E-059
   126.283500000000        -5.971707315897939E-059
   126.522900000000        -6.822181090570931E-059
   126.762300000000        -6.939395771286244E-059
   127.001700000000        -5.952588014810021E-059
   127.241100000000        -3.498873451752676E-059
   127.480500000000         7.121829981698131E-060
   127.719900000000         6.815417561490497E-059
   127.959300000000         1.469347734876760E-058
   128.198700000000         2.387664841255474E-058
   128.438100000000         3.345426848257791E-058
   128.677500000000         4.201816067930646E-058
   128.916900000000         4.766283737659634E-058
   129.156300000000         4.806938046870789E-058
   129.395700000000         4.069850144847944E-058
   129.635100000000         2.311185816748596E-058
   129.874500000000        -6.572041004529701E-059
   130.113900000000        -4.910090059951821E-058
   130.353300000000        -1.034312201851841E-057
   130.592700000000        -1.660637725398233E-057
   130.832100000000        -2.304811060293023E-057
   131.071500000000        -2.868300804458520E-057
   131.310900000000        -3.220177190444232E-057
   131.550300000000        -3.203969086601199E-057
   131.789700000000        -2.652002970679128E-057
   132.029100000000        -1.408269118486606E-057
   132.268500000000         6.401074436867384E-058
   132.507900000000         3.524143033977622E-057
   132.747300000000         7.150228103610615E-057
   132.986700000000         1.125868963035418E-056
   133.226100000000         1.539129196835351E-056
   133.465500000000         1.887724154558678E-056
   133.704900000000         2.084847354569014E-056
   133.944300000000         2.029492090817345E-056
   134.183700000000         1.616852651730928E-056
   134.423100000000         7.540451305635046E-057
   134.662500000000        -6.191071777900698E-057
   134.901900000000        -2.505449261799263E-056
   135.141300000000        -4.824451391989468E-056
   135.380700000000        -7.388483792432612E-056
   135.620100000000        -9.886409855654153E-056
   135.859500000000        -1.188047474462505E-055
   136.098900000000        -1.282286050558965E-055
   136.338300000000        -1.209776975809924E-055
   136.577700000000        -9.093180039993464E-056
   136.817100000000        -3.303245233492430E-056
   137.056500000000         5.542381068214304E-056
   137.295900000000         1.733213110865271E-055
   137.535300000000         3.142593173249209E-055
   137.774700000000         4.653263766100732E-055
   138.014100000000         6.064204288417116E-055
   138.253500000000         7.104597808643514E-055
   138.492900000000         7.448288058350666E-055
   138.732300000000         6.743432737206801E-055