  -1.79550000000000         0.000000000000000E+000
  -1.55610000000000         0.000000000000000E+000
  -1.31670000000000         0.000000000000000E+000
  -1.07730000000000         0.000000000000000E+000
 -0.837900000000000         0.000000000000000E+000
 -0.598500000000000         0.000000000000000E+000
 -0.359100000000000         0.000000000000000E+000
 -0.119700000000000         0.000000000000000E+000
  0.119700000000000         0.000000000000000E+000
  0.359100000000000         0.000000000000000E+000
  0.598500000000000         0.000000000000000E+000
  0.837900000000000         0.000000000000000E+000
   1.07730000000000         0.000000000000000E+000
   1.31670000000000         0.000000000000000E+000
   1.55610000000000         0.000000000000000E+000
   1.79550000000000         0.000000000000000E+000
   2.03490000000000         0.000000000000000E+000
   2.27430000000000         0.000000000000000E+000
   2.51370000000000         0.000000000000000E+000
   2.75310000000000         0.000000000000000E+000
   2.99250000000000         0.000000000000000E+000
   3.23190000000000         0.000000000000000E+000
   3.47130000000000         0.000000000000000E+000
   3.71070000000000         0.000000000000000E+000
   3.95010000000000         0.000000000000000E+000
   4.18950000000000         0.000000000000000E+000
   4.42890000000000         0.000000000000000E+000
   4.66830000000000         0.000000000000000E+000
   4.90770000000000         0.000000000000000E+000
   5.14710000000000         0.000000000000000E+000
   5.38650000000000         0.000000000000000E+000
   5.62590000000000         0.000000000000000E+000
   5.86530000000000         0.000000000000000E+000
   6.10470000000000         0.000000000000000E+000
   6.34410000000000         0.000000000000000E+000
   6.58350000000000         0.000000000000000E+000
   6.82290000000000         0.000000000000000E+000
   7.06230000000000         0.000000000000000E+000
   7.30170000000000         0.000000000000000E+000
   7.54110000000000         0.000000000000000E+000
   7.78050000000000         0.000000000000000E+000
   8.01990000000000         0.000000000000000E+000
   8.25930000000000         0.000000000000000E+000
   8.49870000000000        -4.077208472195029E-171
   8.73810000000000         6.797763852763287E-165
   8.97750000000000         1.675242561834787E-161
   9.21690000000000         2.689941738704893E-160
   9.45630000000000        -4.892318188565533E-157
   9.69570000000000        -3.431757086745096E-155
   9.93510000000000        -1.185843706722610E-153
   10.1745000000000        -2.706497945027116E-152
   10.4139000000000        -4.614998884413232E-151
   10.6533000000000        -6.326107736092393E-150
   10.8927000000000        -7.352587676048924E-149
   11.1321000000000        -7.564945887538432E-148
   11.3715000000000        -7.128823951326635E-147
   11.6109000000000        -6.288253649877455E-146
   11.8503000000000        -5.229792786756084E-145
   12.0897000000000        -4.081629001013269E-144
   12.3291000000000        -2.957481831881812E-143
   12.5685000000000        -1.966200261521540E-142
   12.8079000000000        -1.185982680680798E-141
   13.0473000000000        -6.413134782038805E-141
   13.2867000000000        -3.057009731304795E-140
   13.5261000000000        -1.245038897007580E-139
   13.7655000000000        -4.013065634517690E-139
   14.0049000000000        -7.514539421710570E-139
   14.2443000000000         1.831538390222852E-138
   14.4837000000000         2.804119160937619E-137
   14.7231000000000         1.773448011403333E-136
   14.9625000000000         8.144086332905026E-136
   15.2019000000000         2.877228551117293E-135
   15.4413000000000         7.054984188773298E-135
   15.6807000000000         3.612642611382417E-135
   15.9201000000000        -8.191611630968114E-134
   16.1595000000000        -5.875633596543364E-133
   16.3989000000000        -2.564044908194205E-132
   16.6383000000000        -7.464173950375122E-132
   16.8777000000000        -6.670586907453112E-132
   17.1171000000000         9.238205913284567E-131
   17.3565000000000         8.467710851298946E-130
   17.5959000000000         4.930320847628153E-129
   17.8353000000000         2.347529227511827E-128
   18.0747000000000         9.802283559247791E-128
   18.3141000000000         3.694902360194506E-127
   18.5535000000000         1.274138813959595E-126
   18.7929000000000         4.038296066852266E-126
   19.0323000000000         1.173465353803901E-125
   19.2717000000000         3.089479180438846E-125
   19.5111000000000         7.148977952848145E-125
   19.7505000000000         1.335974036972519E-124
   19.9899000000000         1.359614352616080E-124
   20.2293000000000        -3.592821411406604E-124
   20.4687000000000        -3.048258894990128E-123
   20.7081000000000        -1.352458179238917E-122
   20.9475000000000        -4.831028564522293E-122
   21.1869000000000        -1.519586141195023E-121
   21.4263000000000        -4.346761799674247E-121
   21.6657000000000        -1.144899827445166E-120
   21.9051000000000        -2.781513581969140E-120
   22.1445000000000        -6.182886094508641E-120
   22.3839000000000        -1.228073705585599E-119
   22.6233000000000        -2.047037189093802E-119
   22.8627000000000        -2.265686238386396E-119
   23.1021000000000         1.428375630978398E-119
   23.3415000000000         1.936137088654232E-118
   23.5809000000000         7.923882013035772E-118
   23.8203000000000         2.473748707430681E-117
   24.0597000000000         6.663066406804911E-117
   24.2991000000000         1.606997712660899E-116
   24.5385000000000         3.501160352605744E-116
   24.7779000000000         6.820768669055538E-116
   25.0173000000000         1.142750343950338E-115
   25.2567000000000         1.449296101306026E-115
   25.4961000000000         5.137168639175181E-116
   25.7355000000000        -4.745879504894472E-115
   25.9749000000000        -2.168786794418248E-114
   26.2143000000000        -6.559986046243371E-114
   26.4537000000000        -1.638432456944343E-113
   26.6931000000000        -3.558862815798067E-113
   26.9325000000000        -6.753646776164354E-113
   27.1719000000000        -1.081050910250768E-112
   27.4113000000000        -1.270066041990302E-112
   27.6507000000000        -2.614613943860416E-113
   27.8901000000000         4.391016404901420E-112
   28.1295000000000         1.782040392589629E-111
   28.3689000000000         4.915699936853463E-111
   28.6083000000000         1.113897298045677E-110
   28.8477000000000         2.155024489555730E-110
   29.0871000000000         3.493545138022102E-110
   29.3265000000000         4.234656472891223E-110
   29.5659000000000         1.563226731883341E-110
   29.8053000000000        -1.130396729201847E-109
   30.0447000000000        -4.807720937273747E-109
   30.2841000000000        -1.321722540147118E-108
   30.5235000000000        -2.953808714887456E-108
   30.7629000000000        -5.625983554618023E-108
   31.0023000000000        -9.024674909011745E-108
   31.2417000000000        -1.109327670044303E-107
   31.4811000000000        -5.687439197317535E-108
   31.7205000000000         2.134755864508198E-107
   31.9599000000000         9.740816970456571E-107
   32.1993000000000         2.672867678535392E-106
   32.4387000000000         5.890178521881642E-106
   32.6781000000000         1.105029093000309E-105
   32.9175000000000         1.757805004681072E-105
   33.1569000000000         2.201784988686521E-105
   33.3963000000000         1.452951664523522E-105
   33.6357000000000        -2.658556490264412E-105
   33.8751000000000        -1.415440854455236E-104
   34.1145000000000        -3.931857036741543E-104
   34.3539000000000        -8.587160448203678E-104
   34.5933000000000        -1.588897995138990E-103
   34.8327000000000        -2.499947952100807E-103
   35.0721000000000        -3.148907055878050E-103
   35.3115000000000        -2.341991616146950E-103
   35.5509000000000         2.433599890415825E-103
   35.7903000000000         1.562847904441011E-102
   36.0297000000000         4.386670241857784E-102
   36.2691000000000         9.479543533541996E-102
   36.5085000000000         1.726680070416488E-101
   36.7479000000000         2.677074681161401E-101
   36.9873000000000         3.355281765277500E-101
   37.2267000000000         2.636399737612349E-101
   37.4661000000000        -1.733517480789356E-101
   37.7055000000000        -1.356113223125018E-100
   37.9449000000000        -3.822391452008663E-100
   38.1843000000000        -8.149451156381270E-100
   38.4237000000000        -1.458232649887105E-099
   38.6631000000000        -2.221608489686839E-099
   38.9025000000000        -2.752306777834424E-099
   39.1419000000000        -2.212241220864847E-099
   39.3813000000000         9.939845316951966E-100
   39.6207000000000         9.430032384302070E-099
   39.8601000000000         2.651810904109584E-098
   40.0995000000000         5.562427181943587E-098
   40.3389000000000         9.758437360943388E-098
   40.5783000000000         1.457110135362654E-097
   40.8177000000000         1.774298222163519E-097
   41.0571000000000         1.425578939153507E-097
   41.2965000000000        -4.948594466317763E-098
   41.5359000000000        -5.367867480955909E-097
   41.7753000000000        -1.492385028701641E-096
   42.0147000000000        -3.068455407999507E-096
   42.2541000000000        -5.263906823731412E-096
   42.4935000000000        -7.678493713749715E-096
   42.7329000000000        -9.130658572879672E-096
   42.9723000000000        -7.166444725919815E-096
   43.2117000000000         2.403676234427788E-096
   43.4511000000000         2.561252176213795E-095
   43.6905000000000         6.948444496050872E-095
   43.9299000000000         1.392982995779074E-094
   44.1693000000000         2.327985052922160E-094
   44.4087000000000         3.302878407505834E-094
   44.6481000000000         3.804074777682458E-094
   44.8875000000000         2.836430829269466E-094
   45.1269000000000        -1.201796493350823E-094
   45.3663000000000        -1.047567239753403E-093
   45.6057000000000        -2.728896131904564E-093
   45.8451000000000        -5.298360446565211E-093
   46.0845000000000        -8.584011947245033E-093
   46.3239000000000        -1.177676089074757E-092
   46.5633000000000        -1.299515636588484E-092
   46.8027000000000        -8.842401016141947E-093
   47.0421000000000         5.814717449271743E-093
   47.2815000000000         3.742994336472277E-092
   47.5209000000000         9.210351346773306E-092
   47.7603000000000         1.718844689432326E-091
   47.9997000000000         2.683571712432583E-091
   48.2391000000000         3.533501035468393E-091
   48.4785000000000         3.678948833979421E-091
   48.7179000000000         2.129013020132421E-091
   48.9573000000000        -2.514918652916106E-091
   49.1967000000000        -1.186630081690450E-090
   49.4361000000000        -2.720941484555509E-090
   49.6755000000000        -4.844150476076311E-090
   49.9149000000000        -7.239565269561444E-090
   50.1543000000000        -9.061851864102632E-090
   50.3937000000000        -8.703707737440523E-090
   50.6331000000000        -3.652764985450083E-090
   50.8725000000000         9.382394847115722E-090
   51.1119000000000         3.381556296442455E-089
   51.3513000000000         7.168022245118224E-089
   51.5907000000000         1.210003149849852E-088
   51.8301000000000         1.719637748682876E-088
   52.0695000000000         2.023160361683109E-088
   52.3089000000000         1.732461483717581E-088
   52.5483000000000         2.827998475018757E-089
   52.7877000000000        -3.008170577026173E-088
   53.0271000000000        -8.758048629976960E-088
   53.2665000000000        -1.715725632366542E-087
   53.5059000000000        -2.738846699042308E-087
   53.7453000000000        -3.684706208604947E-087
   53.9847000000000        -4.029450676842094E-087
   54.2241000000000        -2.925529265056010E-087
   54.4635000000000         7.794652440840319E-088
   54.7029000000000         8.364645080774100E-087
   54.9423000000000         2.080070317769448E-086
   55.1817000000000         3.796692656830788E-086
   55.4211000000000         5.748397818928861E-086
   55.6605000000000         7.325623670022200E-086
   55.8999000000000         7.404818919242411E-086
   56.1393000000000         4.275858702558461E-086
   56.3787000000000        -4.252661711619006E-086
   56.6181000000000        -2.042225630892184E-085
   56.8575000000000        -4.560054324743562E-085
   57.0969000000000        -7.872984633437507E-085
   57.3363000000000        -1.141383589391844E-084
   57.5757000000000        -1.389652311850119E-084
   57.8151000000000        -1.308834546835381E-084
   58.0545000000000        -5.740642522903960E-085
   58.2939000000000         1.212384534825027E-084
   58.5333000000000         4.430836205425926E-084
   58.7727000000000         9.265000387155201E-084
   59.0121000000000         1.541454674406512E-083
   59.2515000000000         2.170486419689746E-083
   59.4909000000000         2.564751770883155E-083
   59.7303000000000         2.308106127332479E-083
   59.9697000000000         8.123899978916187E-084
   60.2091000000000        -2.621601153491791E-083
   60.4485000000000        -8.634014653709215E-083
   60.6879000000000        -1.748264248392549E-082
   60.9273000000000        -2.853888334952432E-082
   61.1667000000000        -3.961989942577843E-082
   61.4061000000000        -4.625695521231124E-082
   61.6455000000000        -4.112752634907495E-082
   61.8849000000000        -1.404521154607214E-082
   62.1243000000000         4.692004443532183E-082
   62.3637000000000         1.524868387336189E-081
   62.6031000000000         3.066806128361480E-081
   62.8425000000000         4.984313171248252E-081
   63.0819000000000         6.906059779272303E-081
   63.3213000000000         8.081895234095886E-081
   63.5607000000000         7.293669581257363E-081
   63.8001000000000         2.858629719612164E-081
   64.0395000000000        -7.183920277228765E-081
   64.2789000000000        -2.459317116182859E-080
   64.5183000000000        -5.004987340448170E-080
   64.7577000000000        -8.182690576386660E-080
   64.9971000000000        -1.140714670136166E-079
   65.2365000000000        -1.349733572227182E-079
   65.4759000000000        -1.254033852378155E-079
   65.7153000000000        -5.899275223539055E-080
   65.9547000000000         9.498387856495958E-080
   66.1941000000000         3.643047947966377E-079
   66.4335000000000         7.605702481618169E-079
   66.6729000000000         1.259314787144493E-078
   66.9123000000000         1.774518585938563E-078
   67.1517000000000         2.131648653547165E-078
   67.3911000000000         2.047794365812289E-078
   67.6305000000000         1.132882759673517E-078
   67.8699000000000        -1.068710629117853E-078
   68.1093000000000        -4.973638434053575E-078
   68.3487000000000        -1.077168725763376E-077
   68.5881000000000        -1.814544686626256E-077
   68.8275000000000        -2.591359536979708E-077
   69.0669000000000        -3.165610022909841E-077
   69.3063000000000        -3.143930732312055E-077
   69.5457000000000        -1.983028727586950E-077
   69.7851000000000         9.542071757829592E-078
   70.0245000000000         6.258409539224953E-077
   70.2639000000000         1.422306988362804E-076
   70.5033000000000         2.447288376068157E-076
   70.7427000000000         3.549355318815167E-076
   70.9821000000000         4.413990160122458E-076
   71.2215000000000         4.527454282620200E-076
   71.4609000000000         3.177774641028778E-076
   71.7003000000000        -4.748821515624482E-077
   71.9397000000000        -7.221999399601353E-076
   72.1791000000000        -1.749296003641224E-075
   72.4185000000000        -3.089174864035305E-075
   72.6579000000000        -4.561277547390696E-075
   72.8973000000000        -5.783013887062212E-075
   73.1367000000000        -6.124413056532591E-075
   73.3761000000000        -4.707198386082630E-075
   73.6155000000000        -4.863546477876887E-076
   73.8549000000000         7.543262267442986E-075
   74.0943000000000         1.997869094706274E-074
   74.3337000000000         3.646551451351047E-074
   74.5731000000000         5.501260074548313E-074
   74.8125000000000         7.127242693404830E-074
   75.0519000000000         7.799452576925064E-074
   75.2913000000000         6.497361215060283E-074
   75.5307000000000         1.991611451332165E-074
   75.7701000000000        -6.930363526552925E-074
   76.0095000000000        -2.105927468488174E-073
   76.2489000000000        -4.016401899890632E-073
   76.4883000000000        -6.223144455589055E-073
   76.7277000000000        -8.265942336489738E-073
   76.9671000000000        -9.362241155797983E-073
   77.2065000000000        -8.394837531593698E-073
   77.4459000000000        -3.995299504478606E-073
   77.6853000000000         5.227217394222287E-073
   77.9247000000000         2.026861390969161E-072
   78.1641000000000         4.110588506969410E-072
   78.4035000000000         6.589864396621554E-072
   78.6429000000000         9.012719324777621E-072
   78.8823000000000         1.058836679926355E-071
   79.1217000000000         1.016524870382089E-071
   79.3611000000000         6.302445073625592E-072
   79.6005000000000        -2.515648143658858E-072
   79.8399000000000        -1.747702942888618E-071
   80.0793000000000        -3.883102849203714E-071
   80.3187000000000        -6.509429003290959E-071
   80.5581000000000        -9.217400021944248E-071
   80.7975000000000        -1.126083541285623E-070
   81.0369000000000        -1.152384878968459E-070
   81.2763000000000        -8.573139560314712E-071
   81.5157000000000        -8.431982079866338E-072
   81.7551000000000         1.300169978493871E-070
   81.9945000000000         3.350454861592304E-070
   82.2339000000000         5.966868481481140E-070
   82.4733000000000         8.810984534554782E-070
   82.7127000000000         1.122797175151991E-069
   82.9521000000000         1.220374726987878E-069
   83.1915000000000         1.039444891289610E-069
   83.4309000000000         4.271877233806108E-070
   83.6703000000000        -7.573455744513931E-070
   83.9097000000000        -2.594535611078819E-069
   84.1491000000000        -5.037835247052813E-069
   84.3885000000000        -7.835993135950360E-069
   84.6279000000000        -1.045771930119575E-068
   84.8673000000000        -1.204167431253616E-068
   85.1067000000000        -1.140353861121683E-068
   85.3461000000000        -7.138063335141144E-069
   85.5855000000000         2.146165691554534E-069
   85.8249000000000         1.743227075648895E-068
   86.0643000000000         3.873951400110191E-068
   86.3037000000000         6.444856912113774E-068
   86.5431000000000         9.061087366531572E-068
   86.7825000000000         1.104197926269504E-067
   87.0219000000000         1.140975393879933E-067
   87.2613000000000         8.951016799404373E-068
   87.5007000000000         2.383577793479546E-068
   87.7401000000000        -9.345529262101648E-068
   87.9795000000000        -2.662294979307320E-067
   88.2189000000000        -4.861696266972458E-067
   88.4583000000000        -7.268125259366552E-067
   88.6977000000000        -9.384366070386129E-067
   88.9371000000000        -1.045713556058154E-066
   89.1765000000000        -9.505606794219510E-067
   89.4159000000000        -5.428486485257512E-067
   89.6553000000000         2.787187328897666E-067
   89.8947000000000         1.574398719866457E-066
   90.1341000000000         3.320933422363921E-066
   90.3735000000000         5.363206014765391E-066
   90.6129000000000         7.368768544410050E-066
   90.8523000000000         8.798808203594475E-066
   91.0917000000000         8.913501174485827E-066
   91.3311000000000         6.832233393415810E-066
   91.5705000000000         1.668040238549370E-066
   91.8099000000000        -7.251155585840747E-066
   92.0493000000000        -2.007612085030408E-065
   92.2887000000000        -3.606890514254847E-065
   92.5281000000000        -5.322908490887493E-065
   92.7675000000000        -6.800369324501890E-065
   93.0069000000000        -7.520536397027446E-065
   93.2463000000000        -6.828759533091529E-065
   93.4857000000000        -4.012806332857328E-065
   93.7251000000000         1.556342603488263E-065
   93.9645000000000         1.021798185238931E-064
   94.2039000000000         2.176047703801251E-064
   94.4433000000000         3.513652028757394E-064
   94.6827000000000         4.821049882246772E-064
   94.9221000000000         5.761908028813145E-064
   95.1615000000000         5.884684153964485E-064
   95.4009000000000         4.662691585074732E-064
   95.6403000000000         1.576283996836323E-064
   95.8797000000000        -3.757743702481303E-064
   96.1191000000000        -1.141284308197305E-063
   96.3585000000000        -2.095129724807639E-063
   96.5979000000000        -3.122648236597536E-063
   96.8373000000000        -4.023818572922371E-063
   97.0767000000000        -4.510631510575567E-063
   97.3161000000000        -4.223789135275578E-063
   97.5555000000000        -2.775945235221067E-063
   97.7949000000000         1.734435166524195E-064
   98.0343000000000         4.811145691404105E-063
   98.2737000000000         1.103781639518649E-062
   98.5131000000000         1.832682403341491E-062
   98.7525000000000         2.560218185967945E-062
   98.9919000000000         3.117479855827882E-062
   99.2313000000000         3.278470009528320E-062
   99.4707000000000         2.779893989719428E-062
   99.7101000000000         1.360660715313516E-062
   99.9495000000000        -1.177012133927814E-062
   100.188900000000        -4.886913967555860E-062
   100.428300000000        -9.586209074733012E-062
   100.667700000000        -1.476540933777744E-061
   100.907100000000        -1.952287314359133E-061
   101.146500000000        -2.255212535736525E-061
   101.385900000000        -2.221368523223993E-061
   101.625300000000        -1.672112906688195E-061
   101.864700000000        -4.461383664071682E-062
   102.104100000000         1.555019862826872E-061
   102.343500000000         4.310937173619876E-061
   102.582900000000         7.622578449808426E-061
   102.822300000000         1.106023805605552E-060
   103.061700000000         1.393477839921830E-060
   103.301100000000         1.531089135263938E-060
   103.540500000000         1.408165863766516E-060
   103.779900000000         9.120263878051469E-061
   104.019300000000        -4.839920369105671E-062
   104.258700000000        -1.511300555724033E-060
   104.498100000000        -3.425889567938204E-060
   104.737500000000        -5.616833666942817E-060
   104.976900000000        -7.757224795286230E-060
   105.216300000000        -9.360343923200113E-060
   105.455700000000        -9.801656751478555E-060
   105.695100000000        -8.381772769165171E-060
   105.934500000000        -4.437722845136231E-060
   106.173900000000         2.496752508362721E-060
   106.413300000000         1.249136976781792E-059
   106.652700000000         2.500260197658391E-059
   106.892100000000         3.867774361593984E-059
   107.131500000000         5.123173664142543E-059
   107.370900000000         5.945917489727754E-059
   107.610300000000         5.944623212336757E-059
   107.849700000000         4.703703809492362E-059
   108.089100000000         1.858229743124819E-059
   108.328500000000        -2.804768257806552E-059
   108.567900000000        -9.226747293101747E-059
   108.807300000000        -1.695584359456990E-058
   109.046700000000        -2.504702953488109E-058
   109.286100000000        -3.201560698315718E-058
   109.525500000000        -3.587946907662496E-058
   109.764900000000        -3.432422493438031E-058
   110.004300000000        -2.501626188118036E-058
   110.243700000000        -6.070349982068333E-059
   110.483100000000         2.335017064623548E-058
   110.722500000000         6.236010513284050E-058
   110.961900000000         1.077084930722440E-057
   111.201300000000         1.533087445521834E-057
   111.440700000000         1.901199426129539E-057
   111.680100000000         2.065680100190743E-057
   111.919500000000         1.896741769293021E-057
   112.158900000000         1.269932997805211E-057
   112.398300000000         9.349195399908571E-059
   112.637700000000        -1.658115385709297E-057
   112.877100000000        -3.908313386722572E-057
   113.116500000000        -6.446256302554085E-057
   113.355900000000        -8.906477411945243E-057
   113.595300000000        -1.076976490863455E-056
   113.834700000000        -1.139474109672815E-056
   114.074100000000        -1.008783236720386E-056
   114.313500000000        -6.215210961806996E-057
   114.552900000000         6.463520388774632E-058
   114.792300000000         1.053177321083632E-056
   115.031700000000         2.290574186420365E-056
   115.271100000000         3.651012255166593E-056
   115.510500000000         4.928329393685330E-056
   115.749900000000         5.839884368267459E-056
   115.989300000000         6.046874039932594E-056
   116.228700000000         5.194407895139788E-056
   116.468100000000         2.972287508776260E-056
   116.707500000000        -8.061258422492574E-057
   116.946900000000        -6.114168153568963E-056
   117.186300000000        -1.262365290643094E-055
   117.425700000000        -1.963560742215391E-055
   117.665100000000        -2.605125561167250E-055
   117.904500000000        -3.040598647882805E-055
   118.143900000000        -3.098680020232881E-055
   118.383300000000        -2.604665547479195E-055
   118.622700000000        -1.411657475664150E-055
   118.862100000000         5.601622315508332E-056
   119.101500000000         3.280135966733805E-055
   119.340900000000         6.565967594040138E-055
   119.580300000000         1.005337751106016E-054
   119.819700000000         1.318671145736680E-054
   120.059100000000         1.524094535888932E-054
   120.298500000000         1.538402656414283E-054
   120.537900000000         1.278472513198197E-054
   120.777300000000         6.764916427554224E-055
   121.016700000000        -3.013372619555593E-055
   121.256100000000        -1.634610771150590E-054
   121.495500000000        -3.230131497640892E-054
   121.734900000000        -4.908930379964449E-054
   121.974300000000        -6.403525331486888E-054
   122.213700000000        -7.370034582801353E-054
   122.453100000000        -7.418923785218301E-054
   122.692500000000        -6.166312639944563E-054
   122.931900000000        -3.304836337518056E-054
   123.171300000000         1.310844029984709E-054
   123.410700000000         7.573337420588284E-054
   123.650100000000         1.504071561288246E-053
   123.889500000000         2.288161976483539E-053
   124.128900000000         2.986754384982086E-053
   124.368300000000         3.443208033998123E-053
   124.607700000000         3.481275528748950E-053
   124.847100000000         2.928257360544751E-053
   125.086500000000         1.646538866795633E-053
   125.325900000000        -4.287714102262738E-054
   125.565300000000        -3.250318389458253E-053
   125.804700000000        -6.623240012600102E-053
   126.044100000000        -1.018190708338966E-052
   126.283500000000        -1.338724466165848E-052
   126.522900000000        -1.555289131286059E-052
   126.762300000000        -1.590658208882868E-052
   127.001700000000        -1.368947745307209E-052
   127.241100000000        -8.290673895550037E-053
   127.480500000000         5.929047152224222E-054
   127.719900000000         1.278898617590238E-052
   127.959300000000         2.750039153931589E-052
   128.198700000000         4.320539116715126E-052
   128.438100000000         5.764319296569839E-052
   128.677500000000         6.791828706558094E-052
   128.916900000000         7.074966338942409E-052
   129.156300000000         6.287607069301152E-052
   129.395700000000         4.160644269056198E-052
   129.635100000000         5.476507802328938E-053
   129.874500000000        -4.505903922393988E-052
   130.113900000000        -1.070005822352037E-051
   130.353300000000        -1.743709700273596E-051
   130.592700000000        -2.381166868037005E-051
   130.832100000000        -2.864781504720597E-051
   131.071500000000        -3.059354017241015E-051
   131.310900000000        -2.827788345444129E-051
   131.550300000000        -2.052702050121282E-051
   131.789700000000        -6.625110298149777E-052
   132.029100000000         1.340662053273273E-051
   132.268500000000         3.855122510604650E-051
   132.507900000000         6.660659235600925E-051
   132.747300000000         9.411972513440352E-051
   132.986700000000         1.164982184826292E-050
   133.226100000000         1.283424894473873E-050
   133.465500000000         1.240220797083642E-050
   133.704900000000         9.848857294527392E-051
   133.944300000000         4.827768134238121E-051
   134.183700000000        -2.739290452258200E-051
   134.423100000000        -1.255700015027678E-050
   134.662500000000        -2.387362066412767E-050
   134.901900000000        -3.544120184766481E-050
   135.141300000000        -4.553968878137046E-050
   135.380700000000        -5.208276348987559E-050
   135.620100000000        -5.281655630149571E-050
   135.859500000000        -4.561171213991716E-050
   136.098900000000        -2.883506440832777E-050
   136.338300000000        -1.770365726991630E-051
   136.577700000000         3.496011702922040E-050
   136.817100000000         7.903740049249287E-050
   137.056500000000         1.262267694732418E-049
   137.295900000000         1.703775426944651E-049
   137.535300000000         2.037142081661001E-049
   137.774700000000         2.174712810192781E-049
   138.014100000000         2.028895541330886E-049
   138.253500000000         1.525428341513055E-049
   138.492900000000         6.190457482342818E-050
   138.732300000000        -6.900164092825760E-050