  -1.42500000000000         0.000000000000000E+000
  -1.23500000000000        -1.923109671946140E-015
  -1.04500000000000        -1.296627057245971E-013
 -0.855000000000000        -1.012438480060516E-012
 -0.665000000000000        -5.566858848047776E-012
 -0.475000000000000        -2.404176920362288E-011
 -0.285000000000000        -8.739305963626982E-011
 -9.499999999999975E-002   -2.725744643109402E-010
  9.500000000000020E-002   -7.450571360698486E-010
  0.285000000000000        -1.814533653677472E-009
  0.475000000000000        -3.968376187241194E-009
  0.665000000000000        -7.918110267332990E-009
  0.855000000000000        -1.446417133635402E-008
   1.04500000000000        -2.446105021100663E-008
   1.23500000000000        -3.864168552390447E-008
   1.42500000000000        -5.732622578118652E-008
   1.61500000000000        -8.028871638391951E-008
   1.80500000000000        -1.065191120948382E-007
   1.99500000000000        -1.342153855200774E-007
   2.18500000000000        -1.607024643586699E-007
   2.37500000000000        -1.827667596569294E-007
   2.56500000000000        -1.962210989764006E-007
   2.75500000000000        -1.973746818609411E-007
   2.94500000000000        -1.820804867129791E-007
   3.13500000000000        -1.491559597031907E-007
   3.32500000000000        -9.833052069873994E-008
   3.51500000000000        -3.050713145244321E-008
   3.70500000000000         5.141699632719105E-008
   3.89500000000000         1.430825335372822E-007
   4.08500000000000         2.392593132744830E-007
   4.27500000000000         3.343090770334572E-007
   4.46500000000000         4.227063323630686E-007
   4.65500000000000         4.996433556033904E-007
   4.84500000000000         5.611030864344048E-007
   5.03500000000000         6.037952939858780E-007
   5.22500000000000         6.269381966381358E-007
   5.41500000000000         6.289973571995227E-007
   5.60500000000000         6.104124178455850E-007
   5.79500000000000         5.729347507557202E-007
   5.98500000000000         5.181529056204823E-007
   6.17500000000000         4.486454008226921E-007
   6.36500000000000         3.698309831413666E-007
   6.55500000000000         2.859266928492067E-007
   6.74500000000000         2.029605773646708E-007
   6.93500000000000         1.293407370485174E-007
   7.12500000000000         7.070281154515951E-008
   7.31500000000000         3.334646720154964E-008
   7.50500000000000         2.135233197037103E-008
   7.69500000000000         3.692111206854085E-008
   7.88500000000000         8.052768174002039E-008
   8.07500000000000         1.497940359541641E-007
   8.26500000000000         2.435046628499989E-007
   8.45500000000000         3.473955185303783E-007
   8.64500000000000         4.591885603412513E-007
   8.83500000000000         5.651430075200391E-007
   9.02500000000000         6.593923079889369E-007
   9.21500000000000         7.372723559695101E-007
   9.40500000000000         7.935465693521454E-007
   9.59500000000000         8.264030687145990E-007
   9.78500000000000         8.383081028352359E-007
   9.97500000000000         8.270141530446947E-007
   10.1650000000000         7.991105251450178E-007
   10.3550000000000         7.578413628922955E-007
   10.5450000000000         7.069007025084076E-007
   10.7350000000000         6.502012543608076E-007
   10.9250000000000         5.903336307356372E-007
   11.1150000000000         5.257430753890841E-007
   11.3050000000000         4.620082320869421E-007
   11.4950000000000         4.018959821020539E-007
   11.6850000000000         3.503825743096472E-007
   11.8750000000000         3.108953390112248E-007
   12.0650000000000         2.840197839785886E-007
   12.2550000000000         2.749591524080341E-007
   12.4450000000000         2.825833206519574E-007
   12.6350000000000         3.047034990078247E-007
   12.8250000000000         3.363734127786861E-007
   13.0150000000000         3.729809595358404E-007
   13.2050000000000         3.986648400579228E-007
   13.3950000000000         4.107816645462590E-007
   13.5850000000000         3.894627448815609E-007
   13.7750000000000         3.357605803951137E-007
   13.9650000000000         2.426907442309320E-007
   14.1550000000000         1.099395059263180E-007
   14.3450000000000        -5.392163337941180E-008
   14.5350000000000        -2.397807117436156E-007
   14.7250000000000        -4.351848516706426E-007
   14.9150000000000        -6.266353698601106E-007
   15.1050000000000        -7.996866193310306E-007
   15.2950000000000        -9.471969566884243E-007
   15.4850000000000        -1.059569961435824E-006
   15.6750000000000        -1.127929160250379E-006
   15.8650000000000        -1.148753096281872E-006
   16.0550000000000        -1.119458717640892E-006
   16.2450000000000        -1.040536628784499E-006
   16.4350000000000        -9.168058845326404E-007
   16.6250000000000        -7.500389007369626E-007
   16.8150000000000        -5.450669680727250E-007
   17.0050000000000        -3.094344390280055E-007
   17.1950000000000        -5.339444656759324E-008
   17.3850000000000         2.095569439649485E-007
   17.5750000000000         4.646507286954969E-007
   17.7650000000000         6.940524925403696E-007
   17.9550000000000         8.773783018957981E-007
   18.1450000000000         9.956668936263414E-007
   18.3350000000000         1.038164783510994E-006
   18.5250000000000         9.975030717878817E-007
   18.7150000000000         8.674587001249829E-007
   18.9050000000000         6.590463972531735E-007
   19.0950000000000         3.887057406783420E-007
   19.2850000000000         7.757643572207128E-008
   19.4750000000000        -2.487373678587891E-007
   19.6650000000000        -5.636105870844514E-007
   19.8550000000000        -8.421992244945473E-007
   20.0450000000000        -1.063803625159163E-006
   20.2350000000000        -1.216002840324857E-006
   20.4250000000000        -1.289850257889716E-006
   20.6150000000000        -1.282264147678433E-006
   20.8050000000000        -1.193053733409070E-006
   20.9950000000000        -1.035357245908030E-006
   21.1850000000000        -8.154034416397747E-007
   21.3750000000000        -5.495692657549066E-007
   21.5650000000000        -2.513878883774560E-007
   21.7550000000000         6.357431261371237E-008
   21.9450000000000         3.794880127250562E-007
   22.1350000000000         6.791488617880618E-007
   22.3250000000000         9.450357826158998E-007
   22.5150000000000         1.159071245208614E-006
   22.7050000000000         1.303599036093249E-006
   22.8950000000000         1.370844123658508E-006
   23.0850000000000         1.344779690254721E-006
   23.2750000000000         1.229473331931876E-006
   23.4650000000000         1.032270356187648E-006
   23.6550000000000         7.689676585018313E-007
   23.8450000000000         4.531416302484761E-007
   24.0350000000000         1.256028314515183E-007
   24.2250000000000        -1.840134994430035E-007
   24.4150000000000        -4.446856333521077E-007
   24.6050000000000        -6.311661151644602E-007
   24.7950000000000        -7.161692537598089E-007
   24.9850000000000        -6.926202806973209E-007
   25.1750000000000        -5.618370471203947E-007
   25.3650000000000        -3.337819970060392E-007
   25.5550000000000        -2.823830797828683E-008
   25.7450000000000         3.309088228152263E-007
   25.9350000000000         7.153190833069666E-007
   26.1250000000000         1.095680395341853E-006
   26.3150000000000         1.442576923570624E-006
   26.5050000000000         1.737169506890738E-006
   26.6950000000000         1.956584463569508E-006
   26.8850000000000         2.083455659585709E-006
   27.0750000000000         2.105608714043093E-006
   27.2650000000000         2.017606348387951E-006
   27.4550000000000         1.824062608236042E-006
   27.6450000000000         1.528949298510711E-006
   27.8350000000000         1.147350089669555E-006
   28.0250000000000         6.995695235498617E-007
   28.2150000000000         2.137277928804251E-007
   28.4050000000000        -2.803290122684187E-007
   28.5950000000000        -7.405626064859890E-007
   28.7850000000000        -1.133621605140541E-006
   28.9750000000000        -1.423565191601280E-006
   29.1650000000000        -1.590389814886997E-006
   29.3550000000000        -1.616914609702838E-006
   29.5450000000000        -1.488858592738141E-006
   29.7350000000000        -1.228667340316086E-006
   29.9250000000000        -8.590454195221480E-007
   30.1150000000000        -4.145027964886511E-007
   30.3050000000000         6.256262709316035E-008
   30.4950000000000         5.265545310752128E-007
   30.6850000000000         9.334686465634263E-007
   30.8750000000000         1.252142701821305E-006
   31.0650000000000         1.455695398712303E-006
   31.2550000000000         1.521221646524734E-006
   31.4450000000000         1.453817418715404E-006
   31.6350000000000         1.259089165600361E-006
   31.8250000000000         9.582202729192466E-007
   32.0150000000000         5.732897958489614E-007
   32.2050000000000         1.326561665229570E-007
   32.3950000000000        -3.313600594647869E-007
   32.5850000000000        -7.907949855992847E-007
   32.7750000000000        -1.214422953233187E-006
   32.9650000000000        -1.575655534085281E-006
   33.1550000000000        -1.850468220284985E-006
   33.3450000000000        -2.020641198913682E-006
   33.5350000000000        -2.073116732126375E-006
   33.7250000000000        -2.002455837484321E-006
   33.9150000000000        -1.814211584857961E-006
   34.1050000000000        -1.520739647532170E-006
   34.2950000000000        -1.136290626657481E-006
   34.4850000000000        -6.922465012169665E-007
   34.6750000000000        -2.266703453719907E-007
   34.8650000000000         2.232200772235151E-007
   35.0550000000000         6.201987043414332E-007
   35.2450000000000         9.318778384737303E-007
   35.4350000000000         1.133909819345541E-006
   35.6250000000000         1.214677450712930E-006
   35.8150000000000         1.172448603656258E-006
   36.0050000000000         1.011335671912958E-006
   36.1950000000000         7.576788039679267E-007
   36.3850000000000         4.359520681154880E-007
   36.5750000000000         7.715872950990804E-008
   36.7650000000000        -2.882113730719830E-007
   36.9550000000000        -6.333226700398941E-007
   37.1450000000000        -9.388256456382280E-007
   37.3350000000000        -1.189718651465747E-006
   37.5250000000000        -1.376286360526403E-006
   37.7150000000000        -1.496324782125116E-006
   37.9050000000000        -1.549200843475161E-006
   38.0950000000000        -1.539532183502197E-006
   38.2850000000000        -1.483401765115885E-006
   38.4750000000000        -1.383085012089054E-006
   38.6650000000000        -1.246162336242818E-006
   38.8550000000000        -1.084779066140571E-006
   39.0450000000000        -9.100796731343888E-007
   39.2350000000000        -7.341664994775286E-007
   39.4250000000000        -5.705651871278034E-007
   39.6150000000000        -4.322040621509865E-007
   39.8050000000000        -3.292531193988815E-007
   39.9950000000000        -2.676811047150890E-007
   40.1850000000000        -2.554580890548550E-007
   40.3750000000000        -2.893131550793039E-007
   40.5650000000000        -3.701205084183716E-007
   40.7550000000000        -4.789783972519233E-007
   40.9450000000000        -6.018041198470455E-007
   41.1350000000000        -7.215873223011771E-007
   41.3250000000000        -8.219117071259483E-007
   41.5150000000000        -8.865833554628122E-007
   41.7050000000000        -9.140324701688418E-007
   41.8950000000000        -8.975228395961805E-007
   42.0850000000000        -8.303966570750317E-007
   42.2750000000000        -7.225432377373306E-007
   42.4650000000000        -5.818391780128661E-007
   42.6550000000000        -4.152364683424476E-007
   42.8450000000000        -2.293096094326759E-007
   43.0350000000000        -2.931248503240804E-008
   43.2250000000000         1.809031484397012E-007
   43.4150000000000         3.996523054569682E-007
   43.6050000000000         6.247803577713226E-007
   43.7950000000000         8.517821337026477E-007
   43.9850000000000         1.075378906165827E-006
   44.1750000000000         1.286966177921167E-006
   44.3650000000000         1.475507721720614E-006
   44.5550000000000         1.627668970457330E-006
   44.7450000000000         1.728646552806980E-006
   44.9350000000000         1.776118104219013E-006
   45.1250000000000         1.761920659557998E-006
   45.3150000000000         1.672427429935123E-006
   45.5050000000000         1.523254495641092E-006
   45.6950000000000         1.320445035973792E-006
   45.8850000000000         1.077372529960362E-006
   46.0750000000000         8.094504524972706E-007
   46.2650000000000         5.320487779869343E-007
   46.4550000000000         2.595062033894854E-007
   46.6450000000000         2.242691640000060E-009
   46.8350000000000        -2.344417967967250E-007
   47.0250000000000        -4.424101162424029E-007
   47.2150000000000        -6.157250040064949E-007
   47.4050000000000        -7.592089674315785E-007
   47.5950000000000        -8.710226449160092E-007
   47.7850000000000        -9.479084328656604E-007
   47.9750000000000        -9.903476876559473E-007
   48.1650000000000        -9.947143123588243E-007
   48.3550000000000        -9.624230843136694E-007
   48.5450000000000        -8.977963708402079E-007
   48.7350000000000        -8.063588652451114E-007
   48.9250000000000        -6.969852605634516E-007
   49.1150000000000        -5.780649209135741E-007
   49.3050000000000        -4.704280242862564E-007
   49.4950000000000        -3.812146279788502E-007
   49.6850000000000        -3.316865977338353E-007
   49.8750000000000        -3.259528952450606E-007
   50.0650000000000        -3.685210987953853E-007
   50.2550000000000        -4.646166537103486E-007
   50.4450000000000        -5.985608540062768E-007
   50.6350000000000        -7.594705741159673E-007
   50.8250000000000        -9.304631335798676E-007
   51.0150000000000        -1.093350640239001E-006
   51.2050000000000        -1.239635588553149E-006
   51.3950000000000        -1.355852439473152E-006
   51.5850000000000        -1.428210799504026E-006
   51.7750000000000        -1.461429716764859E-006
   51.9650000000000        -1.457350115118500E-006
   52.1550000000000        -1.421722103830937E-006
   52.3450000000000        -1.362548767933499E-006
   52.5350000000000        -1.287708666733716E-006
   52.7250000000000        -1.199432189583037E-006
   52.9150000000000        -1.105767165502584E-006
   53.1050000000000        -1.014353539492609E-006
   53.2950000000000        -9.295906367179382E-007
   53.4850000000000        -8.523997681820922E-007
   53.6750000000000        -7.862462965638158E-007
   53.8650000000000        -7.400728001439839E-007
   54.0550000000000        -7.169718669131080E-007
   54.2450000000000        -7.179759814472438E-007
   54.4350000000000        -7.444896515686723E-007
   54.6250000000000        -7.953964112023153E-007
   54.8150000000000        -8.662434890476789E-007
   55.0050000000000        -9.484283711675447E-007
   55.1950000000000        -1.032488113359093E-006
   55.3850000000000        -1.106084971391757E-006
   55.5750000000000        -1.155937329845603E-006
   55.7650000000000        -1.173981674512691E-006
   55.9550000000000        -1.146735624104564E-006
   56.1450000000000        -1.074549966777951E-006
   56.3350000000000        -9.650531097700416E-007
   56.5250000000000        -8.266317581498656E-007
   56.7150000000000        -6.718038678261570E-007
   56.9050000000000        -5.146728863561319E-007
   57.0950000000000        -3.679852324588846E-007
   57.2850000000000        -2.402324533483059E-007
   57.4750000000000        -1.328870397801667E-007
   57.6650000000000        -4.999690963986146E-008
   57.8550000000000         9.199580269969459E-009
   58.0450000000000         5.714452265437009E-008
   58.2350000000000         9.997176923063722E-008
   58.4250000000000         1.426346240510158E-007
   58.6150000000000         1.903053326778731E-007
   58.8050000000000         2.353763594732581E-007
   58.9950000000000         2.755061899410494E-007
   59.1850000000000         3.081606903429875E-007
   59.3750000000000         3.165510004316739E-007
   59.5650000000000         2.952075857128228E-007
   59.7550000000000         2.369876322862954E-007
   59.9450000000000         1.378278225018899E-007
   60.1350000000000        -9.685701807138004E-009
   60.3250000000000        -1.940552619118374E-007
   60.5150000000000        -4.083275133853022E-007
   60.7050000000000        -6.410573675529329E-007
   60.8950000000000        -8.794335318189338E-007
   61.0850000000000        -1.111501170084615E-006
   61.2750000000000        -1.326776061117787E-006
   61.4650000000000        -1.512704061123420E-006
   61.6550000000000        -1.659304296110909E-006
   61.8450000000000        -1.757352735818706E-006
   62.0350000000000        -1.798427638820183E-006
   62.2250000000000        -1.778538026713835E-006
   62.4150000000000        -1.701506317667938E-006
   62.6050000000000        -1.558844476266634E-006
   62.7950000000000        -1.356649447241250E-006
   62.9850000000000        -1.104528476830190E-006
   63.1750000000000        -8.170858822940528E-007
   63.3650000000000        -5.145937717647270E-007
   63.5550000000000        -2.194595284711648E-007
   63.7450000000000         4.556004242204841E-008
   63.9350000000000         2.494613202570213E-007
   64.1250000000000         3.699975627780504E-007
   64.3150000000000         3.938415807820371E-007
   64.5050000000000         3.110859196423046E-007
   64.6950000000000         1.310649598738851E-007
   64.8850000000000        -1.301357841815417E-007
   65.0750000000000        -4.566617307212484E-007
   65.2650000000000        -8.113467738797883E-007
   65.4550000000000        -1.159317638170416E-006
   65.6450000000000        -1.466402368490010E-006
   65.8350000000000        -1.702015116458972E-006
   66.0250000000000        -1.844086141624967E-006
   66.2150000000000        -1.880021986035284E-006
   66.4050000000000        -1.807205444870814E-006
   66.5950000000000        -1.635677318216510E-006
   66.7850000000000        -1.381239035417412E-006
   66.9750000000000        -1.066869609494148E-006
   67.1650000000000        -7.226264719014232E-007
   67.3550000000000        -3.808972309018458E-007
   67.5450000000000        -7.329509669518154E-008
   67.7350000000000         1.709740040060495E-007
   67.9250000000000         3.305027476913195E-007
   68.1150000000000         3.844618280309251E-007
   68.3050000000000         3.237957672591254E-007
   68.4950000000000         1.436947122200423E-007
   68.6850000000000        -1.503632333054572E-007
   68.8750000000000        -5.424744681350692E-007
   69.0650000000000        -1.009833358926951E-006
   69.2550000000000        -1.522417696228981E-006
   69.4450000000000        -2.044159460597436E-006
   69.6350000000000        -2.533630979731249E-006
   69.8250000000000        -2.951874490612516E-006
   70.0150000000000        -3.264175090719915E-006
   70.2050000000000        -3.443454074857733E-006
   70.3950000000000        -3.472640688742807E-006
   70.5850000000000        -3.348856995043872E-006
   70.7750000000000        -3.078763895803134E-006
   70.9650000000000        -2.683327274799935E-006
   71.1550000000000        -2.197041327086668E-006
   71.3450000000000        -1.659765042144918E-006
   71.5350000000000        -1.114618298815533E-006
   71.7250000000000        -6.034313397460702E-007
   71.9150000000000        -1.634563866081720E-007
   72.1050000000000         1.760134150308916E-007
   72.2950000000000         3.968325063270255E-007
   72.4850000000000         4.904247331794614E-007
   72.6750000000000         4.592721989968623E-007
   72.8650000000000         3.190614463446670E-007
   73.0550000000000         8.550309332289756E-008
   73.2450000000000        -2.176670086184025E-007
   73.4350000000000        -5.624483402652140E-007
   73.6250000000000        -9.209506430352768E-007
   73.8150000000000        -1.266145950579840E-006
   74.0050000000000        -1.573806475234948E-006
   74.1950000000000        -1.823242681174623E-006
   74.3850000000000        -1.998390983833080E-006
   74.5750000000000        -2.095844178192082E-006
   74.7650000000000        -2.100254128890926E-006
   74.9550000000000        -2.025847837095069E-006
   75.1450000000000        -1.873019755416572E-006
   75.3350000000000        -1.663438375524726E-006
   75.5250000000000        -1.418050367135235E-006
   75.7150000000000        -1.157872061929912E-006
   75.9050000000000        -9.100922242313570E-007
   76.0950000000000        -7.019187857757555E-007
   76.2850000000000        -5.543822341518026E-007
   76.4750000000000        -4.840461137972140E-007
   76.6650000000000        -5.005733893823625E-007
   76.8550000000000        -6.053442081160954E-007
   77.0450000000000        -7.818503763107416E-007
   77.2350000000000        -1.017486461873249E-006
   77.4250000000000        -1.294623656995204E-006
   77.6150000000000        -1.589612741894275E-006
   77.8050000000000        -1.873007952517153E-006
   77.9950000000000        -2.121643525333299E-006
   78.1850000000000        -2.315653868077559E-006
   78.3750000000000        -2.441072795755170E-006
   78.5650000000000        -2.485906269929608E-006
   78.7550000000000        -2.456119180517405E-006
   78.9450000000000        -2.341918008908783E-006
   79.1350000000000        -2.163324105688619E-006
   79.3250000000000        -1.927549110441323E-006
   79.5150000000000        -1.651438559643801E-006
   79.7050000000000        -1.352516895846028E-006
   79.8950000000000        -1.049584724841894E-006
   80.0850000000000        -7.609997264346081E-007
   80.2750000000000        -5.021512774374674E-007
   80.4650000000000        -2.917536816732564E-007
   80.6550000000000        -1.420871738566220E-007
   80.8450000000000        -6.264850846666352E-008
   81.0350000000000        -5.908292925595033E-008
   81.2250000000000        -1.316923452756034E-007
   81.4150000000000        -2.715186883797232E-007
   81.6050000000000        -4.668288425105631E-007
   81.7950000000000        -7.029682661116887E-007
   81.9850000000000        -9.648034448320064E-007
   82.1750000000000        -1.236048390293042E-006
   82.3650000000000        -1.494543743039171E-006
   82.5550000000000        -1.725377377525553E-006
   82.7450000000000        -1.917398985503498E-006
   82.9350000000000        -2.061475552734222E-006
   83.1250000000000        -2.157597774048912E-006
   83.3150000000000        -2.205526718550306E-006
   83.5050000000000        -2.208372490180791E-006
   83.6950000000000        -2.176160403558809E-006
   83.8850000000000        -2.116897372075170E-006
   84.0750000000000        -2.035643248473340E-006
   84.2650000000000        -1.941300728895286E-006
   84.4550000000000        -1.838962491074793E-006
   84.6450000000000        -1.733645409567748E-006
   84.8350000000000        -1.628771569882234E-006
   85.0250000000000        -1.526448757916569E-006
   85.2150000000000        -1.429295519684793E-006
   85.4050000000000        -1.339317351123696E-006
   85.5950000000000        -1.260518777186529E-006
   85.7850000000000        -1.194986488339280E-006
   85.9750000000000        -1.146413903323412E-006
   86.1650000000000        -1.116863881218778E-006
   86.3550000000000        -1.108493027228156E-006
   86.5450000000000        -1.122750693323098E-006
   86.7350000000000        -1.159809645415863E-006
   86.9250000000000        -1.218920236811750E-006
   87.1150000000000        -1.298213147088036E-006
   87.3050000000000        -1.394079822098242E-006
   87.4950000000000        -1.502272319439095E-006
   87.6850000000000        -1.617467943824087E-006
   87.8750000000000        -1.734782299408915E-006
   88.0650000000000        -1.848281326560920E-006
   88.2550000000000        -1.959505811376209E-006
   88.4450000000000        -2.060830425749114E-006
   88.6350000000000        -2.150951324951438E-006
   88.8250000000000        -2.222519762153921E-006
   89.0150000000000        -2.277934017177522E-006
   89.2050000000000        -2.310832646657033E-006
   89.3950000000000        -2.322111536232333E-006
   89.5850000000000        -2.314651330753877E-006
   89.7750000000000        -2.292644017535775E-006
   89.9650000000000        -2.261681066402557E-006
   90.1550000000000        -2.228223030630668E-006
   90.3450000000000        -2.199214692871616E-006
   90.5350000000000        -2.177302210395073E-006
   90.7250000000000        -2.175321401040360E-006
   90.9150000000000        -2.195283165631602E-006
   91.1050000000000        -2.238449224663948E-006
   91.2950000000000        -2.303060236816851E-006
   91.4850000000000        -2.382511496734688E-006
   91.6750000000000        -2.467251974594898E-006
   91.8650000000000        -2.543917566678748E-006
   92.0550000000000        -2.601711709199224E-006
   92.2450000000000        -2.621032500394973E-006
   92.4350000000000        -2.593877956132123E-006
   92.6250000000000        -2.512534107791996E-006
   92.8150000000000        -2.372813618167263E-006
   93.0050000000000        -2.176192605427860E-006
   93.1950000000000        -1.930723785117262E-006
   93.3850000000000        -1.649947227585674E-006
   93.5750000000000        -1.352030105778178E-006
   93.7650000000000        -1.058288690598828E-006
   93.9550000000000        -7.912071937528310E-007
   94.1450000000000        -5.727309147536812E-007
   94.3350000000000        -4.223547236207259E-007
   94.5250000000000        -3.553357965317348E-007
   94.7150000000000        -3.805994973876684E-007
   94.9050000000000        -4.930496067732250E-007
   95.0950000000000        -6.983700515238983E-007
   95.2850000000000        -9.771705889255277E-007
   95.4750000000000        -1.316971350451648E-006
   95.6650000000000        -1.696766437752351E-006
   95.8550000000000        -2.092012062618564E-006
   96.0450000000000        -2.477756984991761E-006
   96.2350000000000        -2.830036408203017E-006
   96.4250000000000        -3.127296463061399E-006
   96.6150000000000        -3.352759933711718E-006
   96.8050000000000        -3.492768271232349E-006
   96.9950000000000        -3.542517802585047E-006
   97.1850000000000        -3.502047924435808E-006
   97.3750000000000        -3.374543551353663E-006
   97.5650000000000        -3.181416935804535E-006
   97.7550000000000        -2.938949866367862E-006
   97.9450000000000        -2.669730481883383E-006
   98.1350000000000        -2.398126902246674E-006
   98.3250000000000        -2.148079634054752E-006
   98.5150000000000        -1.940799631467858E-006
   98.7050000000000        -1.793042559287450E-006
   98.8950000000000        -1.718101430064209E-006
   99.0850000000000        -1.707374269217819E-006
   99.2750000000000        -1.768485051212528E-006
   99.4650000000000        -1.883542322662008E-006
   99.6550000000000        -2.037640754318218E-006
   99.8450000000000        -2.217364466877917E-006
   100.035000000000        -2.392316160697566E-006
   100.225000000000        -2.552467450579262E-006
   100.415000000000        -2.673681372476311E-006
   100.605000000000        -2.747919365072426E-006
   100.795000000000        -2.770025815383856E-006
   100.985000000000        -2.737569183690008E-006
   101.175000000000        -2.656033822826661E-006
   101.365000000000        -2.534535832087103E-006
   101.555000000000        -2.382179128650691E-006
   101.745000000000        -2.211417202064954E-006
   101.935000000000        -2.035736136462172E-006
   102.125000000000        -1.867415357322850E-006
   102.315000000000        -1.717976776493354E-006
   102.505000000000        -1.597203225362486E-006
   102.695000000000        -1.515184272491234E-006
   102.885000000000        -1.478794008626245E-006
   103.075000000000        -1.491913670745658E-006
   103.265000000000        -1.553637643881153E-006
   103.455000000000        -1.665306551979578E-006
   103.645000000000        -1.822205543882627E-006
   103.835000000000        -2.017843500019558E-006
   104.025000000000        -2.248051447945284E-006
   104.215000000000        -2.496575063161017E-006
   104.405000000000        -2.748799455304233E-006
   104.595000000000        -2.989914738064858E-006
   104.785000000000        -3.205570059259310E-006
   104.975000000000        -3.383482557290689E-006
   105.165000000000        -3.513801250123224E-006
   105.355000000000        -3.595146851182239E-006
   105.545000000000        -3.625143766057193E-006
   105.735000000000        -3.604529391288221E-006
   105.925000000000        -3.531934995907240E-006
   106.115000000000        -3.425286691824876E-006
   106.305000000000        -3.288185861100811E-006
   106.495000000000        -3.129754484091787E-006
   106.685000000000        -2.957211300393036E-006
   106.875000000000        -2.776578445942657E-006
   107.065000000000        -2.593586148882812E-006
   107.255000000000        -2.413621952065159E-006
   107.445000000000        -2.242702991534921E-006
   107.635000000000        -2.087708523682853E-006
   107.825000000000        -1.955939149416508E-006
   108.015000000000        -1.854891898559582E-006
   108.205000000000        -1.792820590825376E-006
   108.395000000000        -1.772640315600987E-006
   108.585000000000        -1.797796649306593E-006
   108.775000000000        -1.867742966274345E-006
   108.965000000000        -1.986028862922030E-006
   109.155000000000        -2.140311540628841E-006
   109.345000000000        -2.320044874349925E-006
   109.535000000000        -2.512762901404730E-006
   109.725000000000        -2.705142563488884E-006
   109.915000000000        -2.885471307800179E-006
   110.105000000000        -3.043776600315270E-006