  -1.79550000000000         0.000000000000000E+000
  -1.55610000000000         0.000000000000000E+000
  -1.31670000000000         0.000000000000000E+000
  -1.07730000000000         0.000000000000000E+000
 -0.837900000000000         0.000000000000000E+000
 -0.598500000000000         0.000000000000000E+000
 -0.359100000000000         0.000000000000000E+000
 -0.119700000000000         0.000000000000000E+000
  0.119700000000000         0.000000000000000E+000
  0.359100000000000         0.000000000000000E+000
  0.598500000000000         0.000000000000000E+000
  0.837900000000000         0.000000000000000E+000
   1.07730000000000         0.000000000000000E+000
   1.31670000000000         0.000000000000000E+000
   1.55610000000000         0.000000000000000E+000
   1.79550000000000         0.000000000000000E+000
   2.03490000000000         0.000000000000000E+000
   2.27430000000000         0.000000000000000E+000
   2.51370000000000         0.000000000000000E+000
   2.75310000000000         0.000000000000000E+000
   2.99250000000000         0.000000000000000E+000
   3.23190000000000         0.000000000000000E+000
   3.47130000000000         0.000000000000000E+000
   3.71070000000000         0.000000000000000E+000
   3.95010000000000         0.000000000000000E+000
   4.18950000000000         0.000000000000000E+000
   4.42890000000000         0.000000000000000E+000
   4.66830000000000         0.000000000000000E+000
   4.90770000000000         0.000000000000000E+000
   5.14710000000000         0.000000000000000E+000
   5.38650000000000         0.000000000000000E+000
   5.62590000000000         0.000000000000000E+000
   5.86530000000000         0.000000000000000E+000
   6.10470000000000         0.000000000000000E+000
   6.34410000000000         0.000000000000000E+000
   6.58350000000000         0.000000000000000E+000
   6.82290000000000         0.000000000000000E+000
   7.06230000000000         0.000000000000000E+000
   7.30170000000000         0.000000000000000E+000
   7.54110000000000         0.000000000000000E+000
   7.78050000000000         0.000000000000000E+000
   8.01990000000000         0.000000000000000E+000
   8.25930000000000         0.000000000000000E+000
   8.49870000000000         0.000000000000000E+000
   8.73810000000000         2.334391732318187E-173
   8.97750000000000        -1.965277910586140E-167
   9.21690000000000        -8.008960894537415E-164
   9.45630000000000        -6.800653042768378E-162
   9.69570000000000         1.409387388225044E-159
   9.93510000000000         1.247013055828536E-157
   10.1745000000000         5.033655036069266E-156
   10.4139000000000         1.330836965768260E-154
   10.6533000000000         2.621978451033303E-153
   10.8927000000000         4.123670969896485E-152
   11.1321000000000         5.413784208598303E-151
   11.3715000000000         6.133209440904911E-150
   11.6109000000000         6.160280770326022E-149
   11.8503000000000         5.614242969750077E-148
   12.0897000000000         4.733574546738718E-147
   12.3291000000000         3.746806917405962E-146
   12.5685000000000         2.808870072073572E-145
   12.8079000000000         2.000157680022672E-144
   13.0473000000000         1.350732589105133E-143
   13.2867000000000         8.616635760066182E-143
   13.5261000000000         5.169702967099794E-142
   13.7655000000000         2.906326856946965E-141
   14.0049000000000         1.527021421208551E-140
   14.2443000000000         7.487607408196533E-140
   14.4837000000000         3.425590344383094E-139
   14.7231000000000         1.464131497837715E-138
   14.9625000000000         5.868035645906125E-138
   15.2019000000000         2.223097635809923E-137
   15.4413000000000         8.083857619785317E-137
   15.6807000000000         2.893967451530051E-136
   15.9201000000000         1.054634752081297E-135
   16.1595000000000         4.024699508565836E-135
   16.3989000000000         1.615100684674157E-134
   16.6383000000000         6.655474701795962E-134
   16.8777000000000         2.718048435260603E-133
   17.1171000000000         1.066193326153416E-132
   17.3565000000000         3.925085290906084E-132
   17.5959000000000         1.330550934803194E-131
   17.8353000000000         4.060947748533899E-131
   18.0747000000000         1.071855962082807E-130
   18.3141000000000         2.199749225583142E-130
   18.5535000000000         1.948326091599127E-130
   18.7929000000000        -1.134826036765325E-129
   19.0323000000000        -8.757170878896952E-129
   19.2717000000000        -4.008367133514790E-128
   19.5111000000000        -1.467526990665910E-127
   19.7505000000000        -4.568007380019405E-127
   19.9899000000000        -1.208783739790399E-126
   20.2293000000000        -2.553825819082670E-126
   20.4687000000000        -3.131995092284923E-126
   20.7081000000000         6.119711027042903E-126
   20.9475000000000         6.392476910159952E-125
   21.1869000000000         3.069058909122477E-124
   21.4263000000000         1.160139866395157E-123
   21.6657000000000         3.817688316449580E-123
   21.9051000000000         1.132444583752596E-122
   22.1445000000000         3.066640151419171E-122
   22.3839000000000         7.581533321716824E-122
   22.6233000000000         1.688910014958579E-121
   22.8627000000000         3.263878175081095E-121
   23.1021000000000         4.867290813675601E-121
   23.3415000000000         2.545917780185338E-121
   23.5809000000000        -1.853140051124681E-120
   23.8203000000000        -1.037622577433276E-119
   24.0597000000000        -3.754422043017567E-119
   24.2991000000000        -1.130804429671263E-118
   24.5385000000000        -3.024057834696328E-118
   24.7779000000000        -7.341131617347782E-118
   25.0173000000000        -1.623924870098793E-117
   25.2567000000000        -3.236765318767513E-117
   25.4961000000000        -5.606066231124996E-117
   25.7355000000000        -7.544883438332380E-117
   25.9749000000000        -3.904872306621412E-117
   26.2143000000000         2.096695877680113E-116
   26.4537000000000         1.069830430752460E-115
   26.6931000000000         3.435029608695252E-115
   26.9325000000000         9.072450218815750E-115
   27.1719000000000         2.099096210883540E-114
   27.4113000000000         4.320069899119735E-114
   27.6507000000000         7.815070294075737E-114
   27.8901000000000         1.178289857328166E-113
   28.1295000000000         1.204958137908709E-113
   28.3689000000000        -4.044795976458412E-114
   28.6083000000000        -6.727196660441701E-113
   28.8477000000000        -2.415109449739687E-112
   29.0871000000000        -6.401559073982045E-112
   29.3265000000000        -1.425615840638244E-111
   29.5659000000000        -2.739936560146285E-111
   29.8053000000000        -4.448402797163038E-111
   30.0447000000000        -5.469629746347529E-111
   30.2841000000000        -2.332176048717370E-111
   30.5235000000000         1.346160437766842E-110
   30.7629000000000         5.937733418887619E-110
   31.0023000000000         1.658720173909998E-109
   31.2417000000000         3.756425588074898E-109
   31.4811000000000         7.253189845399982E-109
   31.7205000000000         1.182259569286861E-108
   31.9599000000000         1.486995988199173E-108
   32.1993000000000         8.275895095978340E-109
   32.4387000000000        -2.732356608023259E-108
   32.6781000000000        -1.307820392024771E-107
   32.9175000000000        -3.686060827126682E-107
   33.1569000000000        -8.337492019400485E-107
   33.3963000000000        -1.612110318469854E-106
   33.6357000000000        -2.670290704562079E-106
   33.8751000000000        -3.584895424172643E-106
   34.1145000000000        -3.000925195169431E-106
   34.3539000000000         2.291475856577979E-106
   34.5933000000000         1.865741244326888E-105
   34.8327000000000         5.691046024698273E-105
   35.0721000000000         1.323279152672204E-104
   35.3115000000000         2.604139918878384E-104
   35.5509000000000         4.426734989738866E-104
   35.7903000000000         6.330208757842331E-104
   36.0297000000000         6.722997670491504E-104
   36.2691000000000         1.795430103889964E-104
   36.5085000000000        -1.597869420719668E-103
   36.7479000000000        -5.932926592391564E-103
   36.9873000000000        -1.463699925719796E-102
   37.2267000000000        -2.965965094125832E-102
   37.4661000000000        -5.174233351030980E-102
   37.7055000000000        -7.730627009809858E-102
   37.9449000000000        -9.254395063329838E-102
   38.1843000000000        -6.387577926332390E-102
   38.4237000000000         7.485193382242559E-102
   38.6631000000000         4.348175677883905E-101
   38.9025000000000         1.174144752483550E-100
   39.1419000000000         2.467976099788103E-100
   39.3813000000000         4.409570301599999E-100
   39.6207000000000         6.787903594420943E-100
   39.8601000000000         8.677978787893945E-100
   40.0995000000000         7.799698248615458E-100
   40.3389000000000        -3.138196338115648E-101
   40.5783000000000        -2.309389810074426E-099
   40.8177000000000        -7.103094680177169E-099
   41.0571000000000        -1.558486566365739E-098
   41.2965000000000        -2.847224945948998E-098
   41.5359000000000        -4.477359040560177E-098
   41.7753000000000        -5.955684261628856E-098
   42.0147000000000        -6.058280173103644E-098
   42.2541000000000        -2.411342169950263E-098
   42.4935000000000         8.877937466015342E-098
   42.7329000000000         3.323059761744407E-097
   42.9723000000000         7.667528326118146E-097
   43.2117000000000         1.431178016863545E-096
   43.4511000000000         2.286730177832562E-096
   43.6905000000000         3.119852931537699E-096
   43.9299000000000         3.402302991181652E-096
   44.1693000000000         2.125558866246046E-096
   44.4087000000000        -2.332482540376546E-096
   44.6481000000000        -1.218578130925616E-095
   44.8875000000000        -2.985359199518500E-095
   45.1269000000000        -5.690790217284134E-095
   45.3663000000000        -9.200288902203954E-095
   45.6057000000000        -1.275070672287466E-094
   45.8451000000000        -1.448811862224789E-094
   46.0845000000000        -1.095748362345224E-094
   46.3239000000000         3.250269189933669E-095
   46.5633000000000         3.530080577386507E-094
   46.8027000000000         9.275171571404619E-094
   47.0421000000000         1.802134767692518E-093
   47.2815000000000         2.932135078002974E-093
   47.5209000000000         4.088262344155617E-093
   47.7603000000000         4.737166226960970E-093
   47.9997000000000         3.923322022803520E-093
   48.2391000000000         2.122921470263947E-094
   48.4785000000000        -8.203074170065766E-093
   48.7179000000000        -2.309087465515657E-092
   48.9573000000000        -4.530124521926805E-092
   49.1967000000000        -7.329725914017550E-092
   49.4361000000000        -1.011163924027973E-091
   49.6755000000000        -1.160827199885162E-091
   49.9149000000000        -9.707497902441280E-092
   50.1543000000000        -1.479659899132045E-092
   50.3937000000000         1.638526513504751E-091
   50.6331000000000         4.648537231229492E-091
   50.8725000000000         8.876246921147568E-091
   51.1119000000000         1.377107990317557E-090
   51.3513000000000         1.791739141772653E-090
   51.5907000000000         1.878636229703920E-090
   51.8301000000000         1.276508057688810E-090
   52.0695000000000        -4.241734517675637E-091
   52.3089000000000        -3.530196002690877E-090
   52.5483000000000        -7.979516642551692E-090
   52.7877000000000        -1.296918323924574E-089
   53.0271000000000        -1.655537301682943E-089
   53.2665000000000        -1.541436801236814E-089
   53.5059000000000        -5.097247145686530E-090
   53.7453000000000         1.874826551515559E-089
   53.9847000000000         5.765765638886206E-089
   54.2241000000000         1.057592057954020E-088
   54.4635000000000         1.435024583168038E-088
   54.7029000000000         1.310616566061475E-088
   54.9423000000000         4.684694859303885E-090
   55.1817000000000        -3.181463229129953E-088
   55.4211000000000        -9.160927489896303E-088
   55.6605000000000        -1.813438694098267E-087
   55.8999000000000        -2.892574696313647E-087
   56.1393000000000        -3.768011247546007E-087
   56.3787000000000        -3.638241504107748E-087
   56.6181000000000        -1.163360458343538E-087
   56.8575000000000         5.536938775232142E-087
   57.0969000000000         1.861280190269809E-086
   57.3363000000000         3.973488238397970E-086
   57.5757000000000         6.863925766640356E-086
   57.8151000000000         1.008010096795719E-085
   58.0545000000000         1.242826292038004E-085
   58.2939000000000         1.162440503092108E-085
   58.5333000000000         4.033628501085603E-086
   58.7727000000000        -1.527609282956345E-085
   59.0121000000000        -5.181715060695969E-085
   59.2515000000000        -1.098457413375678E-084
   59.4909000000000        -1.889189169259630E-084
   59.7303000000000        -2.785091299217631E-084
   59.9697000000000        -3.508084949237831E-084
   60.2091000000000        -3.527950271056042E-084
   60.4485000000000        -2.001671486693268E-084
   60.6879000000000         2.221149658429264E-084
   60.9273000000000         1.045456445051508E-083
   61.1667000000000         2.380018648338385E-083
   61.4061000000000         4.243846227130240E-083
   61.6455000000000         6.451590764325117E-083
   61.8849000000000         8.464696306417879E-083
   62.1243000000000         9.222909330683248E-083
   62.3637000000000         7.006217816244615E-083
   62.6031000000000        -5.831401549827425E-084
   62.8425000000000        -1.638162601216725E-082
   63.0819000000000        -4.298919903036796E-082
   63.3213000000000        -8.146438120403469E-082
   63.5607000000000        -1.292440107872448E-081
   63.8001000000000        -1.772985807850683E-081
   64.0395000000000        -2.068493568111574E-081
   64.2789000000000        -1.864867821092565E-081
   64.5183000000000        -7.124213551407873E-082
   64.7577000000000         1.940000490496199E-081
   64.9971000000000         6.636041537692129E-081
   65.2365000000000         1.369351322428199E-080
   65.4759000000000         2.284947710155011E-080
   65.7153000000000         3.276652196762972E-080
   65.9547000000000         4.044903926799570E-080
   66.1941000000000         4.070157031417453E-080
   66.4335000000000         2.587698541739742E-080
   66.6729000000000        -1.370166531623697E-080
   66.9123000000000        -8.813681947622199E-080
   67.1517000000000        -2.046048562436562E-079
   67.3911000000000        -3.617937717854350E-079
   67.6305000000000        -5.420387607723470E-079
   67.8699000000000        -7.018298551346160E-079
   68.1093000000000        -7.626170107287010E-079
   68.3487000000000        -6.055757380264320E-079
   68.5881000000000        -7.604264359283815E-080
   68.8275000000000         9.947733138924179E-079
   69.0669000000000         2.742284017788727E-078
   69.3063000000000         5.188018704397421E-078
   69.5457000000000         8.124073873459820E-078
   69.7851000000000         1.097114219216421E-077
   70.0245000000000         1.263620431933411E-077
   70.2639000000000         1.142018807926434E-077
   70.5033000000000         5.054430560791984E-078
   70.7427000000000        -9.028581870458325E-078
   70.9821000000000        -3.307109511344024E-077
   71.2215000000000        -6.790939025015759E-077
   71.4609000000000        -1.113996250614038E-076
   71.7003000000000        -1.564518987938370E-076
   71.9397000000000        -1.890010345627894E-076
   72.1791000000000        -1.865571007610738E-076
   72.4185000000000        -1.183496545096580E-076
   72.6579000000000         5.157091159256913E-077
   72.8973000000000         3.567220785430225E-076
   73.1367000000000         8.146890805078503E-076
   73.3761000000000         1.407149595430091E-075
   73.6155000000000         2.054512447175173E-075
   73.8549000000000         2.589010513382396E-075
   74.0943000000000         2.733909122202304E-075
   74.3337000000000         2.101014533379389E-075
   74.5731000000000         2.229808654129514E-076
   74.8125000000000        -3.360588886249066E-075
   75.0519000000000        -8.945919621183110E-075
   75.2913000000000        -1.642815233762466E-074
   75.5307000000000        -2.499506112275914E-074
   75.7701000000000        -3.279293845482158E-074
   76.0095000000000        -3.664976918570710E-074
   76.2489000000000        -3.199278299105013E-074
   76.4883000000000        -1.314792200266891E-074
   76.7277000000000         2.575977079696552E-074
   76.9671000000000         8.909881111715062E-074
   77.2065000000000         1.771001164187122E-073
   77.4459000000000         2.823834664767005E-073
   77.6853000000000         3.860550765064489E-073
   77.9247000000000         4.542575811686001E-073
   78.1641000000000         4.366181490695831E-073
   78.4035000000000         2.686012979966714E-073
   78.6429000000000        -1.198473900022526E-073
   78.8823000000000        -7.870421449122399E-073
   79.1217000000000        -1.752186789214034E-072
   79.3611000000000        -2.958335345891848E-072
   79.6005000000000        -4.229436430690823E-072
   79.8399000000000        -5.229946473096753E-072
   80.0793000000000        -5.441300705316542E-072
   80.3187000000000        -4.175465414998596E-072
   80.5581000000000        -6.501647749747760E-073
   80.7975000000000         5.849325294659235E-072
   81.0369000000000         1.570386624359175E-071
   81.2763000000000         2.858924595969978E-071
   81.5157000000000         4.303061924127488E-071
   81.7551000000000         5.595826657611790E-071
   81.9945000000000         6.239685318335069E-071
   82.2339000000000         5.548008664004583E-071
   82.4733000000000         2.703041774682229E-071
   82.7127000000000        -3.104358012039906E-071
   82.9521000000000        -1.243305634518175E-070
   83.1915000000000        -2.524259525246504E-070
   83.4309000000000        -4.045834312029391E-070
   83.6703000000000        -5.551292413689191E-070
   83.9097000000000        -6.597807294225692E-070
   84.1491000000000        -6.545808691970072E-070
   84.3885000000000        -4.596532296564544E-070
   84.6279000000000         9.798377486034660E-072
   84.8673000000000         8.231309354493012E-070
   85.1067000000000         2.003555854859944E-069
   85.3461000000000         3.488300110267396E-069
   85.5855000000000         5.084268246868720E-069
   85.8249000000000         6.428368497257110E-069
   86.0643000000000         6.966821476042591E-069
   86.3037000000000         5.972554485179874E-069
   86.5431000000000         2.622618537110220E-069
   86.7825000000000        -3.843677562399686E-069
   87.0219000000000        -1.387300105891038E-068
   87.2613000000000        -2.725634237632815E-068
   87.5007000000000        -4.272827262654463E-068
   87.7401000000000        -5.757505479315632E-068
   87.9795000000000        -6.736355683547369E-068
   88.2189000000000        -6.594651658269685E-068
   88.4583000000000        -4.593089733376264E-068
   88.6977000000000         2.018251391632574E-070
   88.9371000000000         7.818154131295092E-068
   89.1765000000000         1.892156826411534E-067
   89.4159000000000         3.266098355698744E-067
   89.6553000000000         4.722033133192814E-067
   89.8947000000000         5.934340523979438E-067
   90.1341000000000         6.422195507108092E-067
   90.3735000000000         5.571458026831182E-067
   90.6129000000000         2.705709193094789E-067
   90.8523000000000        -2.779788101112963E-067
   91.0917000000000        -1.121477285070926E-066
   91.3311000000000        -2.238863052557491E-066
   91.5705000000000        -3.525101076650495E-066
   91.8099000000000        -4.763317515749744E-066
   92.0493000000000        -5.607460488094078E-066
   92.2887000000000        -5.586649858918062E-066
   92.5281000000000        -4.143962297401160E-066
   92.7675000000000        -7.217439529860877E-067
   93.0069000000000         5.098582076063410E-066
   93.2463000000000         1.340296452484498E-065
   93.4857000000000         2.371214786711008E-065
   93.7251000000000         3.474374807376086E-065
   93.9645000000000         4.422493408401683E-065
   94.2039000000000         4.883374210137475E-065
   94.4433000000000         4.436329922136936E-065
   94.6827000000000         2.620607311020815E-065
   94.9221000000000        -9.764155820806016E-066
   95.1615000000000        -6.588526967018891E-065
   95.4009000000000        -1.410349942425591E-064
   95.6403000000000        -2.287802404432883E-064
   95.8797000000000        -3.156894371542377E-064
   96.1191000000000        -3.803157340517143E-064
   96.3585000000000        -3.935008318341653E-064
   96.5979000000000        -3.207181828196721E-064
   96.8373000000000        -1.271106887599666E-064
   97.0767000000000         2.143808399455240E-064
   97.3161000000000         7.119084759978889E-064
   97.5555000000000         1.341513984301397E-063
   97.7949000000000         2.033737273252689E-063
   98.0343000000000         2.663100478970743E-063
   98.2737000000000         3.044634687807992E-063
   98.5131000000000         2.942370557838551E-063
   98.7525000000000         2.094741234087523E-063
   98.9919000000000         2.607240759018017E-064
   99.2313000000000        -2.712113553518446E-063
   99.4707000000000        -6.800949053106045E-063
   99.7101000000000        -1.171191331631450E-062
   99.9495000000000        -1.679217709945917E-062
   100.188900000000        -2.097471381314080E-062
   100.428300000000        -2.278696832455889E-062
   100.667700000000        -2.045747953002623E-062
   100.907100000000        -1.215105347311852E-062
   101.146500000000         3.649311208909640E-063
   101.385900000000         2.761896932226334E-062
   101.625300000000         5.896702454005324E-062
   101.864700000000         9.479622947807648E-062
   102.104100000000         1.295836584112827E-061
   102.343500000000         1.549657735601236E-061
   102.582900000000         1.600431059055846E-061
   102.822300000000         1.324199748748655E-061
   103.061700000000         6.014654311835779E-062
   103.301100000000        -6.538104622255837E-062
   103.540500000000        -2.456905391496466E-061
   103.779900000000        -4.710550289700617E-061
   104.019300000000        -7.165511374417313E-061
   104.258700000000        -9.393515926476628E-061
   104.498100000000        -1.078506780023446E-060
   104.737500000000        -1.058585041632980E-060
   104.976900000000        -7.984154413032668E-061
   105.216300000000        -2.257114128291270E-061
   105.455700000000         7.025248259588154E-061
   105.695100000000         1.975230363113342E-060
   105.934500000000         3.501240384635606E-060
   106.173900000000         5.086956307944736E-060
   106.413300000000         6.424469030903603E-060
   106.652700000000         7.098095690385115E-060
   106.892100000000         6.617401929222101E-060
   107.131500000000         4.483214600271509E-060
   107.370900000000         2.893704793102441E-061
   107.610300000000        -6.143301248656978E-060
   107.849700000000        -1.461291092713485E-059
   108.089100000000        -2.438489802268635E-059
   108.328500000000        -3.407622064681536E-059
   108.567900000000        -4.161779380655222E-059
   108.807300000000        -4.434226926692127E-059
   109.046700000000        -3.924124774671499E-059
   109.286100000000        -2.342224178492806E-059
   109.525500000000         5.231208902129199E-060
   109.764900000000         4.723368777192862E-059
   110.004300000000         1.005966648817596E-058
   110.243700000000         1.600020597442158E-058
   110.483100000000         2.162583922291065E-058
   110.722500000000         2.562896090528254E-058
   110.961900000000         2.639175420622401E-058
   111.201300000000         2.216611101811632E-058
   111.440700000000         1.136734229109969E-058
   111.680100000000        -7.023755280485774E-059
   111.919500000000        -3.298068568831333E-058
   112.158900000000        -6.493342961420200E-058
   112.398300000000        -9.934582680158306E-058
   112.637700000000        -1.304895379990783E-057
   112.877100000000        -1.505532345773699E-057
   113.116500000000        -1.502228946298040E-057
   113.355900000000        -1.198375339514794E-057
   113.595300000000        -5.115744527962737E-058
   113.834700000000         6.032381755943847E-058
   114.074100000000         2.127332979379924E-057
   114.313500000000         3.952114571825318E-057
   114.552900000000         5.858809000624783E-057
   114.792300000000         7.510594306429327E-057
   115.031700000000         8.464441227142236E-057
   115.271100000000         8.209334567366475E-057
   115.510500000000         6.235358295014751E-057
   115.749900000000         2.134068413612711E-057
   115.989300000000        -4.275387398268654E-057
   116.228700000000        -1.280748852625804E-056
   116.468100000000        -2.278032391476186E-056
   116.707500000000        -3.292361523314486E-056
   116.946900000000        -4.135966713119454E-056
   117.186300000000        -4.569341640711424E-056
   117.425700000000        -4.324256734186732E-056
   117.665100000000        -3.142532783574527E-056
   117.904500000000        -8.300505963231835E-057
   118.143900000000         2.677693369520324E-056
   118.383300000000         7.246005643769786E-056
   118.622700000000         1.247895142851416E-055
   118.862100000000         1.767997891673834E-055
   119.101500000000         2.185255140461379E-055
   119.340900000000         2.375796904079317E-055
   119.580300000000         2.204406362667945E-055
   119.819700000000         1.545085986856187E-055
   120.059100000000         3.087328032239810E-056
   120.298500000000        -1.524256893923410E-055
   120.537900000000        -3.870485376255008E-055
   120.777300000000        -6.515057460466234E-055
   121.016700000000        -9.095540692857053E-055
   121.256100000000        -1.110662728443282E-054
   121.495500000000        -1.193332740889041E-054
   121.734900000000        -1.091847339103452E-054
   121.974300000000        -7.466339657685334E-055
   122.213700000000        -1.178234104016262E-055
   122.453100000000         7.991710044471306E-055
   122.692500000000         1.958088734969339E-054
   122.931900000000         3.249138614344578E-054
   123.171300000000         4.492706800376351E-054
   123.410700000000         5.443225716702593E-054
   123.650100000000         5.806647369446998E-054
   123.889500000000         5.273876972564163E-054
   124.128900000000         3.570568438706142E-054
   124.368300000000         5.208726837434585E-055
   124.607700000000        -3.880766150409034E-054
   124.847100000000        -9.399489511987625E-054
   125.086500000000        -1.550487741578073E-053
   125.325900000000        -2.134666768429090E-053
   125.565300000000        -2.577799020439481E-053
   125.804700000000        -2.744083088753128E-053
   126.044100000000        -2.492311300951636E-053
   126.283500000000        -1.698769816407190E-053
   126.522900000000        -2.860931039229715E-054
   126.762300000000         1.744704784431799E-053
   127.001700000000         4.283443103141874E-053
   127.241100000000         7.087147531228412E-053
   127.480500000000         9.770525304882567E-053
   127.719900000000         1.181768053199383E-052
   127.959300000000         1.262122504234963E-052
   128.198700000000         1.155250377323914E-052
   128.438100000000         8.062641350818541E-053
   128.677500000000         1.808635661124979E-053
   128.916900000000        -7.207821309091537E-053
   129.156300000000        -1.850798573444551E-052
   129.395700000000        -3.103548323318825E-052
   129.635100000000        -4.311686867002697E-052
   129.874500000000        -5.251317581664646E-052
   130.113900000000        -5.658785072231704E-052
   130.353300000000        -5.260599734202905E-052
   130.592700000000        -3.816297616931098E-052
   130.832100000000        -1.171761928982552E-052
   131.071500000000         2.682161045486018E-052
   131.310900000000         7.553721774273032E-052
   131.550300000000         1.300744992218789E-051
   131.789700000000         1.834651990484000E-051
   132.029100000000         2.263252699620431E-051
   132.268500000000         2.475307329932834E-051
   132.507900000000         2.354333099087876E-051
   132.747300000000         1.796096344825332E-051
   132.986700000000         7.304665337225885E-052
   133.226100000000        -8.544180272806920E-052
   133.465500000000        -2.888843131546893E-051
   133.704900000000        -5.203234614182221E-051
   133.944300000000        -7.519720812060169E-051
   134.183700000000        -9.458463153539416E-051
   134.423100000000        -1.056300078690050E-050
   134.662500000000        -1.034724600274165E-050
   134.901900000000        -8.364162311955262E-051
   135.141300000000        -4.292634947291183E-051
   135.380700000000         1.965141102786996E-051
   135.620100000000         1.018782829593020E-050
   135.859500000000         1.975671535555386E-050
   136.098900000000         2.961389692680085E-050
   136.338300000000         3.827636589753237E-050
   136.577700000000         4.392332336588741E-050
   136.817100000000         4.456829026370947E-050
   137.056500000000         3.831807227628818E-050
   137.295900000000         2.370750761903981E-050
   137.535300000000         8.308043131635967E-053
   137.774700000000        -3.200850356631828E-050
   138.014100000000        -7.048651293059137E-050
   138.253500000000        -1.115286873495231E-049
   138.492900000000        -1.495661206810691E-049
   138.732300000000        -1.775507922185870E-049