  -1.79550000000000         0.000000000000000E+000
  -1.55610000000000         0.000000000000000E+000
  -1.31670000000000         0.000000000000000E+000
  -1.07730000000000         0.000000000000000E+000
 -0.837900000000000         0.000000000000000E+000
 -0.598500000000000         0.000000000000000E+000
 -0.359100000000000         0.000000000000000E+000
 -0.119700000000000         0.000000000000000E+000
  0.119700000000000         0.000000000000000E+000
  0.359100000000000         0.000000000000000E+000
  0.598500000000000         0.000000000000000E+000
  0.837900000000000         0.000000000000000E+000
   1.07730000000000         0.000000000000000E+000
   1.31670000000000         0.000000000000000E+000
   1.55610000000000         0.000000000000000E+000
   1.79550000000000         0.000000000000000E+000
   2.03490000000000         0.000000000000000E+000
   2.27430000000000         0.000000000000000E+000
   2.51370000000000         0.000000000000000E+000
   2.75310000000000         0.000000000000000E+000
   2.99250000000000         0.000000000000000E+000
   3.23190000000000         0.000000000000000E+000
   3.47130000000000         0.000000000000000E+000
   3.71070000000000         0.000000000000000E+000
   3.95010000000000         0.000000000000000E+000
   4.18950000000000         0.000000000000000E+000
   4.42890000000000         0.000000000000000E+000
   4.66830000000000         0.000000000000000E+000
   4.90770000000000         0.000000000000000E+000
   5.14710000000000         0.000000000000000E+000
   5.38650000000000         0.000000000000000E+000
   5.62590000000000         0.000000000000000E+000
   5.86530000000000         0.000000000000000E+000
   6.10470000000000         0.000000000000000E+000
   6.34410000000000         0.000000000000000E+000
   6.58350000000000         0.000000000000000E+000
   6.82290000000000         0.000000000000000E+000
   7.06230000000000         0.000000000000000E+000
   7.30170000000000         0.000000000000000E+000
   7.54110000000000         0.000000000000000E+000
   7.78050000000000         0.000000000000000E+000
   8.01990000000000         0.000000000000000E+000
   8.25930000000000         0.000000000000000E+000
   8.49870000000000        -4.880418541217451E-172
   8.73810000000000         8.136913570920573E-166
   8.97750000000000         2.006892730206508E-162
   9.21690000000000         3.621076068902031E-161
   9.45630000000000        -5.849263935382812E-158
   9.69570000000000        -4.224866920904837E-156
   9.93510000000000        -1.502781718484352E-154
   10.1745000000000        -3.531901703740590E-153
   10.4139000000000        -6.201311639036443E-152
   10.6533000000000        -8.744897490470500E-151
   10.8927000000000        -1.043277229328787E-149
   11.1321000000000        -1.097862220153535E-148
   11.3715000000000        -1.053658851262986E-147
   11.6109000000000        -9.434018697140097E-147
   11.8503000000000        -7.956167797351376E-146
   12.0897000000000        -6.307332890522725E-145
   12.3291000000000        -4.659410033236092E-144
   12.5685000000000        -3.173493291641147E-143
   12.8079000000000        -1.972324769243157E-142
   13.0473000000000        -1.106846837211853E-141
   13.2867000000000        -5.533739718993737E-141
   13.5261000000000        -2.409609596454631E-140
   13.7655000000000        -8.703560720690374E-140
   14.0049000000000        -2.250210397299560E-139
   14.2443000000000        -9.573493129815538E-140
   14.4837000000000         3.480030849653843E-138
   14.7231000000000         2.806473418179408E-137
   14.9625000000000         1.467776202831651E-136
   15.2019000000000         5.886665912567785E-136
   15.4413000000000         1.777552456221684E-135
   15.6807000000000         3.054467384200332E-135
   15.9201000000000        -6.318458417486029E-135
   16.1595000000000        -8.645515169037886E-134
   16.3989000000000        -4.637026613518498E-133
   16.6383000000000        -1.664080458722598E-132
   16.8777000000000        -3.356011333404641E-132
   17.1171000000000         6.903651891974862E-132
   17.3565000000000         1.193202832602248E-130
   17.5959000000000         8.108381876113630E-130
   17.8353000000000         4.210990078404110E-129
   18.0747000000000         1.875431598415537E-128
   18.3141000000000         7.471563065610322E-128
   18.5535000000000         2.714580279385950E-127
   18.7929000000000         9.073564831717747E-127
   19.0323000000000         2.795378550877261E-126
   19.2717000000000         7.898123158365827E-126
   19.5111000000000         2.015355634691036E-125
   19.7505000000000         4.470249217903064E-125
   19.9899000000000         7.696868520240616E-125
   20.2293000000000         5.023719670868356E-125
   20.4687000000000        -3.576454653161718E-124
   20.7081000000000        -2.341414495595474E-123
   20.9475000000000        -9.743048127877642E-123
   21.1869000000000        -3.371523542971526E-122
   21.4263000000000        -1.039354202819204E-121
   21.6657000000000        -2.930106683692075E-121
   21.9051000000000        -7.630023534760998E-121
   22.1445000000000        -1.836040994750490E-120
   22.3839000000000        -4.046136685849136E-120
   22.6233000000000        -7.966444426780379E-120
   22.8627000000000        -1.312877436947418E-119
   23.1021000000000        -1.413103516654156E-119
   23.3415000000000         1.075429141493075E-119
   23.5809000000000         1.287787200621601E-118
   23.8203000000000         5.197353080376508E-118
   24.0597000000000         1.613412077211651E-117
   24.2991000000000         4.334557388161295E-117
   24.5385000000000         1.044902259228547E-116
   24.7779000000000         2.280437163121402E-116
   25.0173000000000         4.464755334515905E-116
   25.2567000000000         7.567434929487771E-116
   25.4961000000000         9.917161448860353E-116
   25.7355000000000         4.851262767610939E-116
   25.9749000000000        -2.678993292893418E-115
   26.2143000000000        -1.312733438316538E-114
   26.4537000000000        -4.059167419014248E-114
   26.6931000000000        -1.028032986048691E-113
   26.9325000000000        -2.262440384206594E-113
   27.1719000000000        -4.364869842883636E-113
   27.4113000000000        -7.179156834716198E-113
   27.6507000000000        -9.012395176058680E-113
   27.8901000000000        -4.069317828471772E-113
   28.1295000000000         2.251775230749309E-112
   28.3689000000000         1.026897040509269E-111
   28.6083000000000         2.948641388711304E-111
   28.8477000000000         6.861540768470189E-111
   29.0871000000000         1.362287861268085E-110
   29.3265000000000         2.287353594094410E-110
   29.5659000000000         2.981360213705926E-110
   29.8053000000000         1.815393568657751E-110
   30.0447000000000        -5.292533278113533E-110
   30.2841000000000        -2.686839404559121E-109
   30.5235000000000        -7.804650316835507E-109
   30.7629000000000        -1.807466166343357E-108
   31.0023000000000        -3.561149984439840E-108
   31.2417000000000        -5.969268792091576E-108
   31.4811000000000        -7.977920485053516E-108
   31.7205000000000        -6.103404187156111E-108
   31.9599000000000         8.111656496296719E-108
   32.1993000000000         5.176564052200188E-107
   32.4387000000000         1.542653035409938E-106
   32.6781000000000         3.570427228800540E-106
   32.9175000000000         6.997239643725152E-106
   33.1569000000000         1.173686886578616E-105
   33.3963000000000         1.611158863967858E-105
   33.6357000000000         1.466847966326674E-105
   33.8751000000000        -5.456639483408935E-106
   34.1145000000000        -6.946379524103437E-105
   34.3539000000000        -2.193164345358287E-104
   34.5933000000000        -5.122958351189639E-104
   34.8327000000000        -1.001730695003567E-103
   35.0721000000000        -1.677898639458637E-103
   35.3115000000000        -2.335159210500030E-103
   35.5509000000000        -2.324193700070045E-103
   35.7903000000000        -1.621628515713804E-104
   36.0297000000000         6.959410369548280E-103
   36.2691000000000         2.355726825870182E-102
   36.5085000000000         5.557264231123695E-102
   36.7479000000000         1.082855866876243E-101
   36.9873000000000         1.804928933514979E-101
   37.2267000000000         2.522133209410894E-101
   37.4661000000000         2.630208215552606E-101
   37.7055000000000         7.994386450214740E-102
   37.9449000000000        -5.399231451113542E-101
   38.1843000000000        -1.972952705335629E-100
   38.4237000000000        -4.693946490669331E-100
   38.6631000000000        -9.098716334739345E-100
   38.9025000000000        -1.505249290996230E-099
   39.1419000000000        -2.099505686440532E-099
   39.3813000000000        -2.245331012134139E-099
   39.6207000000000        -9.975761872892666E-100
   39.8601000000000         3.305416341330864E-099
   40.0995000000000         1.313785933033651E-098
   40.3389000000000         3.147693418817222E-098
   40.5783000000000         6.059939202951243E-098
   40.8177000000000         9.927935006910073E-098
   41.0571000000000         1.375818796900655E-097
   41.2965000000000         1.487225920155506E-097
   41.5359000000000         7.854575069232604E-098
   41.7753000000000        -1.643461109903027E-097
   42.0147000000000        -7.102787112634301E-097
   42.2541000000000        -1.707662470401621E-096
   42.4935000000000        -3.256867814738112E-096
   42.7329000000000        -5.268923343447650E-096
   42.9723000000000        -7.219686608313949E-096
   43.2117000000000        -7.789789996745544E-096
   43.4511000000000        -4.436251096556625E-096
   43.6905000000000         6.946855820144182E-096
   43.9299000000000         3.193815034139259E-095
   44.1693000000000         7.647813788434637E-095
   44.4087000000000         1.438795735056695E-094
   44.6481000000000         2.289498031323734E-094
   44.8875000000000         3.084366552475879E-094
   45.1269000000000         3.280032282485340E-094
   45.3663000000000         1.882239256246424E-094
   45.6057000000000        -2.638187399628162E-094
   45.8451000000000        -1.224681352405648E-093
   46.0845000000000        -2.886401327944735E-093
   46.3239000000000        -5.323585836652449E-093
   46.5633000000000        -8.288784332271350E-093
   46.8027000000000        -1.090273995089996E-092
   47.0421000000000        -1.126515367385432E-092
   47.2815000000000        -6.088767774419177E-093
   47.5209000000000         9.416387008425781E-093
   47.7603000000000         4.101574850301837E-092
   47.9997000000000         9.371267283334135E-092
   48.2391000000000         1.681310336257161E-091
   48.4785000000000         2.544640585630064E-091
   48.7179000000000         3.239853619567251E-091
   48.9573000000000         3.193660715323044E-091
   49.1967000000000         1.472228744785518E-091
   49.4361000000000        -3.205134420010895E-091
   49.6755000000000        -1.226054949688718E-090
   49.9149000000000        -2.672475724441558E-090
   50.1543000000000        -4.623755355341148E-090
   50.3937000000000        -6.750292839645863E-090
   50.6331000000000        -8.229362624575870E-090
   50.8725000000000        -7.543525930134493E-090
   51.1119000000000        -2.372730380093122E-090
   51.3513000000000         1.025511513415501E-089
   51.5907000000000         3.331897546526426E-089
   51.8301000000000         6.838677702070100E-089
   52.0695000000000         1.131880704017818E-088
   52.3089000000000         1.581428638912281E-088
   52.5483000000000         1.822655420259250E-088
   52.7877000000000         1.496428543935192E-088
   53.0271000000000         8.801210485691681E-090
   53.2665000000000        -3.014049898094076E-088
   53.5059000000000        -8.346172978790470E-088
   53.7453000000000        -1.603516580924424E-087
   53.9847000000000        -2.526901160112434E-087
   54.2241000000000        -3.359412259157637E-087
   54.4635000000000        -3.616296122467984E-087
   54.7029000000000        -2.521746116582465E-087
   54.9423000000000         9.693460699562235E-088
   55.1817000000000         8.003831350552704E-087
   55.4211000000000         1.942930465003700E-086
   55.6605000000000         3.507890837231143E-086
   55.8999000000000         5.271124815166116E-086
   56.1393000000000         6.669301926495681E-086
   56.3787000000000         6.672078606311134E-086
   56.6181000000000         3.718490919252394E-086
   56.8575000000000        -4.184438187643594E-086
   57.0969000000000        -1.906678582058633E-085
   57.3363000000000        -4.215310999183141E-085
   57.5757000000000        -7.244960972969771E-085
   57.8151000000000        -1.047504974281632E-084
   58.0545000000000        -1.272887960536987E-084
   58.2939000000000        -1.196481022717592E-084
   58.5333000000000        -5.209875001095527E-085
   58.7727000000000         1.118404140022408E-084
   59.0121000000000         4.072545931629480E-084
   59.2515000000000         8.515739421262699E-084
   59.4909000000000         1.418381953537847E-083
   59.7303000000000         2.001663043954258E-083
   59.9697000000000         2.375186430143583E-083
   60.2091000000000         2.158623854818242E-083
   60.4485000000000         8.113266426962816E-084
   60.6879000000000        -2.314837216678593E-083
   60.9273000000000        -7.823613858942537E-083
   61.1667000000000        -1.598222015714628E-082
   61.4061000000000        -2.626167965732561E-082
   61.6455000000000        -3.672160210022354E-082
   61.8849000000000        -4.332577882627264E-082
   62.1243000000000        -3.939066132942945E-082
   62.3637000000000        -1.552165741410725E-082
   62.6031000000000         3.944068653879385E-082
   62.8425000000000         1.358125845551224E-081
   63.0819000000000         2.781403487728535E-081
   63.3213000000000         4.575461702828708E-081
   63.5607000000000         6.415916811226493E-081
   63.8001000000000         7.631147037540575E-081
   64.0395000000000         7.113409757793868E-081
   64.2789000000000         3.309691912538702E-081
   64.5183000000000        -5.625080522048639E-081
   64.7577000000000        -2.141073098849993E-080
   64.9971000000000        -4.485976620996467E-080
   65.2365000000000        -7.467043167105394E-080
   65.4759000000000        -1.058375277435798E-079
   65.7153000000000        -1.279097453991226E-079
   65.9547000000000        -1.236016075774732E-079
   66.1941000000000        -6.862475337608997E-080
   66.4335000000000         6.602278926603705E-080
   66.6729000000000         3.078030279922023E-079
   66.9123000000000         6.709528827502440E-079
   67.1517000000000         1.138521101316686E-078
   67.3911000000000         1.638800430734012E-078
   67.6305000000000         2.019527482654663E-078
   67.8699000000000         2.027208886682177E-078
   68.1093000000000         1.303939703820557E-078
   68.3487000000000        -5.807757814744168E-079
   68.5881000000000        -4.042156736104807E-078
   68.8275000000000        -9.316024091761147E-078
   69.0669000000000        -1.620711665494894E-077
   69.3063000000000        -2.375963693894954E-077
   69.5457000000000        -2.989660741244865E-077
   69.7851000000000        -3.112810680995803E-077
   70.0245000000000        -2.249460460209356E-077
   70.2639000000000         2.021726267061476E-078
   70.5033000000000         4.834078277930008E-077
   70.7427000000000         1.201206078070535E-076
   70.9821000000000         2.154418531899369E-076
   71.2215000000000         3.224709431695665E-076
   71.4609000000000         4.147025333856447E-076
   71.7003000000000         4.470561564845566E-076
   71.9397000000000         3.549244843171259E-076
   72.1791000000000         5.908641986804320E-077
   72.4185000000000        -5.200785429928373E-076
   72.6579000000000        -1.435837696640529E-075
   72.8973000000000        -2.674049381344543E-075
   73.1367000000000        -4.099368386492841E-075
   73.3761000000000        -5.395912276173883E-075
   73.6155000000000        -6.017580574328161E-075
   73.8549000000000        -5.172868732255421E-075
   74.0943000000000        -1.878490932479086E-075
   74.3337000000000         4.877880461151529E-075
   74.5731000000000         1.582781085765307E-074
   74.8125000000000         3.094412867089298E-074
   75.0519000000000         4.881138290947786E-074
   75.2913000000000         6.592466901848433E-074
   75.5307000000000         7.608596930015609E-074
   75.7701000000000         7.017428306611684E-074
   76.0095000000000         3.667068612702953E-074
   76.2489000000000        -3.661359641246477E-074
   76.4883000000000        -1.591809662875567E-073
   76.7277000000000        -3.326153351887398E-073
   76.9671000000000        -5.436246915914238E-073
   77.2065000000000        -7.561769234795022E-073
   77.4459000000000        -9.044868638012877E-073
   77.6853000000000        -8.897408066610559E-073
   77.9247000000000        -5.845557059532065E-073
   78.1641000000000         1.500970468300404E-073
   78.4035000000000         1.430941259389878E-072
   78.6429000000000         3.298570530841360E-072
   78.8823000000000         5.644820539889088E-072
   79.1217000000000         8.129028315608294E-072
   79.3611000000000         1.010021126076864E-071
   79.6005000000000         1.055349085328566E-071
   79.8399000000000         8.160367347852016E-072
   80.0793000000000         1.420292814717498E-072
   80.3187000000000        -1.101956781271863E-071
   80.5581000000000        -2.984458215592517E-071
   80.7975000000000        -5.435702997138134E-071
   81.0369000000000        -8.163029696182270E-071
   81.2763000000000        -1.056863920167719E-070
   81.5157000000000        -1.169577483254286E-070
   81.7551000000000        -1.024040219378169E-070
   81.9945000000000        -4.673604260198544E-071
   82.2339000000000         6.479231781460369E-071
   82.4733000000000         2.416832184165537E-070
   82.7127000000000         4.815495251608678E-070
   82.9521000000000         7.620272018470101E-070
   83.1915000000000         1.032527610154826E-069
   83.4309000000000         1.208083534130851E-069
   83.6703000000000         1.168563639357678E-069
   83.9097000000000         7.673434614497122E-070
   84.1491000000000        -1.462513302686442E-070
   84.3885000000000        -1.687248587714124E-069
   84.6279000000000        -3.877005966440513E-069
   84.8673000000000        -6.570183382004222E-069
   85.1067000000000        -9.376575368977454E-069
   85.3461000000000        -1.159600512195650E-068
   85.5855000000000        -1.219353526989382E-068
   85.8249000000000        -9.849996427063015E-069
   86.0643000000000        -3.126233791579389E-069
   86.3037000000000         9.225379758152698E-069
   86.5431000000000         2.778599505969118E-068
   86.7825000000000         5.184936581487543E-068
   87.0219000000000         7.872409045706419E-068
   87.2613000000000         1.030959330306940E-067
   87.5007000000000         1.166634427583761E-067
   87.7401000000000         1.083299868504354E-067
   87.9795000000000         6.527571742139113E-068
   88.2189000000000        -2.478645779657781E-068
   88.4583000000000        -1.699804214668558E-067
   88.6977000000000        -3.693107426839954E-067
   88.9371000000000        -6.068135172066785E-067
   89.1765000000000        -8.457675431936469E-067
   89.4159000000000        -1.024528639748987E-066
   89.6553000000000        -1.056144990650615E-066
   89.8947000000000        -8.343268315556945E-067
   90.1341000000000        -2.483555741307183E-067
   90.3735000000000         7.911359164936605E-067
   90.6129000000000         2.315153271226961E-066
   90.8523000000000         4.250412207963103E-066
   91.0917000000000         6.370575640519314E-066
   91.3311000000000         8.255340068297140E-066
   91.5705000000000         9.272822822043372E-066
   91.8099000000000         8.604523914972594E-066
   92.0493000000000         5.333448925566059E-066
   92.2887000000000        -1.387110685778390E-066
   92.5281000000000        -1.207608009493377E-065
   92.7675000000000        -2.658764363995487E-065
   93.0069000000000        -4.372976778862548E-065
   93.2463000000000        -6.090587501697789E-065
   93.4857000000000        -7.388322935851867E-065
   93.7251000000000        -7.682361644257343E-065
   93.9645000000000        -6.272975006888798E-065
   94.2039000000000        -2.445153477707701E-065
   94.4433000000000         4.365417102164997E-065
   94.6827000000000         1.434205528963699E-064
   94.9221000000000         2.700985590917571E-064
   95.1615000000000         4.095082675196053E-064
   95.4009000000000         5.357603551159048E-064
   95.6403000000000         6.104408928313800E-064
   95.8797000000000         5.843288201548097E-064
   96.1191000000000         4.027368963448911E-064
   96.3585000000000         1.533813659419940E-065
   96.5979000000000        -6.092298853860001E-064
   96.8373000000000        -1.464661962485533E-063
   97.0767000000000        -2.486235637480236E-063
   97.3161000000000        -3.531745788788618E-063
   97.5555000000000        -4.369613992937067E-063
   97.7949000000000        -4.681133448649733E-063
   98.0343000000000        -4.084478120445367E-063
   98.2737000000000        -2.187357358680473E-063
   98.5131000000000         1.327590100623114E-063
   98.7525000000000         6.585892106026509E-063
   98.9919000000000         1.338209666205611E-062
   99.2313000000000         2.103804865088749E-062
   99.4707000000000         2.828991035798704E-062
   99.7101000000000         3.324615433991147E-062
   99.9495000000000         3.346598169183016E-062
   100.188900000000         2.620746214835420E-062
   100.428300000000         8.883133866734418E-063
   100.667700000000        -2.026575337304059E-062
   100.907100000000        -6.130882750323899E-062
   101.146500000000        -1.116726007088840E-061
   101.385900000000        -1.652572759846414E-061
   101.625300000000        -2.118622487006903E-061
   101.864700000000        -2.372177164396418E-061
   102.104100000000        -2.239444049274980E-061
   102.343500000000        -1.537288992012304E-061
   102.582900000000        -1.088471718879363E-062
   102.822300000000         2.127485963863977E-061
   103.061700000000         5.119389433560253E-061
   103.301100000000         8.620096102857619E-061
   103.540500000000         1.213838433669707E-060
   103.779900000000         1.491565446182835E-060
   104.019300000000         1.594941620121292E-060
   104.258700000000         1.408245558919306E-060
   104.498100000000         8.172639011169357E-061
   104.737500000000        -2.651500700983227E-061
   104.976900000000        -1.866024868027140E-060
   105.216300000000        -3.914997843629954E-060
   105.455700000000        -6.208689324388991E-060
   105.695100000000        -8.385245838010044E-060
   105.934500000000        -9.919739463041924E-060
   106.173900000000        -1.015207361235371E-059
   106.413300000000        -8.357995375894890E-060
   106.652700000000        -3.869966958089990E-060
   106.892100000000         3.752570409335102E-060
   107.131500000000         1.451473519614172E-059
   107.370900000000         2.776443730732447E-059
   107.610300000000         4.199741452769570E-059
   107.849700000000         5.474346197282515E-059
   108.089100000000         6.259809643530791E-059
   108.328500000000         6.146508983323388E-059
   108.567900000000         4.706336571879665E-059
   108.807300000000         1.572280442625368E-059
   109.046700000000        -3.455463470969915E-059
   109.286100000000        -1.028586106217910E-058
   109.525500000000        -1.841290166653502E-058
   109.764900000000        -2.681628383965235E-058
   110.004300000000        -3.391934011147497E-058
   110.243700000000        -3.764040755150583E-058
   110.483100000000        -3.557201301800502E-058
   110.722500000000        -2.531249300724963E-058
   110.961900000000        -4.955281802101017E-059
   111.201300000000         2.628848154154294E-058
   111.440700000000         6.739689539520988E-058
   111.680100000000         1.148804433252637E-057
   111.919500000000         1.623106331029843E-057
   112.158900000000         2.002157300651502E-057
   112.398300000000         2.165359267382476E-057
   112.637700000000         1.978073842606764E-057
   112.877100000000         1.311772318546668E-057
   113.116500000000         7.233032674025303E-059
   113.355900000000        -1.765391898885317E-057
   113.595300000000        -4.120638104658718E-057
   113.834700000000        -6.773729473500633E-057
   114.074100000000        -9.345193517133293E-057
   114.313500000000        -1.129666780361589E-056
   114.552900000000        -1.196326021669056E-056
   114.792300000000        -1.062523862429982E-056
   115.031700000000        -6.622768069817534E-057
   115.271100000000         4.893109007620532E-058
   115.510500000000         1.075878285443781E-056
   115.749900000000         2.364833472749529E-056
   115.989300000000         3.787678454211076E-056
   116.228700000000         5.133259901839240E-056
   116.468100000000         6.110813341687991E-056
   116.707500000000         6.370102893171273E-056
   116.946900000000         5.541743701871830E-056
   117.186300000000         3.298826520989843E-056
   117.425700000000        -5.626069403417638E-057
   117.665100000000        -6.031324445490784E-056
   117.904500000000        -1.278925632372370E-055
   118.143900000000        -2.013797288945818E-055
   118.383300000000        -2.696487753400953E-055
   118.622700000000        -3.177241619271211E-055
   118.862100000000        -3.279165599991575E-055
   119.101500000000        -2.819481905656904E-055
   119.340900000000        -1.640903309432263E-055
   119.580300000000         3.484322996482424E-056
   119.819700000000         3.130270949168948E-055
   120.059100000000         6.533061470074806E-055
   120.298500000000         1.019887060926175E-054
   120.537900000000         1.357067018728789E-054
   120.777300000000         1.591076228196437E-054
   121.016700000000         1.635982207578181E-054
   121.256100000000         1.404249228015375E-054
   121.495500000000         8.219395784410347E-055
   121.734900000000        -1.523061283083249E-055
   121.974300000000        -1.506407076969050E-054
   122.213700000000        -3.155102198709352E-054
   122.453100000000        -4.925340515361305E-054
   122.692500000000        -6.551493315453301E-054
   122.931900000000        -7.685189848055575E-054
   123.171300000000        -7.923870727267316E-054
   123.410700000000        -6.860434207633729E-054
   123.650100000000        -4.153532059527282E-054
   123.889500000000         3.857714851855433E-055
   124.128900000000         6.699846369859897E-054
   124.368300000000         1.439651138537921E-053
   124.607700000000         2.268511820998745E-053
   124.847100000000         3.035732907847201E-053
   125.086500000000         3.583336016259845E-053
   125.325900000000         3.729102780811197E-053
   125.565300000000         3.288715731788959E-053
   125.804700000000         2.106850791062574E-053
   126.044100000000         9.527468367259988E-055
   126.283500000000        -2.725952780209663E-053
   126.522900000000        -6.190087056359595E-053
   126.762300000000        -9.955786022541801E-053
   127.001700000000        -1.349843434970732E-052
   127.241100000000        -1.612945846613739E-052
   127.480500000000        -1.705088143702260E-052
   127.719900000000        -1.544906909735496E-052
   127.959300000000        -1.062643058484334E-052
   128.198700000000        -2.162948394879219E-053
   128.438100000000         9.908627125822888E-053
   128.677500000000         2.493833628556702E-052
   128.916900000000         4.153688995503111E-052
   129.156300000000         5.753189032469865E-052
   129.395700000000         7.003844717671241E-052
   129.635100000000         7.567427635071145E-052
   129.874500000000         7.093624733954461E-052
   130.113900000000         5.273471065088512E-052
   130.353300000000         1.905453584505629E-052
   130.592700000000        -3.032023667762158E-052
   130.832100000000        -9.311423869953010E-052
   131.071500000000        -1.640261408974106E-051
   131.310900000000        -2.344952349787517E-051
   131.550300000000        -2.929147050136697E-051
   131.789700000000        -3.254158055805067E-051
   132.029100000000        -3.172983378297109E-051
   132.268500000000        -2.551047966000922E-051
   132.507900000000        -1.292308890980115E-051
   132.747300000000         6.315851293801260E-052
   132.986700000000         3.152681914476009E-051
   133.226100000000         6.083425188398307E-051
   133.465500000000         9.104229081192652E-051
   133.704900000000         1.176768159345670E-050
   133.944300000000         1.352447365727993E-050
   134.183700000000         1.377446443581293E-050
   134.423100000000         1.194349845068949E-050
   134.662500000000         7.582753139205279E-051
   134.901900000000         4.827688845437241E-052
   135.141300000000        -9.210643723751799E-051
   135.380700000000        -2.089605126061995E-050
   135.620100000000        -3.345249983964710E-050
   135.859500000000        -4.523436357208422E-050
   136.098900000000        -5.414564272490914E-050
   136.338300000000        -5.780911271210688E-050
   136.577700000000        -5.383629948123010E-050
   136.817100000000        -4.019079663388102E-050
   137.056500000000        -1.562067548898257E-050
   137.295900000000         1.988286067749195E-050
   137.535300000000         6.466164325550162E-050
   137.774700000000         1.150775463109914E-049
   138.014100000000         1.653947382787297E-049
   138.253500000000         2.079399951563717E-049
   138.492900000000         2.336093500106473E-049
   138.732300000000         2.327598311978991E-049