  -1.79550000000000         0.000000000000000E+000
  -1.55610000000000         0.000000000000000E+000
  -1.31670000000000         0.000000000000000E+000
  -1.07730000000000         0.000000000000000E+000
 -0.837900000000000         0.000000000000000E+000
 -0.598500000000000         0.000000000000000E+000
 -0.359100000000000         0.000000000000000E+000
 -0.119700000000000         0.000000000000000E+000
  0.119700000000000         0.000000000000000E+000
  0.359100000000000         0.000000000000000E+000
  0.598500000000000         0.000000000000000E+000
  0.837900000000000         0.000000000000000E+000
   1.07730000000000         0.000000000000000E+000
   1.31670000000000         0.000000000000000E+000
   1.55610000000000         0.000000000000000E+000
   1.79550000000000         0.000000000000000E+000
   2.03490000000000         0.000000000000000E+000
   2.27430000000000         0.000000000000000E+000
   2.51370000000000         0.000000000000000E+000
   2.75310000000000         0.000000000000000E+000
   2.99250000000000         0.000000000000000E+000
   3.23190000000000         0.000000000000000E+000
   3.47130000000000         0.000000000000000E+000
   3.71070000000000         0.000000000000000E+000
   3.95010000000000         0.000000000000000E+000
   4.18950000000000         0.000000000000000E+000
   4.42890000000000         0.000000000000000E+000
   4.66830000000000         0.000000000000000E+000
   4.90770000000000         0.000000000000000E+000
   5.14710000000000         0.000000000000000E+000
   5.38650000000000         0.000000000000000E+000
   5.62590000000000         0.000000000000000E+000
   5.86530000000000         0.000000000000000E+000
   6.10470000000000         0.000000000000000E+000
   6.34410000000000         0.000000000000000E+000
   6.58350000000000         0.000000000000000E+000
   6.82290000000000         0.000000000000000E+000
   7.06230000000000         0.000000000000000E+000
   7.30170000000000         0.000000000000000E+000
   7.54110000000000         0.000000000000000E+000
   7.78050000000000         0.000000000000000E+000
   8.01990000000000         0.000000000000000E+000
   8.25930000000000         0.000000000000000E+000
   8.49870000000000        -5.138090037231564E-172
   8.73810000000000         2.247550158950889E-164
   8.97750000000000         5.577666143275210E-161
   9.21690000000000         9.209605322279375E-160
   9.45630000000000        -1.509238740472699E-156
   9.69570000000000        -1.030438081070256E-154
   9.93510000000000        -3.498009263226892E-153
   10.1745000000000        -7.915712900260571E-152
   10.4139000000000        -1.349743936654074E-150
   10.6533000000000        -1.863263429721179E-149
   10.8927000000000        -2.189760701589910E-148
   11.1321000000000        -2.276634119474813E-147
   11.3715000000000        -2.155127378712068E-146
   11.6109000000000        -1.892624853438282E-145
   11.8503000000000        -1.555279831571138E-144
   12.0897000000000        -1.196782777889803E-143
   12.3291000000000        -8.593846266041676E-143
   12.5685000000000        -5.734583921380132E-142
   12.8079000000000        -3.545730710336981E-141
   13.0473000000000        -2.030143606830483E-140
   13.2867000000000        -1.078753203056589E-139
   13.5261000000000        -5.351409420940479E-139
   13.7655000000000        -2.506430389256809E-138
   14.0049000000000        -1.129105082030887E-137
   14.2443000000000        -5.021131316129010E-137
   14.4837000000000        -2.266523045758124E-136
   14.7231000000000        -1.056344420892720E-135
   14.9625000000000        -5.061788963721729E-135
   15.2019000000000        -2.439835246257815E-134
   15.4413000000000        -1.152138948916766E-133
   15.6807000000000        -5.216367220634305E-133
   15.9201000000000        -2.230780524587541E-132
   16.1595000000000        -8.915655356030608E-132
   16.3989000000000        -3.297923714394631E-131
   16.6383000000000        -1.114608769602614E-130
   16.8777000000000        -3.363348441557510E-130
   17.1171000000000        -8.598046296899566E-130
   17.3565000000000        -1.570560377083845E-129
   17.5959000000000         3.185666525638055E-131
   17.8353000000000         1.861040538976536E-128
   18.0747000000000         1.187429364243459E-127
   18.3141000000000         5.440870316006729E-127
   18.5535000000000         2.116341981001614E-126
   18.7929000000000         7.351314589772599E-126
   19.0323000000000         2.325599355539886E-125
   19.2717000000000         6.739281589058135E-125
   19.5111000000000         1.780866253538305E-124
   19.7505000000000         4.212888598919929E-124
   19.9899000000000         8.489418040317333E-124
   20.2293000000000         1.232452074262172E-123
   20.4687000000000        -2.599022633974013E-127
   20.7081000000000        -9.261368511372315E-123
   20.9475000000000        -4.797125658781878E-122
   21.1869000000000        -1.793415380619825E-121
   21.4263000000000        -5.726514417884800E-121
   21.6657000000000        -1.642671590394915E-120
   21.9051000000000        -4.315317034991434E-120
   22.1445000000000        -1.043676042104289E-119
   22.3839000000000        -2.311988024280521E-119
   22.6233000000000        -4.602767334456937E-119
   22.8627000000000        -7.833954029562992E-119
   23.1021000000000        -9.663070154078000E-119
   23.3415000000000        -3.058493520285365E-120
   23.5809000000000         5.026131775151717E-118
   23.8203000000000         2.201667682058197E-117
   24.0597000000000         6.885026072585617E-117
   24.2991000000000         1.817645699684344E-116
   24.5385000000000         4.235369717083257E-116
   24.7779000000000         8.775000338807169E-116
   25.0173000000000         1.584245669170117E-115
   25.2567000000000         2.314626957674934E-115
   25.4961000000000         1.955144306236891E-115
   25.7355000000000        -2.892887793134946E-115
   25.9749000000000        -2.065359748148949E-114
   26.2143000000000        -6.923401500491082E-114
   26.4537000000000        -1.812229219380300E-113
   26.6931000000000        -4.044367553157328E-113
   26.9325000000000        -7.814250414979909E-113
   27.1719000000000        -1.268761529394813E-112
   27.4113000000000        -1.517537992484737E-112
   27.6507000000000        -3.840752087336836E-113
   27.8901000000000         4.992384713966849E-112
   28.1295000000000         2.061333928078586E-111
   28.3689000000000         5.713436618798820E-111
   28.6083000000000         1.296786418787883E-110
   28.8477000000000         2.510454009084515E-110
   29.0871000000000         4.075268983868053E-110
   29.3265000000000         4.974576178420342E-110
   29.5659000000000         2.026573606711583E-110
   29.8053000000000        -1.237963937449788E-109
   30.0447000000000        -5.348908825591096E-109
   30.2841000000000        -1.470377050897534E-108
   30.5235000000000        -3.273431975477608E-108
   30.7629000000000        -6.198528629056596E-108
   31.0023000000000        -9.865810244622810E-108
   31.2417000000000        -1.198343341901709E-107
   31.4811000000000        -5.860398139840970E-108
   31.7205000000000         2.365486180141298E-107
   31.9599000000000         1.053813849523715E-106
   32.1993000000000         2.854198976280464E-106
   32.4387000000000         6.213389240557842E-106
   32.6781000000000         1.149772158205777E-105
   32.9175000000000         1.796163174338123E-105
   33.1569000000000         2.179452627194627E-105
   33.3963000000000         1.258228978485605E-105
   33.6357000000000        -3.203511128816576E-105
   33.8751000000000        -1.524806010701039E-104
   34.1145000000000        -4.100252323368676E-104
   34.3539000000000        -8.760701450506627E-104
   34.5933000000000        -1.587778180607250E-103
   34.8327000000000        -2.436671746897855E-103
   35.0721000000000        -2.945250716074943E-103
   35.3115000000000        -1.890548529644661E-103
   35.5509000000000         3.218474733501587E-103
   35.7903000000000         1.666144173354900E-102
   36.0297000000000         4.457264034021960E-102
   36.2691000000000         9.356242662614355E-102
   36.5085000000000         1.661140884543581E-101
   36.7479000000000         2.500881410910366E-101
   36.9873000000000         2.992069958977820E-101
   37.2267000000000         2.025539260993907E-101
   37.4661000000000        -2.539404435545439E-101
   37.7055000000000        -1.419094669382314E-100
   37.9449000000000        -3.763445060882458E-100
   38.1843000000000        -7.747751442819424E-100
   38.4237000000000        -1.345271911317606E-099
   38.6631000000000        -1.980878198454671E-099
   38.9025000000000        -2.326977303582102E-099
   39.1419000000000        -1.590217976695156E-099
   39.3813000000000         1.676551529725973E-099
   39.6207000000000         9.701446111387871E-099
   39.8601000000000         2.528935125087915E-098
   40.0995000000000         5.085762545388733E-098
   40.3389000000000         8.608199882541669E-098
   40.5783000000000         1.234178649083870E-097
   40.8177000000000         1.409813375477736E-097
   41.0571000000000         9.319794565522060E-098
   41.2965000000000        -9.822471942351983E-098
   41.5359000000000        -5.465301301541034E-097
   41.7753000000000        -1.382961903718729E-096
   42.0147000000000        -2.700993175149228E-096
   42.2541000000000        -4.436100387173637E-096
   42.4935000000000        -6.156398568817481E-096
   42.7329000000000        -6.757337980868371E-096
   42.9723000000000        -4.102878956992466E-096
   43.2117000000000         5.247392336339540E-096
   43.4511000000000         2.592929800189174E-095
   43.6905000000000         6.277899347710435E-095
   43.9299000000000         1.182367558129151E-094
   44.1693000000000         1.873432860357863E-094
   44.4087000000000         2.497749124431857E-094
   44.6481000000000         2.593006999024586E-094
   44.8875000000000         1.330827362012659E-094
   45.1269000000000        -2.532568800369047E-094
   45.3663000000000        -1.053888783879234E-093
   45.6057000000000        -2.407745167515169E-093
   45.8451000000000        -4.339459232894923E-093
   46.0845000000000        -6.587339695881741E-093
   46.3239000000000        -8.354178142883687E-093
   46.5633000000000        -8.013422514091528E-093
   46.8027000000000        -2.870957529734124E-093
   47.0421000000000         1.081474114370546E-092
   47.2815000000000         3.722391918966562E-092
   47.5209000000000         7.933196413784034E-092
   47.7603000000000         1.357557095498646E-091
   47.9997000000000         1.957993759009085E-091
   48.2391000000000         2.329822813939111E-091
   48.4785000000000         1.984788520712527E-091
   48.7179000000000         1.775038510061904E-092
   48.9573000000000        -4.038850240242454E-091
   49.1967000000000        -1.158413103965704E-090
   49.4361000000000        -2.285150851207191E-090
   49.6755000000000        -3.685354956079910E-090
   49.9149000000000        -5.000790229968996E-090
   50.1543000000000        -5.472894362163039E-090
   50.3937000000000        -3.828947733794276E-090
   50.6331000000000         1.715844130992300E-090
   50.8725000000000         1.320200679988978E-089
   51.1119000000000         3.223641882496172E-089
   51.3513000000000         5.868993808400943E-089
   51.5907000000000         8.868652783695341E-089
   51.8301000000000         1.120174826455107E-088
   52.0695000000000         1.095460549266403E-088
   52.3089000000000         5.183037517580626E-089
   52.5483000000000        -9.896220847802626E-089
   52.7877000000000        -3.809369768414731E-088
   53.0271000000000        -8.148031605525109E-088
   53.2665000000000        -1.373939064647930E-087
   53.5059000000000        -1.942081490496963E-087
   53.7453000000000        -2.264131660287328E-087
   53.9847000000000        -1.904957318477677E-087
   54.2241000000000        -2.441939533671343E-088
   54.4635000000000         3.449881683494497E-087
   54.7029000000000         9.811944265807463E-087
   54.9423000000000         1.898001673705147E-086
   55.1817000000000         2.997082983001966E-086
   55.4211000000000         3.985934835536342E-086
   55.6605000000000         4.291106593223716E-086
   55.8999000000000         3.000037494130744E-086
   56.1393000000000        -1.111144487548078E-086
   56.3787000000000        -9.381362257987264E-086
   56.6181000000000        -2.280076804357686E-085
   56.8575000000000        -4.118854909349898E-085
   57.0969000000000        -6.197787905940604E-085
   57.3363000000000        -7.870527879624028E-085
   57.5757000000000        -7.953332271679209E-085
   57.8151000000000        -4.647557433732939E-085
   58.0545000000000         4.358743124402428E-085
   58.2939000000000         2.146039661409802E-084
   58.5333000000000         4.820476129587157E-084
   58.7727000000000         8.371782499069197E-084
   59.0121000000000         1.224594414573850E-083
   59.2515000000000         1.515306124556520E-083
   59.4909000000000         1.481768234546057E-083
   59.7303000000000         7.872881215453862E-084
   59.9697000000000        -9.906523956315352E-084
   60.2091000000000        -4.277053487986168E-083
   60.4485000000000        -9.327165672380221E-083
   60.6879000000000        -1.594260647589109E-082
   60.9273000000000        -2.307469061487565E-082
   61.1667000000000        -2.835823203229123E-082
   61.4061000000000        -2.769172555337028E-082
   61.6455000000000        -1.508049473011450E-082
   61.8849000000000         1.692354756857082E-082
   62.1243000000000         7.574840510755566E-082
   62.3637000000000         1.658225929659993E-081
   62.6031000000000         2.837339410146368E-081
   62.8425000000000         4.115447873471857E-081
   63.0819000000000         5.090249369669130E-081
   63.3213000000000         5.067536015626398E-081
   63.5607000000000         3.036577775998001E-081
   63.8001000000000        -2.256094341726083E-081
   64.0395000000000        -1.206486993447581E-080
   64.2789000000000        -2.716148754106319E-080
   64.5183000000000        -4.705630731514567E-080
   64.7577000000000        -6.893177991237555E-080
   64.9971000000000        -8.641275044157799E-080
   65.2365000000000        -8.848208998777363E-080
   65.4759000000000        -5.909488935899709E-080
   65.7153000000000         2.168417597176821E-080
   65.9547000000000         1.739747543691583E-079
   66.1941000000000         4.107212615812639E-079
   66.4335000000000         7.259251102515561E-079
   66.6729000000000         1.078639033740261E-078
   66.9123000000000         1.374629921341632E-078
   67.1517000000000         1.450280168343455E-078
   67.3911000000000         1.066769956681769E-078
   67.6305000000000        -7.366283234081265E-080
   67.8699000000000        -2.274668837535588E-078
   68.1093000000000        -5.740975068397028E-078
   68.3487000000000        -1.041181442724745E-077
   68.5881000000000        -1.573573575453232E-077
   68.8275000000000        -2.041393396154848E-077
   69.0669000000000        -2.217530055326899E-077
   69.3063000000000        -1.769246160223826E-077
   69.5457000000000        -2.796676801644129E-078
   69.7851000000000         2.681439383014097E-077
   70.0245000000000         7.418227872014616E-077
   70.2639000000000         1.388815678275035E-076
   70.5033000000000         2.140504018277442E-076
   70.7427000000000         2.830152139987142E-076
   70.9821000000000         3.163235167772882E-076
   71.2215000000000         2.705709524190730E-076
   71.4609000000000         9.100036661940391E-077
   71.7003000000000        -2.797258137969324E-076
   71.9397000000000        -8.842124822655056E-076
   72.1791000000000        -1.722981103569750E-075
   72.4185000000000        -2.717707223063745E-075
   72.6579000000000        -3.669389206225248E-075
   72.8973000000000        -4.221193356975761E-075
   73.1367000000000        -3.842408430498559E-075
   73.3761000000000        -1.856754123075340E-075
   73.6155000000000         2.456942385323578E-075
   73.8549000000000         9.664234635204383E-075
   74.0943000000000         1.985731186649670E-074
   74.3337000000000         3.222672509817349E-074
   74.5731000000000         4.457100710492320E-074
   74.8125000000000         5.285268082219410E-074
   75.0519000000000         5.098294122642455E-074
   75.2913000000000         3.109200411533807E-074
   75.5307000000000        -1.540560028867483E-074
   75.7701000000000        -9.564639371475027E-074
   76.0095000000000        -2.118556646357227E-073
   76.2489000000000        -3.566431052759292E-073
   76.4883000000000        -5.075500247704142E-073
   76.7277000000000        -6.219707944355131E-073
   76.9671000000000        -6.343430149406492E-073
   77.2065000000000        -4.582853381199124E-073
   77.4459000000000         3.076026788489973E-075
   77.6853000000000         8.353583064064097E-073
   77.9247000000000         2.077530460388725E-072
   78.1641000000000         3.673139609485460E-072
   78.4035000000000         5.412726255741521E-072
   78.6429000000000         6.878213727718792E-072
   78.8823000000000         7.407730257542569E-072
   79.1217000000000         6.107227917828161E-072
   79.3611000000000         1.941187316301333E-072
   79.6005000000000        -6.064629615533179E-072
   79.8399000000000        -1.848412063412620E-071
   80.0793000000000        -3.501368265082151E-071
   80.3187000000000        -5.389489387021906E-071
   80.5581000000000        -7.133298145710790E-071
   80.7975000000000        -8.107958521495618E-071
   81.0369000000000        -7.442479887425475E-071
   81.2763000000000        -4.090429050020489E-071
   81.5157000000000         2.995666026326219E-071
   81.7551000000000         1.456062222101368E-070
   81.9945000000000         3.060679432212868E-070
   82.2339000000000         4.984564494462261E-070
   82.4733000000000         6.911929258927570E-070
   82.7127000000000         8.293589640690973E-070
   82.9521000000000         8.333357328235014E-070
   83.1915000000000         6.034777356758036E-070
   83.4309000000000         3.382126186432277E-071
   83.6703000000000        -9.625907479949857E-070
   83.9097000000000        -2.415624220653698E-069
   84.1491000000000        -4.248833883083679E-069
   84.3885000000000        -6.224978555271389E-069
   84.6279000000000        -7.897712719035038E-069
   84.8673000000000        -8.587157478394921E-069
   85.1067000000000        -7.402755148279877E-069
   85.3461000000000        -3.339999095816233E-069
   85.5855000000000         4.524284490218774E-069
   85.8249000000000         1.672338830977170E-068
   86.0643000000000         3.298494134752665E-068
   86.3037000000000         5.174710444171601E-068
   86.5431000000000         6.969095952634045E-068
   86.7825000000000         8.142592978230442E-068
   87.0219000000000         7.951626639968185E-068
   87.2613000000000         5.507176886035882E-068
   87.5007000000000        -8.750433422430525E-070
   87.7401000000000        -9.504368721612442E-068
   87.9795000000000        -2.286142186468700E-067
   88.2189000000000        -3.931940195388183E-067
   88.4583000000000        -5.666104121327067E-067
   88.6977000000000        -7.095152680651482E-067
   88.9371000000000        -7.642216797104102E-067
   89.1765000000000        -6.575388030994063E-067
   89.4159000000000        -3.094827692765385E-067
   89.6553000000000         3.505601256811029E-067
   89.8947000000000         1.359543445925054E-066
   90.1341000000000         2.689321537075285E-066
   90.3735000000000         4.211494783561041E-066
   90.6129000000000         5.665113095920148E-066
   90.8523000000000         6.637268761608355E-066
   91.0917000000000         6.569705452064301E-066
   91.3311000000000         4.806294835198056E-066
   91.5705000000000         6.952958578074710E-067
   91.8099000000000        -6.244704231279456E-066
   92.0493000000000        -1.609663347510640E-065
   92.2887000000000        -2.827245695872376E-065
   92.5281000000000        -4.123639654987047E-065
   92.7675000000000        -5.228969373690704E-065
   93.0069000000000        -5.750815242394470E-065
   93.2463000000000        -5.194212779507046E-065
   93.4857000000000        -3.019133790711370E-065
   93.7251000000000         1.255629875450095E-065
   93.9645000000000         7.899157837698582E-065
   94.2039000000000         1.677283643417959E-064
   94.4433000000000         2.711428017106622E-064
   94.6827000000000         3.734052077286785E-064
   94.9221000000000         4.492944971598170E-064
   95.1615000000000         4.645493465920420E-064
   95.4009000000000         3.785911425860102E-064
   95.6403000000000         1.503826500001072E-064
   95.8797000000000        -2.521087629532035E-064
   96.1191000000000        -8.389541266016458E-064
   96.3585000000000        -1.582814999226101E-063
   96.5979000000000        -2.403182318740674E-063
   96.8373000000000        -3.153822953241017E-063
   97.0767000000000        -3.618248083505649E-063
   97.3161000000000        -3.518928310159100E-063
   97.5555000000000        -2.546077031689342E-063
   97.7949000000000        -4.106196892848967E-064
   98.0343000000000         3.076996742403651E-063
   98.2737000000000         7.905530668338332E-063
   98.5131000000000         1.374968763201781E-062
   98.7525000000000         1.986405433789011E-062
   98.9919000000000         2.501259303403625E-062
   99.2313000000000         2.746991393225676E-062
   99.4707000000000         2.513451093745448E-062
   99.7101000000000         1.579117453843948E-062
   99.9495000000000        -2.453273403097241E-063
   100.188900000000        -3.056254249749335E-062
   100.428300000000        -6.783295512832817E-062
   100.667700000000        -1.111183443055710E-061
   100.907100000000        -1.541707102856286E-061
   101.146500000000        -1.873075258278665E-061
   101.385900000000        -1.976589552745057E-061
   101.625300000000        -1.702572047649511E-061
   101.864700000000        -9.018578808903698E-062
   102.104100000000         5.411007750034227E-062
   102.343500000000         2.664521809251433E-061
   102.582900000000         5.378844388618517E-061
   102.822300000000         8.416966972304085E-061
   103.061700000000         1.129640352891435E-060
   103.301100000000         1.330796044251024E-060
   103.540500000000         1.354750474770804E-060
   103.779900000000         1.100679719989612E-060
   104.019300000000         4.734993087355392E-061
   104.258700000000        -5.926745607810389E-061
   104.498100000000        -2.104953445655359E-060
   104.737500000000        -3.979131930344608E-060
   104.976900000000        -6.009571689909332E-060
   105.216300000000        -7.849192728903214E-060
   105.455700000000        -9.009058156958831E-060
   105.695100000000        -8.887754712506590E-060
   105.934500000000        -6.839688574977298E-060
   106.173900000000        -2.287854390002571E-060
   106.413300000000         5.119902325004117E-060
   106.652700000000         1.532174071067138E-059
   106.892100000000         2.764265934213635E-059
   107.131500000000         4.062177884676287E-059
   107.370900000000         5.191533550032809E-059
   107.610300000000         5.833355960219305E-059
   107.849700000000         5.607086684163680E-059
   108.089100000000         4.117835863508874E-059
   108.328500000000         1.030193156365393E-059
   108.567900000000        -3.833382639200297E-059
   108.807300000000        -1.037759432583124E-058
   109.046700000000        -1.811807075132537E-058
   109.286100000000        -2.608692060092654E-058
   109.525500000000        -3.278992675268526E-058
   109.764900000000        -3.624924150105865E-058
   110.004300000000        -3.416451510240219E-058
   110.243700000000        -2.421735443531740E-058
   110.483100000000        -4.527104599353569E-059
   110.722500000000         2.576062694288435E-058
   110.961900000000         6.580675659429388E-058
   111.201300000000         1.124283264245875E-057
   111.440700000000         1.596023753019298E-057
   111.680100000000         1.982958391942152E-057
   111.919500000000         2.168095082366596E-057
   112.158900000000         2.018106759274291E-057
   112.398300000000         1.401749628580963E-057
   112.637700000000         2.165474295906999E-058
   112.877100000000        -1.577625763854213E-057
   113.116500000000        -3.921416388095155E-057
   113.355900000000        -6.620909331645228E-057
   113.595300000000        -9.322363066691359E-057
   113.834700000000        -1.150619022342268E-056
   114.074100000000        -1.251019411666676E-056
   114.313500000000        -1.159097932408058E-056
   114.552900000000        -8.029145116270824E-057
   114.792300000000        -1.277988826632623E-057
   115.031700000000         8.853025361687457E-057
   115.271100000000         2.199936518095768E-056
   115.510500000000         3.705804649893192E-056
   115.749900000000         5.206159775376724E-056
   115.989300000000         6.415894954746154E-056
   116.228700000000         6.975458685849618E-056
   116.468100000000         6.485011908718268E-056
   116.707500000000         4.561375037708814E-056
   116.946900000000         9.171489737345524E-057
   117.186300000000        -4.543034585524360E-056
   117.425700000000        -1.161958671891870E-055
   117.665100000000        -1.972461001980272E-055
   117.904500000000        -2.781964602567212E-055
   118.143900000000        -3.440958393015900E-055
   118.383300000000        -3.761820168072307E-055
   118.622700000000        -3.536668100105346E-055
   118.862100000000        -2.566660939753893E-055
   119.101500000000        -7.022858613672846E-056
   119.340900000000         2.108037591686019E-055
   119.580300000000         5.766363226840678E-055
   119.819700000000         9.978757294084435E-055
   120.059100000000         1.422458557417274E-054
   120.298500000000         1.775376584558497E-054
   120.537900000000         1.962425862526202E-054
   120.777300000000         1.878992824688974E-054
   121.016700000000         1.424405177639085E-054
   121.256100000000         5.215946277423971E-055
   121.495500000000        -8.592378702109169E-055
   121.734900000000        -2.675518670831075E-054
   121.974300000000        -4.789634087655845E-054
   122.213700000000        -6.953726918351252E-054
   122.453100000000        -8.807713297559622E-054
   122.692500000000        -9.896279929141719E-054
   122.931900000000        -9.709608850570429E-054
   123.171300000000        -7.750319946327842E-054
   123.410700000000        -3.625522157025212E-054
   123.650100000000         2.841978285355232E-054
   123.889500000000         1.149499416406353E-053
   124.128900000000         2.173344588531298E-053
   124.368300000000         3.243892586785379E-053
   124.607700000000         4.195859536547182E-053
   124.847100000000         4.817479611810823E-053
   125.086500000000         4.868237849282882E-053
   125.325900000000         4.108586609095513E-053
   125.565300000000         2.341276458858362E-053
   125.804700000000        -5.381995676640861E-054
   126.044100000000        -4.487078805670275E-053
   126.283500000000        -9.264397119157805E-053
   126.522900000000        -1.439369124051222E-052
   126.762300000000        -1.915093744360408E-052
   127.001700000000        -2.258952711749225E-052
   127.241100000000        -2.361236303026687E-052
   127.480500000000        -2.109709437943821E-052
   127.719900000000        -1.407389328649702E-052
   127.959300000000        -1.946162205883598E-053
   128.198700000000         1.526623964767235E-052
   128.438100000000         3.669311862760364E-052
   128.677500000000         6.043173475304642E-052
   128.916900000000         8.346590962211379E-052
   129.156300000000         1.017379698279122E-051
   129.395700000000         1.104191037654478E-051
   129.635100000000         1.044080845950746E-051
   129.874500000000         7.906201560327525E-052
   130.113900000000         3.112619261036817E-052
   130.353300000000        -4.021441914094140E-052
   130.592700000000        -1.322878872754213E-051
   130.832100000000        -2.380634700798889E-051
   131.071500000000        -3.456608024478580E-051
   131.310900000000        -4.384592274945190E-051
   131.550300000000        -4.960095540127000E-051
   131.789700000000        -4.958951285311409E-051
   132.029100000000        -4.165902753529131E-051
   132.268500000000        -2.412222035704177E-051
   132.507900000000         3.803528067034935E-052
   132.747300000000         4.154059092145684E-051
   132.986700000000         8.674565612319706E-051
   133.226100000000         1.350365838632632E-050
   133.465500000000         1.799421257930430E-050
   133.704900000000         2.131622072299234E-050
   133.944300000000         2.252088340518219E-050
   134.183700000000         2.064628746912249E-050
   134.423100000000         1.486294416092539E-050
   134.662500000000         4.650638323841035E-051
   134.901900000000        -1.000983422592378E-050
   135.141300000000        -2.845453423015412E-050
   135.380700000000        -4.919543089122990E-050
   135.620100000000        -6.985688816050774E-050
   135.859500000000        -8.722654092979617E-050
   136.098900000000        -9.745278836141155E-050
   136.338300000000        -9.640983287849331E-050
   136.577700000000        -8.023280477192274E-050
   136.817100000000        -4.600041831028942E-050
   137.056500000000         7.487661126969617E-051
   137.295900000000         7.892416294260021E-050
   137.535300000000         1.638144904816400E-049
   137.774700000000         2.540438752604652E-049
   138.014100000000         3.378420222560954E-049
   138.253500000000         4.002874717393915E-049
   138.492900000000         4.244612721307024E-049
   138.732300000000         3.932994059777424E-049