  -1.79550000000000         0.000000000000000E+000
  -1.55610000000000         0.000000000000000E+000
  -1.31670000000000         0.000000000000000E+000
  -1.07730000000000         0.000000000000000E+000
 -0.837900000000000         0.000000000000000E+000
 -0.598500000000000         0.000000000000000E+000
 -0.359100000000000         0.000000000000000E+000
 -0.119700000000000         0.000000000000000E+000
  0.119700000000000         0.000000000000000E+000
  0.359100000000000         0.000000000000000E+000
  0.598500000000000         0.000000000000000E+000
  0.837900000000000         0.000000000000000E+000
   1.07730000000000         0.000000000000000E+000
   1.31670000000000         0.000000000000000E+000
   1.55610000000000         0.000000000000000E+000
   1.79550000000000         0.000000000000000E+000
   2.03490000000000         0.000000000000000E+000
   2.27430000000000         0.000000000000000E+000
   2.51370000000000         0.000000000000000E+000
   2.75310000000000         0.000000000000000E+000
   2.99250000000000         0.000000000000000E+000
   3.23190000000000         0.000000000000000E+000
   3.47130000000000         0.000000000000000E+000
   3.71070000000000         0.000000000000000E+000
   3.95010000000000         0.000000000000000E+000
   4.18950000000000         0.000000000000000E+000
   4.42890000000000         0.000000000000000E+000
   4.66830000000000         0.000000000000000E+000
   4.90770000000000         0.000000000000000E+000
   5.14710000000000         0.000000000000000E+000
   5.38650000000000         0.000000000000000E+000
   5.62590000000000         0.000000000000000E+000
   5.86530000000000         0.000000000000000E+000
   6.10470000000000         0.000000000000000E+000
   6.34410000000000         0.000000000000000E+000
   6.58350000000000         0.000000000000000E+000
   6.82290000000000         0.000000000000000E+000
   7.06230000000000         0.000000000000000E+000
   7.30170000000000         0.000000000000000E+000
   7.54110000000000         0.000000000000000E+000
   7.78050000000000         0.000000000000000E+000
   8.01990000000000         0.000000000000000E+000
   8.25930000000000         0.000000000000000E+000
   8.49870000000000         1.485403749019934E-166
   8.73810000000000        -1.274288042566523E-159
   8.97750000000000         1.307557152568676E-156
   9.21690000000000         5.591796237281316E-154
   9.45630000000000         5.716046117318601E-152
   9.69570000000000        -9.884714824315780E-151
   9.93510000000000        -1.421976647062717E-148
   10.1745000000000        -4.855457986132202E-147
   10.4139000000000        -9.775722565065640E-146
   10.6533000000000        -1.377602055136166E-144
   10.8927000000000        -1.452953821963247E-143
   11.1321000000000        -1.173999579342316E-142
   11.3715000000000        -7.158953892949353E-142
   11.6109000000000        -2.984784937760192E-141
   11.8503000000000        -4.031500062651465E-141
   12.0897000000000         6.646545463803364E-140
   12.3291000000000         9.139323441775907E-139
   12.5685000000000         9.544678790558952E-138
   12.8079000000000         1.034908577382952E-136
   13.0473000000000         1.129025779300512E-135
   13.2867000000000         1.135277100707013E-134
   13.5261000000000         1.025379643529471E-133
   13.7655000000000         8.418543527836105E-133
   14.0049000000000         6.328480386823990E-132
   14.2443000000000         4.356287600057941E-131
   14.4837000000000         2.753978187603203E-130
   14.7231000000000         1.608305571245785E-129
   14.9625000000000         8.731944181064759E-129
   15.2019000000000         4.433808648774529E-128
   15.4413000000000         2.116408112383545E-127
   15.6807000000000         9.537268179080810E-127
   15.9201000000000         4.071536974252687E-126
   16.1595000000000         1.651315587751653E-125
   16.3989000000000         6.377317355890753E-125
   16.6383000000000         2.349588634913785E-124
   16.8777000000000         8.270573244066161E-124
   17.1171000000000         2.784575628460590E-123
   17.3565000000000         8.974238350720526E-123
   17.5959000000000         2.769644192959750E-122
   17.8353000000000         8.185213095685376E-122
   18.0747000000000         2.315247480867116E-121
   18.3141000000000         6.261110924122098E-121
   18.5535000000000         1.615787279477605E-120
   18.7929000000000         3.967572919209212E-120
   19.0323000000000         9.227926955895026E-120
   19.2717000000000         2.018351473242246E-119
   19.5111000000000         4.101523659223989E-119
   19.7505000000000         7.571135139391211E-119
   19.9899000000000         1.207863378315988E-118
   20.2293000000000         1.428621669209409E-118
   20.4687000000000         2.073571802844673E-119
   20.7081000000000        -5.888213813482975E-118
   20.9475000000000        -2.539014970349328E-117
   21.1869000000000        -7.779047895877697E-117
   21.4263000000000        -2.050914510169331E-116
   21.6657000000000        -4.942009326997597E-116
   21.9051000000000        -1.119679444352025E-115
   22.1445000000000        -2.421737345521254E-115
   22.3839000000000        -5.030734539583134E-115
   22.6233000000000        -9.992515027252742E-115
   22.8627000000000        -1.859191175871839E-114
   23.1021000000000        -3.070215875532269E-114
   23.3415000000000        -3.798691268263312E-114
   23.5809000000000        -1.913743964854602E-115
   23.8203000000000         2.080201668403861E-113
   24.0597000000000         9.703142071905033E-113
   24.2991000000000         3.270251731282791E-112
   24.5385000000000         9.451962180805203E-112
   24.7779000000000         2.464166059792023E-111
   25.0173000000000         5.911323570589212E-111
   25.2567000000000         1.314903761085393E-110
   25.4961000000000         2.713185039118268E-110
   25.7355000000000         5.160563740769036E-110
   25.9749000000000         8.902280165088407E-110
   26.2143000000000         1.341668311875907E-109
   26.4537000000000         1.592150143394863E-109
   26.6931000000000         8.461335093285415E-110
   26.9325000000000        -2.678506643630551E-109
   27.1719000000000        -1.230872125975016E-108
   27.4113000000000        -3.310262998546066E-108
   27.6507000000000        -7.035322610266535E-108
   27.8901000000000        -1.234859214651168E-107
   28.1295000000000        -1.699147886137444E-107
   28.3689000000000        -1.305998740944878E-107
   28.6083000000000         1.915051333545312E-107
   28.8477000000000         1.200307688028310E-106
   29.0871000000000         3.590396345557362E-106
   29.3265000000000         8.310598696986905E-106
   29.5659000000000         1.611971873623637E-105
   29.8053000000000         2.614363619007381E-105
   30.0447000000000         3.240273655759227E-105
   30.2841000000000         1.682399178807868E-105
   30.5235000000000        -6.278041421033694E-105
   30.7629000000000        -2.898341709444817E-104
   31.0023000000000        -8.062346698590920E-104
   31.2417000000000        -1.812516521404619E-103
   31.4811000000000        -3.509432489669515E-103
   31.7205000000000        -5.898136454999083E-103
   31.9599000000000        -8.297608812326231E-103
   32.1993000000000        -8.376827333283002E-103
   32.4387000000000        -4.840163873488249E-104
   32.6781000000000         2.680164381487099E-102
   32.9175000000000         9.345563849326952E-102
   33.1569000000000         2.294589529151212E-101
   33.3963000000000         4.708313694357657E-101
   33.6357000000000         8.421354156878622E-101
   33.8751000000000         1.311663491764050E-100
   34.1145000000000         1.699400120654726E-100
   34.3539000000000         1.515147693823215E-100
   34.5933000000000        -2.864538783678957E-101
   34.8327000000000        -5.610034283231650E-100
   35.0721000000000        -1.746881363891696E-099
   35.3115000000000        -3.989060418057596E-099
   35.5509000000000        -7.690322941861016E-099
   35.7903000000000        -1.296175229779429E-098
   36.0297000000000        -1.899809334809739E-098
   36.2691000000000        -2.295222219955669E-098
   36.5085000000000        -1.818494611869496E-098
   36.7479000000000         8.031429392956221E-099
   36.9873000000000         7.678458386152133E-098
   37.2267000000000         2.182520342337327E-097
   37.4661000000000         4.678378486202481E-097
   37.7055000000000         8.525552309956030E-097
   37.9449000000000         1.360200318994848E-096
   38.1843000000000         1.882484518023135E-096
   38.4237000000000         2.125039548626228E-096
   38.6631000000000         1.485721062200554E-096
   38.9025000000000        -1.077078336856667E-096
   39.1419000000000        -7.126907835414562E-096
   39.3813000000000        -1.866528257393879E-095
   39.6207000000000        -3.768878907778030E-095
   39.8601000000000        -6.511956502344218E-095
   40.0995000000000        -9.880536547398724E-095
   40.3389000000000        -1.303560244954642E-094
   40.5783000000000        -1.408541666218834E-094
   40.8177000000000        -9.604968183862088E-095
   41.0571000000000         5.742155103278112E-095
   41.2965000000000         3.920272784531040E-094
   41.5359000000000         9.915327804625641E-094
   41.7753000000000         1.930732633629130E-093
   42.0147000000000         3.238799080230982E-093
   42.2541000000000         4.845238834238879E-093
   42.4935000000000         6.512449908460344E-093
   42.7329000000000         7.763733254187205E-093
   42.9723000000000         7.814358960313462E-093
   43.2117000000000         5.495100993153391E-093
   43.4511000000000        -8.917146476080012E-094
   43.6905000000000        -1.393472390875983E-092
   43.9299000000000        -3.796819003407843E-092
   44.1693000000000        -8.078364952561657E-092
   44.4087000000000        -1.564627797953553E-091
   44.6481000000000        -2.889956223074745E-091
   44.8875000000000        -5.147717452652788E-091
   45.1269000000000        -8.788999491558683E-091
   45.3663000000000        -1.415200252009658E-090
   45.6057000000000        -2.092926046534109E-090
   45.8451000000000        -2.706864166041366E-090
   46.0845000000000        -2.686681468032579E-090
   46.3239000000000        -8.163428840736106E-091
   46.5633000000000         5.098895242881569E-090
   46.8027000000000         1.848131252314869E-089
   47.0421000000000         4.383779435202633E-089
   47.2815000000000         8.567067126747969E-089
   47.5209000000000         1.456021319476247E-088
   47.7603000000000         2.166642356788625E-088
   47.9997000000000         2.738198972075450E-088
   48.2391000000000         2.606232650533376E-088
   48.4785000000000         7.407233374943033E-089
   48.7179000000000        -4.462123519658776E-088
   48.9573000000000        -1.511906259009315E-087
   49.1967000000000        -3.341930610662709E-087
   49.4361000000000        -6.050723256951051E-087
   49.6755000000000        -9.434881696093775E-087
   49.9149000000000        -1.263270665180292E-086
   50.1543000000000        -1.366491601155089E-086
   50.3937000000000        -8.939440682362836E-087
   50.6331000000000         7.066781521235676E-087
   50.8725000000000         4.154653251537493E-086
   51.1119000000000         1.018912796770353E-085
   51.3513000000000         1.921821618873365E-085
   51.5907000000000         3.067853409031425E-085
   51.8301000000000         4.205596451831131E-085
   52.0695000000000         4.762538209881259E-085
   52.3089000000000         3.717815993637288E-085
   52.5483000000000        -4.654986732477660E-086
   52.7877000000000        -9.742246642178446E-085
   53.0271000000000        -2.606553489768267E-084
   53.2665000000000        -5.045623142861141E-084
   53.5059000000000        -8.138848902225090E-084
   53.7453000000000        -1.124353292687518E-083
   53.9847000000000        -1.293985982355782E-083
   54.2241000000000        -1.076484355338188E-083
   54.4635000000000        -1.113920107074941E-084
   54.7029000000000         2.045159631451945E-083
   54.9423000000000         5.816636793389624E-083
   55.1817000000000         1.139304574793142E-082
   55.4211000000000         1.838091189025535E-082
   55.6605000000000         2.531876441918494E-082
   55.8999000000000         2.912285160057171E-082
   56.1393000000000         2.462941662451329E-082
   56.3787000000000         4.538583272308430E-083
   56.6181000000000        -3.978012337906978E-082
   56.8575000000000        -1.160393479007449E-081
   57.0969000000000        -2.267616651798644E-081
   57.3363000000000        -3.626518967031980E-081
   57.5757000000000        -4.939332559271922E-081
   57.8151000000000        -5.611583631728555E-081
   58.0545000000000        -4.687917406836837E-081
   58.2939000000000        -8.709688836133255E-082
   58.5333000000000         7.299271330644322E-081
   58.7727000000000         2.101569715274920E-080
   59.0121000000000         4.044606360504968E-080
   59.2515000000000         6.362474213233428E-080
   59.4909000000000         8.509262552989559E-080
   59.7303000000000         9.458268378413600E-080
   59.9697000000000         7.632304598337985E-080
   60.2091000000000         9.841774167276862E-081
   60.4485000000000        -1.265806768192045E-079
   60.6879000000000        -3.486065580886640E-079
   60.9273000000000        -6.538397990651072E-079
   61.1667000000000        -1.005321384053634E-078
   61.4061000000000        -1.312654204675264E-078
   61.6455000000000        -1.415824129710702E-078
   61.8849000000000        -1.080494892885525E-078
   62.1243000000000        -1.732582838807125E-080
   62.3637000000000         2.059703714187557E-078
   62.6031000000000         5.322038799136409E-078
   62.8425000000000         9.655768173456264E-078
   63.0819000000000         1.444121812890303E-077
   63.3213000000000         1.832048805200792E-077
   63.5607000000000         1.902891864667175E-077
   63.8001000000000         1.341083019232949E-077
   64.0395000000000        -2.221185404450227E-078
   64.2789000000000        -3.120984560617642E-077
   64.5183000000000        -7.502335699693443E-077
   64.7577000000000        -1.310560751685527E-076
   64.9971000000000        -1.899743358420235E-076
   65.2365000000000        -2.331747351178551E-076
   65.4759000000000        -2.313726383059240E-076
   65.7153000000000        -1.458072477443073E-076
   65.9547000000000         6.611803485757659E-077
   66.1941000000000         4.389802105722459E-076
   66.4335000000000         9.801962713543668E-076
   66.6729000000000         1.644217716771833E-075
   66.9123000000000         2.303567034353481E-075
   67.1517000000000         2.724278397952630E-075
   67.3911000000000         2.558061052546705E-075
   67.6305000000000         1.367862460577378E-075
   67.8699000000000        -1.294388234772143E-075
   68.1093000000000        -5.741807507094040E-075
   68.3487000000000        -1.193285686977525E-074
   68.5881000000000        -1.919345650917490E-074
   68.8275000000000        -2.592916877543666E-074
   69.0669000000000        -2.941818944581230E-074
   69.3063000000000        -2.582134955322820E-074
   69.5457000000000        -1.058057885303282E-074
   69.7851000000000         2.061783415913264E-074
   70.0245000000000         7.019001042374058E-074
   70.2639000000000         1.363201141637550E-073
   70.5033000000000         2.101903023172544E-073
   70.7427000000000         2.733602022319544E-073
   70.9821000000000         2.962903923220094E-073
   71.2215000000000         2.394002298389363E-073
   71.4609000000000         5.829063528702129E-074
   71.7003000000000        -2.853524466055912E-073
   71.9397000000000        -8.063626651626389E-073
   72.1791000000000        -1.472907209644038E-072
   72.4185000000000        -2.180650467700090E-072
   72.6579000000000        -2.730678603543160E-072
   72.8973000000000        -2.821261348770244E-072
   73.1367000000000        -2.066693488805677E-072
   73.3761000000000        -5.772733658084249E-074
   73.6155000000000         3.524348248260387E-072
   73.8549000000000         8.736092553877368E-072
   74.0943000000000         1.515437336630198E-071
   74.3337000000000         2.164783813189740E-071
   74.5731000000000         2.620183720353325E-071
   74.8125000000000         2.589214272067505E-071
   75.0519000000000         1.712640003506061E-071
   75.2913000000000        -3.724186004343106E-072
   75.5307000000000        -3.921253672360127E-071
   75.7701000000000        -8.921595665593280E-071
   76.0095000000000        -1.489884392987080E-070
   76.2489000000000        -2.072133476490863E-070
   76.4883000000000        -2.446568353562321E-070
   76.7277000000000        -2.342713348047611E-070
   76.9671000000000        -1.437663897614823E-070
   77.2065000000000         5.835704525461546E-071
   77.4459000000000         3.926496552608311E-070
   77.6853000000000         8.545478548180283E-070
   77.9247000000000         1.397594729942547E-069
   78.1641000000000         1.917207630582927E-069
   78.4035000000000         2.240209352352511E-069
   78.6429000000000         2.127285965781954E-069
   78.8823000000000         1.296722315833011E-069
   79.1217000000000        -5.226692511126218E-070
   79.3611000000000        -3.504549160198262E-069
   79.6005000000000        -7.605628159730204E-069
   79.8399000000000        -1.242596156966618E-068
   80.0793000000000        -1.707521649697206E-068
   80.3187000000000        -2.008731392576892E-068
   80.5581000000000        -1.944079445924531E-068
   80.7975000000000        -1.275099039814209E-068
   81.0369000000000         2.303949432606548E-069
   81.2763000000000         2.728521248596164E-068
   81.5157000000000         6.203622612242767E-068
   81.7551000000000         1.035591590910549E-067
   81.9945000000000         1.449250630577493E-067
   82.2339000000000         1.745398377398338E-067
   82.4733000000000         1.762016119729140E-067
   82.7127000000000         1.304534693937408E-067
   82.9521000000000         1.771156481246223E-068
   83.1915000000000        -1.765194844979156E-067
   83.4309000000000        -4.543906371941434E-067
   83.6703000000000        -7.970319655475043E-067
   83.9097000000000        -1.155846638389314E-066
   84.1491000000000        -1.446054892462220E-066
   84.3885000000000        -1.545614327430983E-066
   84.6279000000000        -1.303201744884329E-066
   84.8673000000000        -5.588914819728979E-067
   85.1067000000000         8.198531030325061E-067
   85.3461000000000         2.886571822810215E-066
   85.5855000000000         5.552082478286794E-066
   85.8249000000000         8.517359780893181E-066
   86.0643000000000         1.121791635053413E-065
   86.3037000000000         1.280073346270184E-065
   86.5431000000000         1.215936215623043E-065
   86.7825000000000         8.053746757767253E-066
   87.0219000000000        -6.637543704905373E-067
   87.2613000000000        -1.470802488745053E-065
   87.5007000000000        -3.392156541605541E-065
   87.7401000000000        -5.678366843948929E-065
   87.9795000000000        -7.995708367090926E-065
   88.2189000000000        -9.800362334807223E-065
   88.4583000000000        -1.034360743648053E-064
   88.6977000000000        -8.729044859819062E-065
   88.9371000000000        -4.038521894966789E-065
   89.1765000000000         4.463226351540892E-065
   89.4159000000000         1.704793622893152E-064
   89.6553000000000         3.318915158034236E-064
   89.8947000000000         5.122043975803488E-064
   90.1341000000000         6.806137967813036E-064
   90.3735000000000         7.911254449468492E-064
   90.6129000000000         7.843848917512484E-064
   90.8523000000000         5.935835298489930E-064
   91.0917000000000         1.553770058672521E-064
   91.3311000000000        -5.738580132833021E-064
   91.5705000000000        -1.597114920147489E-063
   91.8099000000000        -2.853286376419181E-063
   92.0493000000000        -4.194916943462919E-063
   92.2887000000000        -5.372733643663952E-063
   92.5281000000000        -6.034007692558291E-063
   92.7675000000000        -5.742565154990848E-063
   93.0069000000000        -4.027750521082103E-063
   93.2463000000000        -4.673055771009316E-064
   93.4857000000000         5.195485928414483E-063
   93.7251000000000         1.290710905093906E-062
   93.9645000000000         2.214760926758304E-062
   94.2039000000000         3.178962452722534E-062
   94.4433000000000         4.001008675983661E-062
   94.6827000000000         4.430040649476951E-062
   94.9221000000000         4.162420501400930E-062
   95.1615000000000         2.876656488714090E-062
   95.4009000000000         2.902224706899684E-063
   95.6403000000000        -3.762019365310718E-062
   95.8797000000000        -9.232571889250301E-062
   96.1191000000000        -1.575978095218856E-061
   96.3585000000000        -2.257713001818182E-061
   96.5979000000000        -2.845686397938215E-061
   96.8373000000000        -3.171644871986885E-061
   97.0767000000000        -3.031829046044679E-061
   97.3161000000000        -2.209012918410607E-061
   97.5555000000000        -5.083784143529913E-062
   97.7949000000000         2.192792533514804E-061
   98.0343000000000         5.884277415818989E-061
   98.2737000000000         1.035702999112604E-060
   98.5131000000000         1.514232037721295E-060
   98.7525000000000         1.946996570732862E-060
   98.9919000000000         2.226304579488157E-060
   99.2313000000000         2.218821933516677E-060
   99.4707000000000         1.777978843385838E-060
   99.7101000000000         7.650889233686734E-061
   99.9495000000000        -9.204348810985799E-061
   100.188900000000        -3.302870597623001E-060
   100.428300000000        -6.287097957235689E-060
   100.667700000000        -9.616170903184149E-060
   100.907100000000        -1.283770335217307E-059
   101.146500000000        -1.528963467985671E-059
   101.385900000000        -1.611763408075451E-059
   101.625300000000        -1.433671657686454E-059
   101.864700000000        -8.947843300656565E-060
   102.104100000000         8.843573509042992E-061
   102.343500000000         1.559465893217606E-059
   102.582900000000         3.493472213373732E-059
   102.822300000000         5.767372900774840E-059
   103.061700000000         8.132837993890857E-059
   103.301100000000         1.019863576604059E-058
   103.540500000000         1.143026288136339E-058
   103.779900000000         1.117564904553826E-058
   104.019300000000         8.725409823607289E-059
   104.258700000000         3.414094462571701E-059
   104.498100000000        -5.235363170684962E-059
   104.737500000000        -1.732858600677263E-058
   104.976900000000        -3.239211176219986E-058
   105.216300000000        -4.916684928754917E-058
   105.455700000000        -6.544118448034827E-058
   105.695100000000        -7.797459817447788E-058
   105.934500000000        -8.257182990298001E-058
   106.173900000000        -7.437032655513259E-058
   106.413300000000        -4.839612626702467E-058
   106.652700000000        -4.215859643005943E-060
   106.892100000000         7.188070549547110E-058
   107.131500000000         1.675513982428831E-057
   107.370900000000         2.808642890451595E-057
   107.610300000000         3.999795096357759E-057
   107.849700000000         5.060466476234981E-057
   108.089100000000         5.731503570654466E-057
   108.328500000000         5.695316550311540E-057
   108.567900000000         4.604979990158029E-057
   108.807300000000         2.133276162357569E-057
   109.046700000000        -1.957452029830744E-057
   109.286100000000        -7.727213560611284E-057
   109.525500000000        -1.495929564751104E-056
   109.764900000000        -2.306308798618749E-056
   110.004300000000        -3.099770210438418E-056
   110.243700000000        -3.724072912055659E-056
   110.483100000000        -3.983005580749550E-056
   110.722500000000        -3.650677924351932E-056
   110.961900000000        -2.498221582864247E-056
   111.201300000000        -3.340225589997201E-057
   111.440700000000         2.943348898710566E-056
   111.680100000000         7.283090160449347E-056
   111.919500000000         1.241798034921354E-055
   112.158900000000         1.780877576040475E-055
   112.398300000000         2.261144744665043E-055
   112.637700000000         2.568411707800532E-055
   112.877100000000         2.565126820641913E-055
   113.116500000000         2.104064177554450E-055
   113.355900000000         1.050221290138020E-055
   113.595300000000        -6.891896974235346E-056
   113.834700000000        -3.128296249684727E-055
   114.074100000000        -6.163236911371061E-055
   114.313500000000        -9.535697771253714E-055
   114.552900000000        -1.280719551559126E-054
   114.792300000000        -1.535367263429437E-054
   115.031700000000        -1.639069380133907E-054
   115.271100000000        -1.503872890956692E-054
   115.510500000000        -1.043513370396576E-054
   115.749900000000        -1.894081023799341E-055
   115.989300000000         1.089229307063033E-054
   116.228700000000         2.762862193724734E-054
   116.468100000000         4.719593690896642E-054
   116.707500000000         6.747725936923995E-054
   116.946900000000         8.528030891320486E-054
   117.186300000000         9.641394421959780E-054
   117.425700000000         9.597280914453285E-054
   117.665100000000         7.887197506714735E-054
   117.904500000000         4.064782687266750E-054
   118.143900000000        -2.149801495342032E-054
   118.383300000000        -1.074873540329493E-053
   118.622700000000        -2.131240010383683E-053
   118.862100000000        -3.290238359035889E-053
   119.101500000000        -4.399744704307199E-053
   119.340900000000        -5.250184760744353E-053
   119.580300000000        -5.585543228924180E-053
   119.819700000000        -5.126987130426950E-053
   120.059100000000        -3.610404528570463E-053
   120.298500000000        -8.373271369813237E-054
   120.537900000000         3.263799219691750E-053
   120.777300000000         8.572056382495727E-053
   121.016700000000         1.471350814839789E-052
   121.256100000000         2.101795974143111E-052
   121.495500000000         2.650744988602798E-052
   121.734900000000         2.993146975489745E-052
   121.974300000000         2.986217210915824E-052
   122.213700000000         2.485817184067166E-052
   122.453100000000         1.369755477156182E-052
   122.692500000000        -4.330581915906857E-053
   122.931900000000        -2.910076244470087E-052
   123.171300000000        -5.933214674768034E-052
   123.410700000000        -9.233111259100553E-052
   123.650100000000        -1.238623478088853E-051
   123.889500000000        -1.482207175475643E-051
   124.128900000000        -1.585716695930126E-051
   124.368300000000        -1.476105380282274E-051
   124.607700000000        -1.085586695608209E-051
   124.847100000000        -3.646635309326350E-052
   125.086500000000         7.026902761539046E-052
   125.325900000000         2.083315342118934E-051
   125.565300000000         3.680948217642244E-051
   125.804700000000         5.327031861974839E-051
   126.044100000000         6.779547532219200E-051
   126.283500000000         7.733125574996390E-051
   126.522900000000         7.843120804838059E-051
   126.762300000000         6.765120710889289E-051
   127.001700000000         4.209446514360491E-051
   127.241100000000         7.657228945425431E-054
   127.480500000000        -5.814954683816328E-051
   127.719900000000        -1.297007315481203E-050
   127.959300000000        -2.085237481220660E-050
   128.198700000000        -2.851501162168787E-050
   128.438100000000        -3.468930062328298E-050
   128.677500000000        -3.786183690974900E-050
   128.916900000000        -3.641809522262761E-050
   129.156300000000        -2.885451505477240E-050
   129.395700000000        -1.405113418588059E-050
   129.635100000000         8.415424353427992E-051
   129.874500000000         3.795231597711259E-050
   130.113900000000         7.267099494058699E-050
   130.353300000000         1.092052180549439E-049
   130.592700000000         1.426892635314360E-049
   130.832100000000         1.669567615472320E-049
   131.071500000000         1.750081163946939E-049
   131.310900000000         1.597704038109275E-049
   131.550300000000         1.151374967891017E-049
   131.789700000000         3.723137627072499E-050
   132.029100000000        -7.422841600874322E-050
   132.268500000000        -2.146156858284809E-049
   132.507900000000        -3.733663730045111E-049
   132.747300000000        -5.334757004528634E-049
   132.986700000000        -6.717806918296677E-049
   133.226100000000        -7.602552500613143E-049
   133.465500000000        -7.684711220846029E-049
   133.704900000000        -6.672564894360201E-049
   133.944300000000        -4.334168910613732E-049
   134.183700000000        -5.518051603478671E-050
   134.423100000000         4.621900537589007E-049
   134.662500000000         1.091387900440625E-048
   134.901900000000         1.779588321701792E-048
   135.141300000000         2.447530260549552E-048
   135.380700000000         2.992132709947104E-048
   135.620100000000         3.293432051202864E-048
   135.859500000000         3.226254454650832E-048
   136.098900000000         2.676485170446380E-048
   136.338300000000         1.561086480820232E-048
   136.577700000000        -1.497988231875355E-049
   136.817100000000        -2.411156506588816E-048
   137.056500000000        -5.085061141823022E-048
   137.295900000000        -7.930035937468769E-048
   137.535300000000        -1.060169377905619E-047
   137.774700000000        -1.266816121630891E-047
   138.014100000000        -1.364278892812723E-047
   138.253500000000        -1.303498674700734E-047
   138.492900000000        -1.041772001100052E-047
   138.732300000000        -5.507398379596211E-048