  -1.79550000000000         0.000000000000000E+000
  -1.55610000000000         0.000000000000000E+000
  -1.31670000000000         0.000000000000000E+000
  -1.07730000000000         0.000000000000000E+000
 -0.837900000000000         0.000000000000000E+000
 -0.598500000000000         0.000000000000000E+000
 -0.359100000000000         0.000000000000000E+000
 -0.119700000000000         0.000000000000000E+000
  0.119700000000000         0.000000000000000E+000
  0.359100000000000         0.000000000000000E+000
  0.598500000000000         0.000000000000000E+000
  0.837900000000000         0.000000000000000E+000
   1.07730000000000         0.000000000000000E+000
   1.31670000000000         0.000000000000000E+000
   1.55610000000000         0.000000000000000E+000
   1.79550000000000         0.000000000000000E+000
   2.03490000000000         0.000000000000000E+000
   2.27430000000000         0.000000000000000E+000
   2.51370000000000         0.000000000000000E+000
   2.75310000000000         0.000000000000000E+000
   2.99250000000000         0.000000000000000E+000
   3.23190000000000         0.000000000000000E+000
   3.47130000000000         0.000000000000000E+000
   3.71070000000000         0.000000000000000E+000
   3.95010000000000         0.000000000000000E+000
   4.18950000000000         0.000000000000000E+000
   4.42890000000000         0.000000000000000E+000
   4.66830000000000         0.000000000000000E+000
   4.90770000000000         0.000000000000000E+000
   5.14710000000000         0.000000000000000E+000
   5.38650000000000         0.000000000000000E+000
   5.62590000000000         0.000000000000000E+000
   5.86530000000000         0.000000000000000E+000
   6.10470000000000         0.000000000000000E+000
   6.34410000000000         0.000000000000000E+000
   6.58350000000000         0.000000000000000E+000
   6.82290000000000         0.000000000000000E+000
   7.06230000000000         0.000000000000000E+000
   7.30170000000000         0.000000000000000E+000
   7.54110000000000         0.000000000000000E+000
   7.78050000000000         0.000000000000000E+000
   8.01990000000000         0.000000000000000E+000
   8.25930000000000         0.000000000000000E+000
   8.49870000000000         3.195325326135329E-167
   8.73810000000000        -8.915466623396822E-161
   8.97750000000000         3.629372386564938E-158
   9.21690000000000         7.467880582672066E-156
   9.45630000000000        -5.968200278702536E-154
   9.69570000000000        -2.689769144629158E-152
   9.93510000000000         3.874494747459169E-151
   10.1745000000000         4.716574161857917E-149
   10.4139000000000         1.512723150567533E-147
   10.6533000000000         3.005121642713907E-146
   10.8927000000000         4.400016344084249E-145
   11.1321000000000         5.216879652350326E-144
   11.3715000000000         5.444239315624403E-143
   11.6109000000000         5.450161041355090E-142
   11.8503000000000         5.564434463750454E-141
   12.0897000000000         5.794616985357870E-140
   12.3291000000000         5.892149867391316E-139
   12.5685000000000         5.610844960096260E-138
   12.8079000000000         4.893395371713517E-137
   13.0473000000000         3.885025677939979E-136
   13.2867000000000         2.812784342397425E-135
   13.5261000000000         1.863809227413179E-134
   13.7655000000000         1.134535201051391E-133
   14.0049000000000         6.368485540754839E-133
   14.2443000000000         3.307648820095108E-132
   14.4837000000000         1.593189136581420E-131
   14.7231000000000         7.122300089949369E-131
   14.9625000000000         2.951357618795487E-130
   15.2019000000000         1.128661534539543E-129
   15.4413000000000         3.944586782695848E-129
   15.6807000000000         1.233980469729838E-128
   15.9201000000000         3.289657036763800E-128
   16.1595000000000         6.387248328635805E-128
   16.3989000000000         1.051938389429129E-128
   16.6383000000000        -7.356495803080685E-127
   16.8777000000000        -5.041733335837872E-126
   17.1171000000000        -2.447414585098166E-125
   17.3565000000000        -1.010411886724844E-124
   17.5959000000000        -3.752716574199597E-124
   17.8353000000000        -1.285617847403463E-123
   18.0747000000000        -4.118274218735115E-123
   18.3141000000000        -1.244349031794917E-122
   18.5535000000000        -3.570170200133848E-122
   18.7929000000000        -9.788069082207389E-122
   19.0323000000000        -2.583027377242829E-121
   19.2717000000000        -6.623191990964554E-121
   19.5111000000000        -1.670373695784708E-120
   19.7505000000000        -4.203685265453262E-120
   19.9899000000000        -1.070291324936758E-119
   20.2293000000000        -2.780004930859019E-119
   20.4687000000000        -7.358191953279181E-119
   20.7081000000000        -1.963906865845815E-118
   20.9475000000000        -5.202298473476189E-118
   21.1869000000000        -1.344813297326478E-117
   21.4263000000000        -3.339358417398721E-117
   21.6657000000000        -7.843993490180684E-117
   21.9051000000000        -1.711815665318315E-116
   22.1445000000000        -3.374924863570810E-116
   22.3839000000000        -5.666004855494797E-116
   22.6233000000000        -6.683377721801477E-116
   22.8627000000000         1.335928254193557E-116
   23.1021000000000         4.205971750500549E-115
   23.3415000000000         1.771221184106349E-114
   23.5809000000000         5.493461540431127E-114
   23.8203000000000         1.456960348474689E-113
   24.0597000000000         3.459214115208476E-113
   24.2991000000000         7.477919161026705E-113
   24.5385000000000         1.476947584066567E-112
   24.7779000000000         2.646381529648482E-112
   25.0173000000000         4.208666111191929E-112
   25.2567000000000         5.617860166645543E-112
   25.4961000000000         5.211471053431126E-112
   25.7355000000000        -6.721241879004890E-113
   25.9749000000000        -1.847519843913379E-111
   26.2143000000000        -5.696203230158822E-111
   26.4537000000000        -1.231164181138495E-110
   26.6931000000000        -2.107057342753078E-110
   26.9325000000000        -2.784287120277713E-110
   27.1719000000000        -2.219300084475777E-110
   27.4113000000000         1.323005294430840E-110
   27.6507000000000         9.281297783706032E-110
   27.8901000000000         1.891347574722887E-109
   28.1295000000000         1.320326924119472E-109
   28.3689000000000        -6.003688706353565E-109
   28.6083000000000        -3.234746161712579E-108
   28.8477000000000        -1.015502450400100E-107
   29.0871000000000        -2.516796750124801E-107
   29.3265000000000        -5.276009049426605E-107
   29.5659000000000        -9.455574463793355E-107
   29.8053000000000        -1.397764407778009E-106
   30.0447000000000        -1.450847318639326E-106
   30.2841000000000         7.713690562598272E-109
   30.5235000000000         5.272724820969890E-106
   30.7629000000000         1.831369589848458E-105
   31.0023000000000         4.473562196018465E-105
   31.2417000000000         9.001920798393654E-105
   31.4811000000000         1.538316972889221E-104
   31.7205000000000         2.170105425311086E-104
   31.9599000000000         2.171842927217049E-104
   32.1993000000000         1.063719368532953E-105
   32.4387000000000        -6.747593064127060E-104
   32.6781000000000        -2.272723771521459E-103
   32.9175000000000        -5.339647402827261E-103
   33.1569000000000        -1.032729058307500E-102
   33.3963000000000        -1.697254512554703E-102
   33.6357000000000        -2.303446783640220E-102
   33.8751000000000        -2.210081140478930E-102
   34.1145000000000        -3.776109210612550E-104
   34.3539000000000         6.700939783440073E-102
   34.5933000000000         2.183145497764430E-101
   34.8327000000000         5.017318312157087E-101
   35.0721000000000         9.581202795410962E-101
   35.3115000000000         1.577090339319385E-100
   35.5509000000000         2.209529831729146E-100
   35.7903000000000         2.419854171873537E-100
   36.0297000000000         1.272798751239504E-100
   36.2691000000000        -2.916517071118722E-100
   36.5085000000000        -1.276966906583994E-099
   36.7479000000000        -3.174711831007621E-099
   36.9873000000000        -6.336324592068286E-099
   37.2267000000000        -1.090921381449665E-098
   37.4661000000000        -1.641498171587033E-098
   37.7055000000000        -2.103216292583579E-098
   37.9449000000000        -2.054196371700499E-098
   38.1843000000000        -7.018249909255007E-099
   38.4237000000000         3.240716403640271E-098
   38.6631000000000         1.159552005230493E-097
   38.9025000000000         2.654424946827628E-097
   39.1419000000000         5.003039922562902E-097
   39.3813000000000         8.247069877002715E-097
   39.6207000000000         1.204863837189936E-096
   39.8601000000000         1.534412853585656E-096
   40.0995000000000         1.588106602178439E-096
   40.3389000000000         9.685689325853590E-097
   40.5783000000000        -9.423276932168755E-097
   40.8177000000000        -5.007540753864664E-096
   41.0571000000000        -1.230613114342899E-095
   41.2965000000000        -2.401705811553800E-095
   41.5359000000000        -4.117625672255100E-095
   41.7753000000000        -6.425838208502003E-095
   42.0147000000000        -9.250008129182412E-095
   42.2541000000000        -1.227802934433159E-094
   42.4935000000000        -1.476395633102710E-094
   42.7329000000000        -1.515814159767217E-094
   42.9723000000000        -1.041278045707949E-094
   43.2117000000000         5.266117553160088E-095
   43.4511000000000         4.248216173738038E-094
   43.6905000000000         1.196568814281488E-093
   43.9299000000000         2.665883927494216E-093
   44.1693000000000         5.268989565211248E-093
   44.4087000000000         9.552557265651638E-093
   44.6481000000000         1.601219713117758E-092
   44.8875000000000         2.465998398085867E-092
   45.1269000000000         3.412344617605430E-092
   45.3663000000000         4.004546560336551E-092
   45.6057000000000         3.261466919816279E-092
   45.8451000000000        -6.679181132222806E-093
   46.0845000000000        -1.083403533859053E-091
   46.3239000000000        -3.163068374089179E-091
   46.5633000000000        -6.837519375440840E-091
   46.8027000000000        -1.256938459252981E-090
   47.0421000000000        -2.038117523478959E-090
   47.2815000000000        -2.916852179480527E-090
   47.5209000000000        -3.561061594215908E-090
   47.7603000000000        -3.268459302215493E-090
   47.9997000000000        -8.012663000092768E-091
   48.2391000000000         5.731976191438697E-090
   48.4785000000000         1.881988814635952E-089
   48.7179000000000         4.110497812941514E-089
   48.9573000000000         7.425196131218541E-089
   49.1967000000000         1.167693939287464E-088
   49.4361000000000         1.604734244790303E-088
   49.6755000000000         1.855428037828805E-088
   49.9149000000000         1.547316997098377E-088
   50.1543000000000         8.432744401381703E-090
   50.3937000000000        -3.359860322352216E-088
   50.6331000000000        -9.748785745410800E-088
   50.8725000000000        -1.990954227503388E-087
   51.1119000000000        -3.398139717658111E-087
   51.3513000000000        -5.049825283867032E-087
   51.5907000000000        -6.507505161010837E-087
   51.8301000000000        -6.880881574965128E-087
   52.0695000000000        -4.676049533238144E-087
   52.3089000000000         2.272567871593517E-087
   52.5483000000000         1.665983231318816E-086
   52.7877000000000         4.117564323851271E-086
   53.0271000000000         7.735800791248485E-086
   53.2665000000000         1.236217120783354E-085
   53.5059000000000         1.723575475651070E-085
   53.7453000000000         2.062629019419913E-085
   53.9847000000000         1.945520586294600E-085
   54.2241000000000         9.044325095450951E-086
   54.4635000000000        -1.676934899959930E-085
   54.7029000000000        -6.480580085584541E-085
   54.9423000000000        -1.405677554196189E-084
   55.1817000000000        -2.446783315936075E-084
   55.4211000000000        -3.674409771791784E-084
   55.6605000000000        -4.816483340434343E-084
   55.8999000000000        -5.345549818051617E-084
   56.1393000000000        -4.411655605465278E-084
   56.3787000000000        -8.266131877389748E-085
   56.6181000000000         6.842882382519034E-084
   56.8575000000000         1.999853622511033E-083
   57.0969000000000         3.946807603348693E-083
   57.3363000000000         6.462988704881364E-083
   57.5757000000000         9.218980654358557E-083
   57.8151000000000         1.147027519826104E-082
   58.0545000000000         1.191090017288298E-082
   58.2939000000000         8.580619460710359E-083
   58.5333000000000        -1.091266033863456E-083
   58.7727000000000        -1.999075601577653E-082
   59.0121000000000        -5.063508272618902E-082
   59.2515000000000        -9.396397689097125E-082
   59.4909000000000        -1.475185599454732E-081
   59.7303000000000        -2.030407665589829E-081
   59.9697000000000        -2.437460479831979E-081
   60.2091000000000        -2.418602602852334E-081
   60.4485000000000        -1.574669381196789E-081
   60.6879000000000         5.975532092507015E-082
   60.9273000000000         4.638119486719719E-081
   61.1667000000000         1.098280178033140E-080
   61.4061000000000         1.972560619207524E-080
   61.6455000000000         3.027266764428564E-080
   61.8849000000000         4.089854334118441E-080
   62.1243000000000         4.825681590823913E-080
   62.3637000000000         4.695853485940736E-080
   62.6031000000000         2.941379668714221E-080
   62.8425000000000        -1.377375357218271E-080
   63.0819000000000        -9.248079155887937E-080
   63.3213000000000        -2.143777217051265E-079
   63.5607000000000        -3.804928584787868E-079
   63.8001000000000        -5.788386314008612E-079
   64.0395000000000        -7.763535739228373E-079
   64.2789000000000        -9.101791555854951E-079
   64.5183000000000        -8.804283174149287E-079
   64.7577000000000        -5.480873563387749E-079
   64.9971000000000         2.566373356908923E-079
   65.2365000000000         1.708731989719038E-078
   65.4759000000000         3.938102701259452E-078
   65.7153000000000         6.948326410353097E-078
   65.9547000000000         1.050235123726257E-077
   66.1941000000000         1.398174748549103E-077
   66.4335000000000         1.624044422879563E-077
   66.6729000000000         1.549430382964759E-077
   66.9123000000000         9.313208878708244E-078
   67.1517000000000        -5.191262639457834E-078
   67.3911000000000        -3.086957694923194E-077
   67.6305000000000        -6.961506479339458E-077
   67.8699000000000        -1.209414075829843E-076
   68.1093000000000        -1.800653340111299E-076
   68.3487000000000        -2.356662361994441E-076
   68.5881000000000        -2.677435999919214E-076
   68.8275000000000        -2.463227432454124E-076
   69.0669000000000        -1.321333728364825E-076
   69.3063000000000         1.192765542258979E-076
   69.5457000000000         5.483637391929976E-076
   69.7851000000000         1.175924182344561E-075
   70.0245000000000         1.980327966217887E-075
   70.2639000000000         2.868717169709297E-075
   70.5033000000000         3.645952885041393E-075
   70.7427000000000         3.988883068445849E-075
   70.9821000000000         3.438049449511440E-075
   71.2215000000000         1.423480989295317E-075
   71.4609000000000        -2.655659082995302E-075
   71.7003000000000        -9.278161370236580E-075
   71.9397000000000        -1.856165015463137E-074
   72.1791000000000        -2.993974517421419E-074
   72.4185000000000        -4.178477146815254E-074
   72.6579000000000        -5.104422124874230E-074
   72.8973000000000        -5.300809912436367E-074
   73.1367000000000        -4.137641002843328E-074
   73.3761000000000        -8.838500196735994E-075
   73.6155000000000         5.161100034921743E-074
   73.8549000000000         1.444371745281036E-073
   74.0943000000000         2.683550137614478E-073
   74.3337000000000         4.123264012757577E-073
   74.5731000000000         5.513069624799963E-073
   74.8125000000000         6.427593529133749E-073
   75.0519000000000         6.254820802831087E-073
   75.2913000000000         4.227865413405135E-073
   75.5307000000000        -4.768202232085582E-074
   75.7701000000000        -8.553734365041849E-073
   76.0095000000000        -2.028316812515454E-072
   76.2489000000000        -3.515357646066337E-072
   76.4883000000000        -5.142885177734146E-072
   76.7277000000000        -6.573941414662704E-072
   76.9671000000000        -7.282508365957807E-072
   77.2065000000000        -6.560607581058890E-072
   77.4459000000000        -3.579255102005601E-072
   77.6853000000000         2.475604374198504E-072
   77.9247000000000         1.217659499273218E-071
   78.1641000000000         2.553571668520241E-071
   78.4035000000000         4.161348366037318E-071
   78.6429000000000         5.811056750034767E-071
   78.8823000000000         7.103717033173971E-071
   79.1217000000000         7.459873303446547E-071
   79.3611000000000         6.147245921383860E-071
   79.6005000000000         2.366324611430850E-071
   79.8399000000000        -4.589786006665494E-071
   80.0793000000000        -1.509336464797300E-070
   80.3187000000000        -2.886588720046315E-070
   80.5581000000000        -4.461968351997489E-070
   80.7975000000000        -5.972077251118502E-070
   81.0369000000000        -6.997141677170872E-070
   81.2763000000000        -6.964360430835965E-070
   81.5157000000000        -5.191499278341791E-070
   81.7551000000000        -9.854082078289939E-071
   81.9945000000000         6.194282073595265E-070
   82.2339000000000         1.650572084387021E-069
   82.4733000000000         2.944489036467641E-069
   82.7127000000000         4.355212398748088E-069
   82.9521000000000         5.616801670294951E-069
   83.1915000000000         6.332804717701577E-069
   83.4309000000000         5.990592831696872E-069
   83.6703000000000         4.012233133553394E-069
   83.9097000000000        -1.481726051229821E-070
   84.1491000000000        -6.855883370675914E-069
   84.3885000000000        -1.610013900048321E-068
   84.6279000000000        -2.727016705855423E-068
   84.8673000000000        -3.893810717865335E-068
   85.1067000000000        -4.870350521526465E-068
   85.3461000000000        -5.317144755775769E-068
   85.5855000000000        -4.814710929823437E-068
   85.8249000000000        -2.912721002339269E-068
   86.0643000000000         7.853167836365887E-069
   86.3037000000000         6.500774721717776E-068
   86.5431000000000         1.412865741215466E-067
   86.7825000000000         2.307351792773808E-067
   87.0219000000000         3.210212322670903E-067
   87.2613000000000         3.925515198219285E-067
   87.5007000000000         4.187044977691624E-067
   87.7401000000000         3.677455296290038E-067
   87.9795000000000         2.069314724079534E-067
   88.2189000000000        -9.089286763576860E-068
   88.4583000000000        -5.382834299951521E-067
   88.6977000000000        -1.122412893144248E-066
   88.9371000000000        -1.793882179975762E-066
   89.1765000000000        -2.457310741621908E-066
   89.4159000000000        -2.966665024614035E-066
   89.6553000000000        -3.128836867144295E-066
   89.8947000000000        -2.719080730340779E-066
   90.1341000000000        -1.511308177529006E-066
   90.3735000000000         6.753114761825791E-067
   90.6129000000000         3.914635808921971E-066
   90.8523000000000         8.101644371409668E-066
   91.0917000000000         1.287987615476577E-065
   91.3311000000000         1.758271608275128E-065
   91.5705000000000         2.120755460836867E-065
   91.8099000000000         2.244477268183342E-065
   92.0493000000000         1.978348409668019E-065
   92.2887000000000         1.171157335129613E-065
   92.5281000000000        -2.982443504854173E-066
   92.7675000000000        -2.481457062165939E-065
   93.0069000000000        -5.314890008282678E-065
   93.2463000000000        -8.573836411220437E-065
   93.4857000000000        -1.183506275936835E-064
   93.7251000000000        -1.445933914728369E-064
   93.9645000000000        -1.560705027021647E-064
   94.2039000000000        -1.430006992025903E-064
   94.4433000000000        -9.540671118704599E-065
   94.6827000000000        -4.926867011593225E-066
   94.9221000000000         1.327900419800896E-064
   95.1615000000000         3.152729703100600E-064
   95.4009000000000         5.303224520042585E-064
   95.6403000000000         7.535032736125948E-064
   95.8797000000000         9.466904640502693E-064
   96.1191000000000         1.058441991282867E-063
   96.3585000000000         1.027007655528109E-063
   96.5979000000000         7.866924910523766E-064
   96.8373000000000         2.780317522644611E-064
   97.0767000000000        -5.382299444918489E-064
   97.3161000000000        -1.664044345248849E-063
   97.5555000000000        -3.045421222740401E-063
   97.7949000000000        -4.554841330654237E-063
   98.0343000000000        -5.978373095958348E-063
   98.2737000000000        -7.012069098988643E-063
   98.5131000000000        -7.272786012086673E-063
   98.7525000000000        -6.328514918300166E-063
   98.9919000000000        -3.752336293975685E-063
   99.2313000000000         7.980513896206267E-064
   99.4707000000000         7.476846293681636E-063
   99.7101000000000         1.612935284531222E-062
   99.9495000000000         2.616688956834683E-062
   100.188900000000         3.645760606130890E-062
   100.428300000000         4.526063950076124E-062
   100.667700000000         5.023699406751846E-062
   100.907100000000         4.857350554793542E-062
   101.146500000000         3.725420520358007E-062
   101.385900000000         1.350411795428979E-062
   101.625300000000        -2.458800793551857E-062
   101.864700000000        -7.729072076191949E-062
   102.104100000000        -1.423572685191822E-061
   102.343500000000        -2.141709443579536E-061
   102.582900000000        -2.830734096427608E-061
   102.822300000000        -3.350914660353274E-061
   103.061700000000        -3.523141576387446E-061
   103.301100000000        -3.141803970692920E-061
   103.540500000000        -1.999014502880007E-061
   103.779900000000         7.853454195873831E-063
   104.019300000000         3.180492964454759E-061
   104.258700000000         7.254440091784309E-061
   104.498100000000         1.204422676982079E-060
   104.737500000000         1.703484706828690E-060
   104.976900000000         2.141733620410900E-060
   105.216300000000         2.409026070451029E-060
   105.455700000000         2.371587336052100E-060
   105.695100000000         1.884787542794877E-060
   105.934500000000         8.142850377870886E-061
   106.173900000000        -9.342147318519448E-061
   106.413300000000        -3.377818458541839E-060
   106.652700000000        -6.415142521822905E-060
   106.892100000000        -9.786435610548510E-060
   107.131500000000        -1.304320179555062E-059
   107.370900000000        -1.553760244634056E-059
   107.610300000000        -1.644327995038203E-059
   107.849700000000        -1.481910841857504E-059
   108.089100000000        -9.725033298462083E-060
   108.328500000000        -3.939842368659011E-061
   108.567900000000         1.354456718624074E-059
   108.807300000000         3.180547020262155E-059
   109.046700000000         5.318348882840085E-059
   109.286100000000         7.532939992563867E-059
   109.525500000000         9.462677307183023E-059
   109.764900000000         1.062398092805021E-058
   110.004300000000         1.044047602860462E-058
   110.243700000000         8.302737305570957E-059
   110.483100000000         3.662263790382157E-059
   110.722500000000        -3.841185940249440E-059
   110.961900000000        -1.422620260261712E-058
   111.201300000000        -2.700568426993478E-058
   111.440700000000        -4.103661983470304E-058
   111.680100000000        -5.441702628231972E-058
   111.919500000000        -6.447031063022464E-058
   112.158900000000        -6.786024424973754E-058
   112.398300000000        -6.087627604231824E-058
   112.637700000000        -3.991679643525121E-058
   112.877100000000        -2.175438618932219E-059
   113.116500000000         5.349813037006441E-058
   113.355900000000         1.256352594845456E-057
   113.595300000000         2.092062879776566E-057
   113.834700000000         2.948744257039711E-057
   114.074100000000         3.686649521956339E-057
   114.313500000000         4.122949950217466E-057
   114.552900000000         4.044036347330687E-057
   114.792300000000         3.228722746120301E-057
   115.031700000000         1.483202011777767E-057
   115.271100000000        -1.313060506395876E-057
   115.510500000000        -5.153566544672861E-057
   115.749900000000        -9.848950832658429E-057
   115.989300000000        -1.497778589843551E-056
   116.228700000000        -1.985543811023162E-056
   116.468100000000        -2.353430645817588E-056
   116.707500000000        -2.484924380355189E-056
   116.946900000000        -2.252026578983447E-056
   117.186300000000        -1.532014619113143E-056
   117.425700000000        -2.306730897327169E-057
   117.665100000000         1.689130836398000E-056
   117.904500000000         4.176056486178013E-056
   118.143900000000         7.060187897954936E-056
   118.383300000000         1.002988531680698E-055
   118.622700000000         1.262252474096137E-055
   118.862100000000         1.423670254571527E-055
   119.101500000000         1.417311820468917E-055
   119.340900000000         1.170960929336844E-055
   119.580300000000         6.212406537640385E-056
   119.819700000000        -2.719532553197469E-056
   120.059100000000        -1.508715302551083E-055
   120.298500000000        -3.031908269870297E-055
   120.537900000000        -4.712130118385724E-055
   120.777300000000        -6.338312335070106E-055
   121.016700000000        -7.617909449457673E-055
   121.256100000000        -8.190712416343542E-055
   121.495500000000        -7.659748600194130E-055
   121.734900000000        -5.641344149113856E-055
   121.974300000000        -1.834110774353463E-055
   122.213700000000         3.896622115622153E-055
   122.453100000000         1.142642299156836E-054
   122.692500000000         2.028335413254493E-054
   122.931900000000         2.957978371882808E-054
   123.171300000000         3.798404570214008E-054
   123.410700000000         4.375313049429501E-054
   123.650100000000         4.484628183013410E-054
   123.889500000000         3.913425324995325E-054
   124.128900000000         2.470932928364377E-054
   124.368300000000         2.867892913088949E-056
   124.607700000000        -3.433027829414834E-054
   124.847100000000        -7.777268777085353E-054
   125.086500000000        -1.266857067904360E-053
   125.325900000000        -1.754604288182655E-053
   125.565300000000        -2.162205222623600E-053
   125.804700000000        -2.391694881224344E-053
   126.044100000000        -2.333872620647837E-053
   126.283500000000        -1.881277769792543E-053
   126.522900000000        -9.460872561567339E-054
   126.762300000000         5.179810444008069E-054
   127.001700000000         2.491683194015212E-053
   127.241100000000         4.867200009928411E-053
   127.480500000000         7.430078146939520E-053
   127.719900000000         9.851005838783140E-053
   127.959300000000         1.169258824310293E-052
   128.198700000000         1.243590529053197E-052
   128.438100000000         1.153034086625324E-052
   128.677500000000         8.467823103402151E-053
   128.916900000000         2.879183357173598E-053
   129.156300000000        -5.354039417997790E-053
   129.395700000000        -1.598401468847701E-052
   129.635100000000        -2.829396533930653E-052
   129.874500000000        -4.102946317905772E-052
   130.113900000000        -5.238732377326308E-052
   130.353300000000        -6.008564635602278E-052
   130.592700000000        -6.153471047511239E-052
   130.832100000000        -5.412009388719329E-052
   131.071500000000        -3.559615618656451E-052
   131.310900000000        -4.570212653639430E-053
   131.550300000000         3.896360459250845E-052
   131.789700000000         9.310459861436798E-052
   132.029100000000         1.536249375756594E-051
   132.268500000000         2.137492105994338E-051
   132.507900000000         2.642411654273947E-051
   132.747300000000         2.938965620622648E-051
   132.986700000000         2.905148801165395E-051
   133.226100000000         2.423759178041823E-051
   133.465500000000         1.401799764658372E-051
   133.704900000000        -2.067469623416463E-052
   133.944300000000        -2.376995256278689E-051
   134.183700000000        -4.991268715618726E-051
   134.423100000000        -7.823255671993294E-051
   134.662500000000        -1.053271902825947E-050
   134.901900000000        -1.267527706047205E-050
   135.141300000000        -1.373110256663953E-050
   135.380700000000        -1.315491304888589E-050
   135.620100000000        -1.044728851536264E-050
   135.859500000000        -5.244209718971668E-051
   136.098900000000         2.582049819743225E-051
   136.338300000000         1.282157209586847E-050
   136.577700000000         2.483966905287067E-050
   136.817100000000         3.752158838902630E-050
   137.056500000000         4.926798324171649E-050
   137.295900000000         5.805908911795612E-050
   137.535300000000         6.160162149517585E-050
   137.774700000000         5.756513585873081E-050
   138.014100000000         4.390393179575240E-050
   138.253500000000         1.924696243036601E-050
   138.492900000000        -1.667737598354063E-050
   138.732300000000        -6.263065448399654E-050