  -1.79550000000000         0.000000000000000E+000
  -1.55610000000000         0.000000000000000E+000
  -1.31670000000000         0.000000000000000E+000
  -1.07730000000000         0.000000000000000E+000
 -0.837900000000000         0.000000000000000E+000
 -0.598500000000000         0.000000000000000E+000
 -0.359100000000000         0.000000000000000E+000
 -0.119700000000000         0.000000000000000E+000
  0.119700000000000         0.000000000000000E+000
  0.359100000000000         0.000000000000000E+000
  0.598500000000000         0.000000000000000E+000
  0.837900000000000         0.000000000000000E+000
   1.07730000000000         0.000000000000000E+000
   1.31670000000000         0.000000000000000E+000
   1.55610000000000         0.000000000000000E+000
   1.79550000000000         0.000000000000000E+000
   2.03490000000000         0.000000000000000E+000
   2.27430000000000         0.000000000000000E+000
   2.51370000000000         0.000000000000000E+000
   2.75310000000000         0.000000000000000E+000
   2.99250000000000         0.000000000000000E+000
   3.23190000000000         0.000000000000000E+000
   3.47130000000000         0.000000000000000E+000
   3.71070000000000         0.000000000000000E+000
   3.95010000000000         0.000000000000000E+000
   4.18950000000000         0.000000000000000E+000
   4.42890000000000         0.000000000000000E+000
   4.66830000000000         0.000000000000000E+000
   4.90770000000000         0.000000000000000E+000
   5.14710000000000         0.000000000000000E+000
   5.38650000000000         0.000000000000000E+000
   5.62590000000000         0.000000000000000E+000
   5.86530000000000         0.000000000000000E+000
   6.10470000000000         0.000000000000000E+000
   6.34410000000000         0.000000000000000E+000
   6.58350000000000         0.000000000000000E+000
   6.82290000000000         0.000000000000000E+000
   7.06230000000000         0.000000000000000E+000
   7.30170000000000         0.000000000000000E+000
   7.54110000000000         0.000000000000000E+000
   7.78050000000000         0.000000000000000E+000
   8.01990000000000         0.000000000000000E+000
   8.25930000000000         0.000000000000000E+000
   8.49870000000000         0.000000000000000E+000
   8.73810000000000        -5.465491917903502E-190
   8.97750000000000        -1.209658446748478E-177
   9.21690000000000        -6.877229464460669E-166
   9.45630000000000         1.079373679070322E-161
   9.69570000000000        -2.151758907538892E-159
   9.93510000000000        -1.301042790541697E-157
   10.1745000000000        -2.938135908591677E-156
   10.4139000000000        -2.034942240375107E-155
   10.6533000000000         6.326601338046519E-154
   10.8927000000000         2.436084803198828E-152
   11.1321000000000         4.778817776814139E-151
   11.3715000000000         6.728342023583664E-150
   11.6109000000000         7.432849724175061E-149
   11.8503000000000         6.640289031442140E-148
   12.0897000000000         4.767020695255854E-147
   12.3291000000000         2.562096606809235E-146
   12.5685000000000         6.859695263929822E-146
   12.8079000000000        -5.285139676425192E-145
   13.0473000000000        -1.076529654144541E-143
   13.2867000000000        -1.143649468546442E-142
   13.5261000000000        -9.564902898709112E-142
   13.7655000000000        -6.916462217072608E-141
   14.0049000000000        -4.496211012220711E-140
   14.2443000000000        -2.683828899795373E-139
   14.4837000000000        -1.490834790473044E-138
   14.7231000000000        -7.779537401294779E-138
   14.9625000000000        -3.840548197457460E-137
   15.2019000000000        -1.803663633371504E-136
   15.4413000000000        -8.094414993037919E-136
   15.6807000000000        -3.483996801710750E-135
   15.9201000000000        -1.442604820216052E-134
   16.1595000000000        -5.760723283189706E-134
   16.3989000000000        -2.223068663094952E-133
   16.6383000000000        -8.304151553374990E-133
   16.8777000000000        -3.006677155121364E-132
   17.1171000000000        -1.056329758667053E-131
   17.3565000000000        -3.604298750442095E-131
   17.5959000000000        -1.195300502910349E-130
   17.8353000000000        -3.855268922988564E-130
   18.0747000000000        -1.210083501499537E-129
   18.3141000000000        -3.698336746636983E-129
   18.5535000000000        -1.101192482313553E-128
   18.7929000000000        -3.195963524610146E-128
   19.0323000000000        -9.044842088233836E-128
   19.2717000000000        -2.496724102956650E-127
   19.5111000000000        -6.722076143125654E-127
   19.7505000000000        -1.764444974880442E-126
   19.9899000000000        -4.510406211909270E-126
   20.2293000000000        -1.120596156985312E-125
   20.4687000000000        -2.696679371715489E-125
   20.7081000000000        -6.251068488938722E-125
   20.9475000000000        -1.383245801041733E-124
   21.1869000000000        -2.876864159554691E-124
   21.4263000000000        -5.458797399836130E-124
   21.6657000000000        -8.812359990933089E-124
   21.9051000000000        -9.362783680201292E-124
   22.1445000000000         7.696707356381939E-124
   22.3839000000000         9.010363896710037E-123
   22.6233000000000         3.718662385672735E-122
   22.8627000000000         1.191753658377168E-121
   23.1021000000000         3.326424016372674E-121
   23.3415000000000         8.372141147638013E-121
   23.5809000000000         1.915310066144553E-120
   23.8203000000000         3.943663056124457E-120
   24.0597000000000         7.047371506901577E-120
   24.2991000000000         9.744387944844504E-120
   24.5385000000000         4.906828970509192E-120
   24.7779000000000        -3.051849346585365E-119
   25.0173000000000        -1.585361769222463E-118
   25.2567000000000        -5.252176132108024E-118
   25.4961000000000        -1.434195523310012E-117
   25.7355000000000        -3.427467597948062E-117
   25.9749000000000        -7.252171678341952E-117
   26.2143000000000        -1.330589846045259E-116
   26.4537000000000        -1.944585327598434E-116
   26.6931000000000        -1.448034549720116E-116
   26.9325000000000         3.847479752819261E-116
   27.1719000000000         2.402051415399323E-115
   27.4113000000000         8.352469332457459E-115
   27.6507000000000         2.363544154657432E-114
   27.8901000000000         5.917388777542763E-114
   28.1295000000000         1.350896092086316E-113
   28.3689000000000         2.843411898492574E-113
   28.6083000000000         5.517919375036969E-113
   28.8477000000000         9.761654485648847E-113
   29.0871000000000         1.525598704251491E-112
   29.3265000000000         1.925985678497620E-112
   29.5659000000000         1.268136742750421E-112
   29.8053000000000        -2.798281280407684E-112
   30.0447000000000        -1.556664702107115E-111
   30.2841000000000        -4.780259929135756E-111
   30.5235000000000        -1.194921968438154E-110
   30.7629000000000        -2.643446300450223E-110
   31.0023000000000        -5.327691967483926E-110
   31.2417000000000        -9.869299913122615E-110
   31.4811000000000        -1.673242797831828E-109
   31.7205000000000        -2.542748004798162E-109
   31.9599000000000        -3.265198593689468E-109
   32.1993000000000        -2.846400093194293E-109
   32.4387000000000         1.087391225607981E-109
   32.6781000000000         1.351546260668690E-108
   32.9175000000000         4.393354001187557E-108
   33.1569000000000         1.089857880490389E-107
   33.3963000000000         2.353946839467257E-107
   33.6357000000000         4.616371139934294E-107
   33.8751000000000         8.344125198635492E-107
   34.1145000000000         1.391298344132709E-106
   34.3539000000000         2.112670696433521E-106
   34.5933000000000         2.812227613838022E-106
   34.8327000000000         2.914826390282089E-106
   35.0721000000000         1.043525566346037E-106
   35.3115000000000        -5.688081885724199E-106
   35.5509000000000        -2.278423924665519E-105
   35.7903000000000        -5.990576444756544E-105
   36.0297000000000        -1.326003387610593E-104
   36.2691000000000        -2.633136320892777E-104
   36.5085000000000        -4.793435088545743E-104
   36.7479000000000        -8.027036653778828E-104
   36.9873000000000        -1.222286368902664E-103
   37.2267000000000        -1.631824776476726E-103
   37.4661000000000        -1.708422224117100E-103
   37.7055000000000        -6.987134907767234E-104
   37.9449000000000         2.918949068054570E-103
   38.1843000000000         1.190012579876351E-102
   38.4237000000000         3.074485028638882E-102
   38.6631000000000         6.597123510298275E-102
   38.9025000000000         1.254834512851222E-101
   39.1419000000000         2.157049863089559E-101
   39.3813000000000         3.341593234620906E-101
   39.6207000000000         4.539359727572661E-101
   39.8601000000000         4.953650122992412E-101
   40.0995000000000         2.802390296867117E-101
   40.3389000000000        -5.328842659650350E-101
   40.5783000000000        -2.523804496184142E-100
   40.8177000000000        -6.565538615095489E-100
   41.0571000000000        -1.378676226173309E-099
   41.2965000000000        -2.530213308348298E-099
   41.5359000000000        -4.147535111430871E-099
   41.7753000000000        -6.036907328874679E-099
   42.0147000000000        -7.495290010663603E-099
   42.2541000000000        -6.868279459444292E-099
   42.4935000000000        -9.412458193318666E-100
   42.7329000000000         1.574629894706808E-098
   42.9723000000000         5.138025300102165E-098
   43.2117000000000         1.165267474479841E-097
   43.4511000000000         2.218345263584964E-097
   43.6905000000000         3.719971088729921E-097
   43.9299000000000         5.535180798335542E-097
   44.1693000000000         7.135082046608734E-097
   44.4087000000000         7.274946066266847E-097
   44.6481000000000         3.572253402499273E-097
   44.8875000000000        -7.935856622066986E-097
   45.1269000000000        -3.304642249056048E-096
   45.3663000000000        -7.903798007606830E-096
   45.6057000000000        -1.530032573521156E-095
   45.8451000000000        -2.578221591908102E-095
   46.0845000000000        -3.844551236781759E-095
   46.3239000000000        -4.992529681753705E-095
   46.5633000000000        -5.256832913544019E-095
   46.8027000000000        -3.218599024174241E-095
   47.0421000000000         3.407074036317617E-095
   47.2815000000000         1.784873257492656E-094
   47.5209000000000         4.399753245401543E-094
   47.7603000000000         8.541603471512130E-094
   47.9997000000000         1.431570100135637E-093
   48.2391000000000         2.118442816453324E-093
   48.4785000000000         2.735701040464545E-093
   48.7179000000000         2.896085558457645E-093
   48.9573000000000         1.909628635951813E-093
   49.1967000000000        -1.293860508999425E-093
   49.4361000000000        -8.167827705585460E-093
   49.6755000000000        -2.038115552140504E-092
   49.9149000000000        -3.933912122089198E-092
   50.1543000000000        -6.521699993165520E-092
   50.3937000000000        -9.532854315965895E-092
   50.6331000000000        -1.217260139629974E-091
   50.8725000000000        -1.281378790097337E-091
   51.1119000000000        -8.676489253112568E-092
   51.3513000000000         4.386002186146782E-092
   51.5907000000000         3.177623617492532E-091
   51.8301000000000         7.937747416393924E-091
   52.0695000000000         1.516561800925610E-090
   52.3089000000000         2.481180310672318E-090
   52.5483000000000         3.576679383680565E-090
   52.7877000000000         4.507677726842336E-090
   53.0271000000000         4.700590495119860E-090
   53.2665000000000         3.214889755302541E-090
   53.5059000000000        -1.299411090774288E-090
   53.7453000000000        -1.052943270944794E-089
   53.9847000000000        -2.621319674553617E-089
   54.2241000000000        -4.951556605643379E-089
   54.4635000000000        -7.993883449858074E-089
   54.7029000000000        -1.136820777391006E-088
   54.9423000000000        -1.414821395582079E-088
   55.1817000000000        -1.462008610570758E-088
   55.4211000000000        -1.007982217093021E-088
   55.6605000000000         3.214261871916178E-089
   55.8999000000000         2.975349557807975E-088
   56.1393000000000         7.391226181997255E-088
   56.3787000000000         1.382222199275188E-087
   56.6181000000000         2.205330385995784E-087
   56.8575000000000         3.099498405359875E-087
   57.0969000000000         3.817654980086659E-087
   57.3363000000000         3.921809463930897E-087
   57.5757000000000         2.744668510024826E-087
   57.8151000000000        -6.066010274662816E-088
   58.0545000000000        -7.164334068446700E-087
   58.2939000000000        -1.788147482540580E-086
   58.5333000000000        -3.322617733873309E-086
   58.7727000000000        -5.254854008659933E-086
   59.0121000000000        -7.321597126269974E-086
   59.2515000000000        -8.958808537810079E-086
   59.4909000000000        -9.202181165301090E-086
   59.7303000000000        -6.626435029485986E-086
   59.9697000000000         6.206346566841603E-087
   60.2091000000000         1.461311005369736E-085
   60.4485000000000         3.718080170787972E-085
   60.6879000000000         6.909461030763364E-085
   60.9273000000000         1.088490032785734E-084
   61.1667000000000         1.510664610490402E-084
   61.4061000000000         1.846894261126299E-084
   61.6455000000000         1.913363367093645E-084
   61.8849000000000         1.444744943241121E-084
   62.1243000000000         1.037419998212155E-085
   62.3637000000000        -2.479091566203953E-084
   62.6031000000000        -6.621350859821313E-084
   62.8425000000000        -1.244823137474340E-083
   63.0819000000000        -1.968952521407660E-083
   63.3213000000000        -2.742175097732772E-083
   63.5607000000000        -3.378526139558302E-083
   63.8001000000000        -3.573775597361346E-083
   64.0395000000000        -2.894489657909776E-083
   64.2789000000000        -7.950617255605593E-084
   64.5183000000000         3.319541998977957E-083
   64.7577000000000         9.966295388866467E-083
   64.9971000000000         1.937580296340011E-082
   65.2365000000000         3.119664802455746E-082
   65.4759000000000         4.412443630702815E-082
   65.7153000000000         5.549689196651275E-082
   65.9547000000000         6.093670887414606E-082
   66.1941000000000         5.417291196251771E-082
   66.4335000000000         2.722314988391821E-082
   66.6729000000000        -2.883729356195732E-082
   66.9123000000000        -1.222752759695267E-081
   67.1517000000000        -2.580514345890542E-081
   67.3911000000000        -4.340060494473973E-081
   67.6305000000000        -6.359587777237473E-081
   67.8699000000000        -8.321193846879595E-081
   68.1093000000000        -9.676555201193829E-081
   68.3487000000000        -9.608354585641639E-081
   68.5881000000000        -7.028198501651327E-081
   68.8275000000000        -6.383637757733860E-082
   69.0669000000000         1.090999928369660E-080
   69.3063000000000         2.872761136643505E-080
   69.5457000000000         5.323629132874251E-080
   69.7851000000000         8.354003677723435E-080
   70.0245000000000         1.166292549245264E-079
   70.2639000000000         1.464763609447457E-079
   70.5033000000000         1.631516422266902E-079
   70.7427000000000         1.521860460866191E-079
   70.9821000000000         9.453194884954778E-080
   71.2215000000000        -3.238383139804419E-080
   71.4609000000000        -2.518789596360891E-079
   71.7003000000000        -5.827704336024113E-079
   71.9397000000000        -1.030936722426506E-078
   72.1791000000000        -1.577172015614664E-078
   72.4185000000000        -2.161368522027350E-078
   72.6579000000000        -2.664106403954072E-078
   72.8973000000000        -2.888417634708604E-078
   73.1367000000000        -2.546912428684413E-078
   73.3761000000000        -1.262563122879436E-078
   73.6155000000000         1.405086991784793E-078
   73.8549000000000         5.893414492947853E-078
   74.0943000000000         1.251358198678886E-077
   74.3337000000000         2.125662513108619E-077
   74.5731000000000         3.152299796587143E-077
   74.8125000000000         4.178742317773386E-077
   75.0519000000000         4.924050303905604E-077
   75.2913000000000         4.949165314357132E-077
   75.5307000000000         3.647313132553566E-077
   75.7701000000000         2.745878925774193E-078
   76.0095000000000        -5.953908808067317E-077
   76.2489000000000        -1.567478571778882E-076
   76.4883000000000        -2.907052677170988E-076
   76.7277000000000        -4.543841247170538E-076
   76.9671000000000        -6.265519542468139E-076
   77.2065000000000        -7.660677175513959E-076
   77.4459000000000        -8.071985364533649E-076
   77.6853000000000        -6.581582705587827E-076
   77.9247000000000        -2.059350588672813E-076
   78.1641000000000         6.688549368912157E-076
   78.4035000000000         2.063230682842088E-075
   78.6429000000000         4.006278075573647E-075
   78.8823000000000         6.396295886690292E-075
   79.1217000000000         8.924814460886304E-075
   79.3611000000000         1.099871636760941E-074
   79.6005000000000         1.168110661819692E-074
   79.8399000000000         9.682473471342636E-075
   80.0793000000000         3.444076470878800E-075
   80.3187000000000        -8.637953627992531E-075
   80.5581000000000        -2.780143747847572E-074
   80.7975000000000        -5.429034535531467E-074
   81.0369000000000        -8.651879350185173E-074
   81.2763000000000        -1.200997464914489E-073
   81.5157000000000        -1.469042955143724E-073
   81.7551000000000        -1.544343013465108E-073
   81.9945000000000        -1.259175352206002E-073
   82.2339000000000        -4.164234567600603E-074
   82.4733000000000         1.179049632299078E-073
   82.7127000000000         3.666104619333825E-073
   82.9521000000000         7.047819803220261E-073
   83.1915000000000         1.108962705939578E-072
   83.4309000000000         1.520605195779943E-072
   83.6703000000000         1.835806278500562E-072
   83.9097000000000         1.899615222566854E-072
   84.1491000000000         1.509745049953513E-072
   84.3885000000000         4.354935072837157E-073
   84.6279000000000        -1.542184163141081E-072
   84.8673000000000        -4.564842548307464E-072
   85.1067000000000        -8.603829953746825E-072
   85.3461000000000        -1.334579099814059E-071
   85.5855000000000        -1.807074073936823E-071
   85.8249000000000        -2.154903227588279E-071
   86.0643000000000        -2.199700710046324E-071
   86.3037000000000        -1.714364384412570E-071
   86.5431000000000        -4.468251217595929E-072
   86.7825000000000         1.833305262095524E-071
   87.0219000000000         5.261288067011994E-071
   87.2613000000000         9.777199602503363E-071
   87.5007000000000         1.500627777160824E-070
   87.7401000000000         2.013635312241203E-070
   87.9795000000000         2.382100586010640E-070
   88.2189000000000         2.414989264794625E-070
   88.4583000000000         1.873870554466438E-070
   88.6977000000000         4.996561421481143E-071
   88.9371000000000        -1.937676226045933E-070
   89.1765000000000        -5.563309905240224E-070
   89.4159000000000        -1.029705031667419E-069
   89.6553000000000        -1.573616637541408E-069
   89.8947000000000        -2.103909406681707E-069
   90.1341000000000        -2.483861992746062E-069
   90.3735000000000        -2.522456923654515E-069
   90.6129000000000        -1.984513860559435E-069
   90.8523000000000        -6.179204870583956E-070
   91.0917000000000         1.797528723272539E-069
   91.3311000000000         5.377424669350250E-069
   91.5705000000000         1.003810535344094E-068
   91.8099000000000         1.538840519298727E-068
   92.0493000000000         2.062452769213883E-068
   92.2887000000000         2.445452894635623E-068
   92.5281000000000         2.508853797908515E-068
   92.7675000000000         2.033806037020078E-068
   93.0069000000000         7.869365350031453E-069
   93.2463000000000        -1.435173204406704E-068
   93.4857000000000        -4.740732497901611E-068
   93.7251000000000        -9.058816821678116E-068
   93.9645000000000        -1.404441317876612E-067
   94.2039000000000        -1.898721952977379E-067
   94.4433000000000        -2.274708419312730E-067
   94.6827000000000        -2.374677565453100E-067
   94.9221000000000        -2.005834997538841E-067
   95.1615000000000        -9.620163493980237E-068
   95.4009000000000         9.385442405609184E-068
   95.6403000000000         3.798160690783863E-067
   95.8797000000000         7.569245525186429E-067
   96.1191000000000         1.197486737742190E-066
   96.3585000000000         1.643246467207872E-066
   96.5979000000000         1.999929638861117E-066
   96.8373000000000         2.136431655457932E-066
   97.0767000000000         1.891541893425195E-066
   97.3161000000000         1.091142554013074E-066
   97.5555000000000        -4.217499640551288E-067
   97.7949000000000        -2.743140332468932E-066
   98.0343000000000        -5.851864136749740E-066
   98.2737000000000        -9.545994237327852E-066
   98.5131000000000        -1.338119051432682E-065
   98.7525000000000        -1.662524370144519E-065
   98.9919000000000        -1.824770267173270E-065
   99.2313000000000        -1.696671464093510E-065
   99.4707000000000        -1.137558284481119E-065
   99.7101000000000        -1.673832547694242E-067
   99.9495000000000         1.753435968573084E-065
   100.188900000000         4.174870375601405E-065
   100.428300000000         7.114935397534524E-065
   100.667700000000         1.025833975000888E-064
   100.907100000000         1.307003659389696E-064
   101.146500000000         1.478295679297647E-064
   101.385900000000         1.442681368743971E-064
   101.625300000000         1.091465832023285E-064
   101.864700000000         3.201101697088717E-065
   102.104100000000        -9.480996908540130E-065
   102.343500000000        -2.731093523328666E-064
   102.582900000000        -4.952111306208956E-064
   102.822300000000        -7.403468903919336E-064
   103.061700000000        -9.717164646691052E-064
   103.301100000000        -1.135196003640402E-063
   103.540500000000        -1.160839641353127E-063
   103.779900000000        -9.683697923615948E-064
   104.019300000000        -4.776853969715784E-064
   104.258700000000         3.750424499382865E-064
   104.498100000000         1.615934264744219E-063
   104.737500000000         3.208067862313856E-063
   104.976900000000         5.025223221710584E-063
   105.216300000000         6.829428368243780E-063
   105.455700000000         8.258744945818983E-063
   105.695100000000         8.833066704224122E-063
   105.934500000000         7.986195308533083E-063
   106.173900000000         5.131574860817832E-063
   106.413300000000        -2.337220338202676E-064
   106.652700000000        -8.387285413451288E-063
   106.892100000000        -1.921010675280327E-062
   107.131500000000        -3.200388615253862E-062
   107.370900000000        -4.532651832492719E-062
   107.610300000000        -5.688693963729203E-062
   107.849700000000        -6.354996690493406E-062
   108.089100000000        -6.150618431680585E-062
   108.328500000000        -4.665796165450236E-062
   108.567900000000        -1.525687831733797E-062
   108.807300000000         3.520267948388114E-062
   109.046700000000         1.048756413079889E-061
   109.286100000000         1.903478739803115E-061
   109.525500000000         2.834838919600386E-061
   109.764900000000         3.705924775895780E-061
   110.004300000000         4.322265480036106E-061
   110.243700000000         4.439698880773867E-061
   110.483100000000         3.785507226002185E-061
   110.722500000000         2.095390428657556E-061
   110.961900000000        -8.328744712138911E-062
   111.201300000000        -5.070957078506403E-061
   111.440700000000        -1.048223742533340E-060
   111.680100000000        -1.664479905833837E-060
   111.919500000000        -2.278984716700519E-060
   112.158900000000        -2.777448010063551E-060
   112.398300000000        -3.011048575561145E-060
   112.637700000000        -2.807086719914779E-060
   112.877100000000        -1.989182922001642E-060
   113.116500000000        -4.078815119077415E-061
   113.355900000000         2.018988447635250E-060
   113.595300000000         5.258943730409231E-060
   113.834700000000         9.115805296732025E-060
   114.074100000000         1.318714838880587E-059
   114.313500000000         1.683906999414335E-059
   114.552900000000         1.921103093031900E-059
   114.792300000000         1.926403960018593E-059
   115.031700000000         1.588378053395488E-059
   115.271100000000         8.045750748557031E-060
   115.510500000000        -4.958451804526773E-060
   115.749900000000        -2.324596109836223E-059
   115.989300000000        -4.604532955323412E-059
   116.228700000000        -7.142008620379242E-059
   116.468100000000        -9.607220213920797E-059
   116.707500000000        -1.152972543986096E-058
   116.946900000000        -1.231688130570850E-058
   117.186300000000        -1.130240929297105E-058
   117.425700000000        -7.830213725418926E-059
   117.665100000000        -1.374656375961560E-059
   117.904500000000         8.307410150503663E-059
   118.143900000000         2.100526302791042E-058
   118.383300000000         3.588497177613780E-058
   118.622700000000         5.135270324661241E-058
   118.862100000000         6.498920434239341E-058
   119.101500000000         7.359869906813805E-058
   119.340900000000         7.341465865464954E-058
   119.580300000000         6.049637909688532E-058
   119.819700000000         3.133212737353555E-058
   120.059100000000        -1.636425095999699E-058
   120.298500000000        -8.271557478452219E-058
   120.537900000000        -1.647019662163300E-057
   120.777300000000        -2.552900017253126E-057
   121.016700000000        -3.428671218819426E-057
   121.256100000000        -4.112110188585534E-057
   121.495500000000        -4.402315245652588E-057
   121.734900000000        -4.076930658392182E-057
   121.974300000000        -2.920481951534505E-057
   122.213700000000        -7.637983566455388E-058
   122.453100000000         2.467391258667366E-057
   122.692500000000         6.698970300333566E-057
   122.931900000000         1.165698085750329E-056
   123.171300000000         1.682772381630564E-056
   123.410700000000         2.144101229177175E-056
   123.650100000000         2.448918235032573E-056
   123.889500000000         2.479377665118660E-056
   124.128900000000         2.112884817050035E-056
   124.368300000000         1.240413491092007E-056
   124.607700000000        -2.097243428190294E-057
   124.847100000000        -2.244318330068759E-056
   125.086500000000        -4.776886482038580E-056
   125.325900000000        -7.602830743831606E-056
   125.565300000000        -1.038367023087765E-055
   125.804700000000        -1.264668747277983E-055
   126.044100000000        -1.380638883247437E-055
   126.283500000000        -1.321322297296782E-055
   126.522900000000        -1.023276483154551E-055
   126.762300000000        -4.354908044824594E-056
   127.001700000000         4.672458912631090E-056
   127.241100000000         1.669702472129915E-055
   127.480500000000         3.102139978229259E-055
   127.719900000000         4.629326743761299E-055
   127.959300000000         6.045643697605402E-055
   128.198700000000         7.079511544033704E-055
   128.438100000000         7.410161923630465E-055
   128.677500000000         6.698996980580801E-055
   128.916900000000         4.636337760121808E-055
   129.156300000000         1.002221821531358E-055
   129.395700000000        -4.262855512390393E-055
   129.635100000000        -1.098455652240465E-054
   129.874500000000        -1.868925496397382E-054
   130.113900000000        -2.655999160715408E-054
   130.353300000000        -3.342916437349286E-054
   130.592700000000        -3.782345889566892E-054
   130.832100000000        -3.807432200856644E-054
   131.071500000000        -3.250213735086186E-054
   131.310900000000        -1.967386325483752E-054
   131.550300000000         1.277685748738947E-055
   131.789700000000         3.029888832643764E-054
   132.029100000000         6.606617051261698E-054
   132.268500000000         1.056990737927016E-053
   132.507900000000         1.446037812591571E-053
   132.747300000000         1.765210765804668E-053
   132.986700000000         1.938491571181871E-053
   133.226100000000         1.882959582371895E-053
   133.465500000000         1.518855428806896E-053
   133.704900000000         7.829796373277317E-054
   133.944300000000        -3.553683510552693E-054
   134.183700000000        -1.877390916137062E-053
   134.423100000000        -3.698927108909965E-053
   134.662500000000        -5.658559901435947E-053
   134.901900000000        -7.512983638808236E-053
   135.141300000000        -8.943034809964032E-053
   135.380700000000        -9.573430478549001E-053
   135.620100000000        -9.008307134725013E-053
   135.859500000000        -6.883036472196350E-053
   136.098900000000        -2.930516402784798E-053
   136.338300000000         2.942700754746929E-053
   136.577700000000         1.057825023017324E-052
   136.817100000000         1.949671999521545E-052
   137.056500000000         2.885093404210088E-052
   137.295900000000         3.741690959964839E-052
   137.535300000000         4.363750382758297E-052
   137.774700000000         4.573133687789044E-052
   138.014100000000         4.187440734765236E-052
   138.253500000000         3.045369703958284E-052
   138.492900000000         1.038115430463041E-052
   138.732300000000        -1.855662084067651E-052