  -1.79550000000000         0.000000000000000E+000
  -1.55610000000000         0.000000000000000E+000
  -1.31670000000000         0.000000000000000E+000
  -1.07730000000000         0.000000000000000E+000
 -0.837900000000000         0.000000000000000E+000
 -0.598500000000000         0.000000000000000E+000
 -0.359100000000000         0.000000000000000E+000
 -0.119700000000000         0.000000000000000E+000
  0.119700000000000         0.000000000000000E+000
  0.359100000000000         0.000000000000000E+000
  0.598500000000000         0.000000000000000E+000
  0.837900000000000         0.000000000000000E+000
   1.07730000000000         0.000000000000000E+000
   1.31670000000000         0.000000000000000E+000
   1.55610000000000         0.000000000000000E+000
   1.79550000000000         0.000000000000000E+000
   2.03490000000000         0.000000000000000E+000
   2.27430000000000         0.000000000000000E+000
   2.51370000000000         0.000000000000000E+000
   2.75310000000000         0.000000000000000E+000
   2.99250000000000         0.000000000000000E+000
   3.23190000000000         0.000000000000000E+000
   3.47130000000000         0.000000000000000E+000
   3.71070000000000         0.000000000000000E+000
   3.95010000000000         0.000000000000000E+000
   4.18950000000000         0.000000000000000E+000
   4.42890000000000         0.000000000000000E+000
   4.66830000000000         0.000000000000000E+000
   4.90770000000000         0.000000000000000E+000
   5.14710000000000         0.000000000000000E+000
   5.38650000000000         0.000000000000000E+000
   5.62590000000000         0.000000000000000E+000
   5.86530000000000         0.000000000000000E+000
   6.10470000000000         0.000000000000000E+000
   6.34410000000000         0.000000000000000E+000
   6.58350000000000         0.000000000000000E+000
   6.82290000000000         0.000000000000000E+000
   7.06230000000000         0.000000000000000E+000
   7.30170000000000         0.000000000000000E+000
   7.54110000000000         0.000000000000000E+000
   7.78050000000000         0.000000000000000E+000
   8.01990000000000         0.000000000000000E+000
   8.25930000000000         0.000000000000000E+000
   8.49870000000000        -2.865543384280070E-176
   8.73810000000000        -1.531879751357624E-164
   8.97750000000000         6.899574687788622E-162
   9.21690000000000        -3.616322408514422E-160
   9.45630000000000         6.707715958944191E-158
   9.69570000000000         6.719206495902623E-156
   9.93510000000000         2.721014035954085E-154
   10.1745000000000         6.817150266839456E-153
   10.4139000000000         1.210678555757298E-151
   10.6533000000000         1.615624929595686E-150
   10.8927000000000         1.643651586856443E-149
   11.1321000000000         1.219921278844048E-148
   11.3715000000000         5.043776081798853E-148
   11.6109000000000        -2.202843316700660E-147
   11.8503000000000        -7.197983606504082E-146
   12.0897000000000        -9.096398449471251E-145
   12.3291000000000        -8.452015294224356E-144
   12.5685000000000        -6.464231830841916E-143
   12.8079000000000        -4.237882987743802E-142
   13.0473000000000        -2.421301925282373E-141
   13.2867000000000        -1.209928060091569E-140
   13.5261000000000        -5.245012758528429E-140
   13.7655000000000        -1.923339856225718E-139
   14.0049000000000        -5.605668692049360E-139
   14.2443000000000        -1.077972756732901E-138
   14.4837000000000        -2.245995758504232E-139
   14.7231000000000         3.229449400716885E-138
   14.9625000000000        -5.771023452617876E-137
   15.2019000000000        -9.589079374565942E-136
   15.4413000000000        -8.542897675390187E-135
   15.6807000000000        -5.854380725599478E-134
   15.9201000000000        -3.417427073152753E-133
   16.1595000000000        -1.777993849459943E-132
   16.3989000000000        -8.450398224343219E-132
   16.6383000000000        -3.724895281464329E-131
   16.8777000000000        -1.538227673002186E-130
   17.1171000000000        -5.993609745777400E-130
   17.3565000000000        -2.215105604541438E-129
   17.5959000000000        -7.795935542390025E-129
   17.8353000000000        -2.620916539418760E-128
   18.0747000000000        -8.437373706682973E-128
   18.3141000000000        -2.605965637781767E-127
   18.5535000000000        -7.733899862761370E-127
   18.7929000000000        -2.208044913364743E-126
   19.0323000000000        -6.069758541944205E-126
   19.2717000000000        -1.607411998429304E-125
   19.5111000000000        -4.101641954364227E-125
   19.7505000000000        -1.008183111874438E-124
   19.9899000000000        -2.384704421303886E-124
   20.2293000000000        -5.415896512658204E-124
   20.4687000000000        -1.175654347755142E-123
   20.7081000000000        -2.417079713668267E-123
   20.9475000000000        -4.615749084411599E-123
   21.1869000000000        -7.810294937872486E-123
   21.4263000000000        -1.005073707660324E-122
   21.6657000000000        -1.429552839753542E-123
   21.9051000000000         5.521383988805954E-122
   22.1445000000000         2.829774124491376E-121
   22.3839000000000         1.061120158028816E-120
   22.6233000000000         3.498524041400323E-120
   22.8627000000000         1.069871551711778E-119
   23.1021000000000         3.100704038255062E-119
   23.3415000000000         8.601171303336979E-119
   23.5809000000000         2.294384559449550E-118
   23.8203000000000         5.898109540313448E-118
   24.0597000000000         1.462201641306470E-117
   24.2991000000000         3.495130446725913E-117
   24.5385000000000         8.047791405708769E-117
   24.7779000000000         1.782012047425246E-116
   25.0173000000000         3.784428479957378E-116
   25.2567000000000         7.676169167151204E-116
   25.4961000000000         1.477383402991846E-115
   25.7355000000000         2.668591530317212E-115
   25.9749000000000         4.433848402178556E-115
   26.2143000000000         6.491586098231827E-115
   26.4537000000000         7.412179649721091E-115
   26.6931000000000         2.893571761445693E-115
   26.9325000000000        -1.772768204373996E-114
   27.1719000000000        -7.794546718311076E-114
   27.4113000000000        -2.250237239220592E-113
   27.6507000000000        -5.464816003654309E-113
   27.8901000000000        -1.190755884224794E-112
   28.1295000000000        -2.383340086810969E-112
   28.3689000000000        -4.411756962587513E-112
   28.6083000000000        -7.513320248261700E-112
   28.8477000000000        -1.151924861243426E-111
   29.0871000000000        -1.495433980433815E-111
   29.3265000000000        -1.301277234960035E-111
   29.5659000000000         6.635345922924899E-112
   29.8053000000000         7.194608656966648E-111
   30.0447000000000         2.410757009271402E-110
   30.2841000000000         6.264005275284424E-110
   30.5235000000000         1.429278454977267E-109
   30.7629000000000         2.978899594365333E-109
   31.0023000000000         5.745270261743730E-109
   31.2417000000000         1.024016494114784E-108
   31.4811000000000         1.660085932381908E-108
   31.7205000000000         2.342651680738483E-108
   31.9599000000000         2.506102302880499E-108
   32.1993000000000         5.983525838217760E-109
   32.4387000000000        -6.957895347330070E-108
   32.6781000000000        -2.747476287024276E-107
   32.9175000000000        -7.439702996601068E-107
   33.1569000000000        -1.697774376281492E-106
   33.3963000000000        -3.446452897286399E-106
   33.6357000000000        -6.317961252135853E-106
   33.8751000000000        -1.039551294057816E-105
   34.1145000000000        -1.485592653998352E-105
   34.3539000000000        -1.657627574996081E-105
   34.5933000000000        -7.566943960438909E-106
   34.8327000000000         2.918167032816160E-105
   35.0721000000000         1.254098068462263E-104
   35.3115000000000         3.334635734451482E-104
   35.5509000000000         7.278401006095841E-104
   35.7903000000000         1.391974760078331E-103
   36.0297000000000         2.370011296810524E-103
   36.2691000000000         3.549401664815506E-103
   36.5085000000000         4.424839494171897E-103
   36.7479000000000         3.685997738423344E-103
   36.9873000000000        -1.409126431257658E-103
   37.2267000000000        -1.582890614005571E-102
   37.4661000000000        -4.747340538304695E-102
   37.7055000000000        -1.071113119363127E-101
   37.9449000000000        -2.061483398009040E-101
   38.1843000000000        -3.497648886640209E-101
   38.4237000000000        -5.216757225405028E-101
   38.6631000000000        -6.557315899568633E-101
   38.9025000000000        -5.899329035665782E-101
   39.1419000000000        -2.318833920997614E-103
   39.3813000000000         1.660847324950928E-100
   39.6207000000000         5.231259277521518E-100
   39.8601000000000         1.176546758954076E-099
   40.0995000000000         2.225768375737341E-099
   40.3389000000000         3.690547874777146E-099
   40.5783000000000         5.364055495574034E-099
   40.8177000000000         6.561621818185852E-099
   41.0571000000000         5.747550603000402E-099
   41.2965000000000         6.712582217739040E-101
   41.5359000000000        -1.508998988322527E-098
   41.7753000000000        -4.618903019697983E-098
   42.0147000000000        -1.007256916061766E-097
   42.2541000000000        -1.845174444902002E-097
   42.4935000000000        -2.957522513305919E-097
   42.7329000000000        -4.142017820115593E-097
   42.9723000000000        -4.843055546554893E-097
   43.2117000000000        -3.922835764027606E-097
   43.4511000000000         5.907646777614258E-098
   43.6905000000000         1.167725757511619E-096
   43.9299000000000         3.320921166579097E-096
   44.1693000000000         6.919501665311736E-096
   44.4087000000000         1.218539657514147E-095
   44.6481000000000         1.878643578931901E-095
   44.8875000000000         2.521426824657567E-095
   45.1269000000000         2.788809204303371E-095
   45.3663000000000         2.005825992417187E-095
   45.6057000000000        -9.213863912147589E-096
   45.8451000000000        -7.538498288906008E-095
   46.0845000000000        -1.969636154887259E-094
   46.3239000000000        -3.905428914581770E-094
   46.5633000000000        -6.600578774501210E-094
   46.8027000000000        -9.777725693423380E-094
   47.0421000000000        -1.255187464323472E-093
   47.2815000000000        -1.304493665711453E-093
   47.5209000000000        -7.964785058117238E-094
   47.7603000000000         7.699363223496214E-094
   47.9997000000000         4.057319170261478E-093
   48.2391000000000         9.791033550224745E-093
   48.4785000000000         1.850526565217458E-092
   48.7179000000000         3.005350667928122E-092
   48.9573000000000         4.280970508823027E-092
   49.1967000000000         5.253395309460095E-092
   49.4361000000000         5.099434987568616E-092
   49.6755000000000         2.465743171092450E-092
   49.9149000000000        -4.588981723296488E-092
   50.1543000000000        -1.846406937041203E-091
   50.3937000000000        -4.152845599405296E-091
   50.6331000000000        -7.505378486410042E-091
   50.8725000000000        -1.173362325911602E-090
   51.1119000000000        -1.608460272147025E-090
   51.3513000000000        -1.884680665093031E-090
   51.5907000000000        -1.693563001013829E-090
   51.8301000000000        -5.569624200277160E-091
   52.0695000000000         2.172103384440404E-090
   52.3089000000000         7.237258290707652E-090
   52.5483000000000         1.528294446314217E-089
   52.7877000000000         2.647402251419449E-089
   53.0271000000000         3.987636858487256E-089
   53.2665000000000         5.258008117388600E-089
   53.5059000000000         5.863066675939333E-089
   53.7453000000000         4.798402007852857E-089
   53.9847000000000         5.931113810132817E-090
   54.2241000000000        -8.625670211906837E-089
   54.4635000000000        -2.483707623395659E-088
   54.7029000000000        -4.946267667513473E-088
   54.9423000000000        -8.219340814573771E-088
   55.1817000000000        -1.192128826447183E-087
   55.4211000000000        -1.508562987259489E-087
   55.6605000000000        -1.590050824081697E-087
   55.8999000000000        -1.149392677564164E-087
   56.1393000000000         2.104055452638551E-088
   56.3787000000000         2.962023257327983E-087
   56.6181000000000         7.554851364551764E-087
   56.8575000000000         1.422057175384678E-086
   57.0969000000000         2.265691284640382E-086
   57.3363000000000         3.158165666066380E-086
   57.5757000000000         3.818931575845627E-086
   57.8151000000000         3.761233914028046E-086
   58.0545000000000         2.259089742161445E-086
   58.2939000000000        -1.631457003663571E-086
   58.5333000000000        -8.949570618400461E-086
   58.7727000000000        -2.054776264294496E-085
   59.0121000000000        -3.659368218353222E-085
   59.2515000000000        -5.581976689243662E-085
   59.4909000000000        -7.454057472518732E-085
   59.7303000000000        -8.556076865684976E-085
   59.9697000000000        -7.725671866660196E-085
   60.2091000000000        -3.332943653783351E-085
   60.4485000000000         6.602757257577279E-085
   60.6879000000000         2.405823630147986E-084
   60.9273000000000         5.030868977968880E-084
   61.1667000000000         8.480079544112299E-084
   61.4061000000000         1.235787028932978E-083
   61.6455000000000         1.573838212227724E-083
   61.8849000000000         1.697773019754782E-083
   62.1243000000000         1.359556747989950E-083
   62.3637000000000         2.332128352586502E-084
   62.6031000000000        -2.047401865282041E-083
   62.8425000000000        -5.801675073339430E-083
   63.0819000000000        -1.115001849649456E-082
   63.3213000000000        -1.778747704982896E-082
   63.5607000000000        -2.469127215126690E-082
   63.8001000000000        -2.980013474929095E-082
   64.0395000000000        -2.974735149816721E-082
   64.2789000000000        -1.978592911512997E-082
   64.5183000000000         5.894610289123258E-083
   64.7577000000000         5.321086117584800E-082
   64.9971000000000         1.263278293023109E-081
   65.2365000000000         2.247068664013726E-081
   65.4759000000000         3.390536061442649E-081
   65.7153000000000         4.465173245856312E-081
   65.9547000000000         5.060496115500550E-081
   66.1941000000000         4.555780363496639E-081
   66.4335000000000         2.135117362951477E-081
   66.6729000000000        -3.121120033158433E-081
   66.9123000000000        -1.203125802191501E-080
   67.1517000000000        -2.496107397716350E-080
   67.3911000000000        -4.131251697959376E-080
   67.6305000000000        -5.887811424570733E-080
   67.8699000000000        -7.315185608021439E-080
   68.1093000000000        -7.677883076409823E-080
   68.3487000000000        -5.943686622653302E-080
   68.5881000000000        -8.554991369449095E-081
   68.8275000000000         8.864933819392945E-080
   69.0669000000000         2.413428846930232E-079
   69.3063000000000         4.491559089923978E-079
   69.5457000000000         6.942685015988911E-079
   69.7851000000000         9.323117043333955E-079
   70.0245000000000         1.083931011100034E-078
   70.2639000000000         1.030180508525915E-078
   70.5033000000000         6.163357238079080E-079
   70.7427000000000        -3.301283157078159E-079
   70.9821000000000        -1.961321962999060E-078
   71.2215000000000        -4.345700338783304E-078
   71.4609000000000        -7.378804159003600E-078
   71.7003000000000        -1.067415008463907E-077
   71.9397000000000        -1.345146773432317E-077
   72.1791000000000        -1.445409419419247E-077
   72.4185000000000        -1.194393144841537E-077
   72.6579000000000        -3.837471589250080E-078
   72.8973000000000         1.194576231378767E-077
   73.1367000000000         3.685851143216179E-077
   73.3761000000000         7.079358256643299E-077
   73.6155000000000         1.108804893644637E-076
   73.8549000000000         1.501567312895073E-076
   74.0943000000000         1.764106505701889E-076
   74.3337000000000         1.716727703130143E-076
   74.5731000000000         1.130099623641627E-076
   74.8125000000000        -2.460287954370772E-077
   75.0519000000000        -2.625751267973481E-076
   75.2913000000000        -6.096500965845631E-076
   75.5307000000000        -1.049598487423847E-075
   75.7701000000000        -1.526760087446935E-075
   76.0095000000000        -1.932004632995969E-075
   76.2489000000000        -2.093506339937049E-075
   76.4883000000000        -1.778644406058305E-075
   76.7277000000000        -7.148670267427878E-076
   76.9671000000000         1.362245037029379E-075
   77.2065000000000         4.627159167474833E-075
   77.4459000000000         9.047071766438128E-075
   77.6853000000000         1.423621663358724E-074
   77.9247000000000         1.930230056254483E-074
   78.1641000000000         2.272291510396106E-074
   78.4035000000000         2.230905916373699E-074
   78.6429000000000         1.533005810747205E-074
   78.8823000000000        -1.117226751656398E-075
   79.1217000000000        -2.942054584109559E-074
   79.3611000000000        -7.040705176125578E-074
   79.6005000000000        -1.219741927853741E-073
   79.8399000000000        -1.775448026840141E-073
   80.0793000000000        -2.246498234052253E-073
   80.3187000000000        -2.441238088982369E-073
   80.5581000000000        -2.105746377691837E-073
   80.7975000000000        -9.490703977847970E-074
   81.0369000000000         1.303339224329408E-073
   81.2763000000000         4.822670227841311E-073
   81.5157000000000         9.556381693579865E-073
   81.7551000000000         1.508375518026671E-072
   81.9945000000000         2.046978266115776E-072
   82.2339000000000         2.415590400464945E-072
   82.4733000000000         2.394290757092522E-072
   82.7127000000000         1.713475569890678E-072
   82.9521000000000         9.162668780611693E-074
   83.1915000000000        -2.697498223889987E-072
   83.4309000000000        -6.725950828271401E-072
   83.6703000000000        -1.178554357972108E-071
   83.9097000000000        -1.724961315353556E-071
   84.1491000000000        -2.195094066729048E-071
   84.3885000000000        -2.411911566994417E-071
   84.6279000000000        -2.143420612852240E-071
   84.8673000000000        -1.126132159746575E-071
   85.1067000000000         8.873385924508182E-072
   85.3461000000000         4.052729450144779E-071
   85.5855000000000         8.331589418279036E-071
   85.8249000000000         1.337031717796946E-070
   86.0643000000000         1.837981085338910E-070
   86.3037000000000         2.204717352227182E-070
   86.5431000000000         2.252338165202538E-070
   86.7825000000000         1.754017444269997E-070
   87.0219000000000         4.711258485417658E-071
   87.2613000000000        -1.793807122951341E-070
   87.5007000000000        -5.119807686900733E-070
   87.7401000000000        -9.369556501341002E-070
   87.9795000000000        -1.408216560395584E-069
   88.2189000000000        -1.837753250536585E-069
   88.4583000000000        -2.090367084082797E-069
   88.6977000000000        -1.986776136836111E-069
   88.9371000000000        -1.319680622977419E-069
   89.1765000000000         1.129207600429904E-070
   89.4159000000000         2.454416347585764E-069
   89.6553000000000         5.716707533866455E-069
   89.8947000000000         9.693281870047665E-069
   90.1341000000000         1.387061738130606E-068
   90.3735000000000         1.735843274194126E-068
   90.6129000000000         1.886748098062143E-068
   90.8523000000000         1.676987641618159E-068
   91.0917000000000         9.278678348402602E-069
   91.3311000000000        -5.222555586706669E-069
   91.5705000000000        -2.768654354204081E-068
   91.8099000000000        -5.776227800605608E-068
   92.0493000000000        -9.307025189892947E-068
   92.2887000000000        -1.285125637355450E-067
   92.5281000000000        -1.558016621676045E-067
   92.7675000000000        -1.634508664869887E-067
   93.0069000000000        -1.375077618341185E-067
   93.2463000000000        -6.330662690307385E-068
   93.4857000000000         7.155589889378387E-068
   93.7251000000000         2.729793323339426E-067
   93.9645000000000         5.350759649371613E-067
   94.2039000000000         8.344407686072560E-067
   94.4433000000000         1.125021722184106E-066
   94.6827000000000         1.335114009101441E-066
   94.9221000000000         1.368408140768651E-066
   95.1615000000000         1.111226970766375E-066
   95.4009000000000         4.479282245703676E-067
   95.6403000000000        -7.142439333916007E-067
   95.8797000000000        -2.410951329454651E-066
   96.1191000000000        -4.579431234611087E-066
   96.3585000000000        -7.015134567559919E-066
   96.5979000000000        -9.334773228658384E-066
   96.8373000000000        -1.095759150399787E-065
   97.0767000000000        -1.111934986679697E-065
   97.3161000000000        -8.934506391919102E-066
   97.5555000000000        -3.520254702014778E-066
   97.7949000000000         5.809734380113646E-066
   98.0343000000000         1.928475209548476E-065
   98.2737000000000         3.636859042756437E-065
   98.5131000000000         5.544288380715952E-065
   98.7525000000000         7.354562653357637E-065
   98.9919000000000         8.625130122776275E-065
   99.2313000000000         8.779627211626427E-065
   99.4707000000000         7.155766699340352E-065
   99.7101000000000         3.097812929193866E-065
   99.9495000000000        -3.901502928190298E-065
   100.188900000000        -1.401253499999897E-064
   100.428300000000        -2.684795764071904E-064
   100.667700000000        -4.123827711074301E-064
   100.907100000000        -5.504829754449271E-064
   101.146500000000        -6.509457394908911E-064
   101.385900000000        -6.723495890279842E-064
   101.625300000000        -5.670362233040584E-064
   101.864700000000        -2.875333674046177E-064
   102.104100000000         2.036346619707323E-064
   102.343500000000         9.209587124773935E-064
   102.582900000000         1.840744429634624E-063
   102.822300000000         2.885617020443333E-063
   103.061700000000         3.911704956187507E-063
   103.301100000000         4.702478970306082E-063
   103.540500000000         4.973942621847210E-063
   103.779900000000         4.396020240717760E-063
   104.019300000000         2.634248107942918E-063
   104.258700000000        -5.860575863547802E-064
   104.498100000000        -5.394325571763177E-063
   104.737500000000        -1.167391960668317E-062
   104.976900000000        -1.895801517607770E-062
   105.216300000000        -2.634091405429651E-062
   105.455700000000        -3.242998142125892E-062
   105.695100000000        -3.536812443490920E-062
   105.934500000000        -3.295800349394882E-062
   106.173900000000        -2.291502134409660E-062
   106.413300000000        -3.264704427553513E-063
   106.652700000000         2.711999676492802E-062
   106.892100000000         6.787508123211032E-062
   107.131500000000         1.164661143052525E-061
   107.370900000000         1.675852438341249E-061
   107.610300000000         2.127772751007528E-061
   107.849700000000         2.404786559468162E-061
   108.089100000000         2.366646930945585E-061
   108.328500000000         1.862804034522581E-061
   108.567900000000         7.556779012673295E-062
   108.807300000000        -1.047116378338041E-061
   109.046700000000        -3.553287420435007E-061
   109.286100000000        -6.643000289948098E-061
   109.525500000000        -1.002898230268615E-060
   109.764900000000        -1.322845143780175E-060
   110.004300000000        -1.555774692463907E-060
   110.243700000000        -1.616151824433886E-060
   110.483100000000        -1.408757694049943E-060
   110.722500000000        -8.415364179450452E-061
   110.961900000000         1.560105654738510E-061
   111.201300000000         1.609625186475745E-060
   111.440700000000         3.474257760940881E-060
   111.680100000000         5.608604395206195E-060
   111.919500000000         7.755111915771122E-060
   112.158900000000         9.531633024422468E-060
   112.398300000000         1.044167744874206E-059
   112.637700000000         9.910065051685659E-060
   112.877100000000         7.349356547168897E-060
   113.116500000000         2.259385408952286E-060
   113.355900000000        -5.642649129845493E-060
   113.595300000000        -1.627069439765528E-059
   113.834700000000        -2.901413107351318E-059
   114.074100000000        -4.260357764107537E-059
   114.313500000000        -5.503183369666867E-059
   114.552900000000        -6.356905534397220E-059
   114.792300000000        -6.491227657494498E-059
   115.031700000000        -5.550379237390670E-059
   115.271100000000        -3.203874162910164E-059
   115.510500000000         7.841846728092721E-060
   115.749900000000         6.471041323465336E-059
   115.989300000000         1.364451611519528E-058
   116.228700000000         2.173833053074918E-058
   116.468100000000         2.977094763481286E-058
   116.707500000000         3.632897387276260E-058
   116.946900000000         3.961773960576036E-058
   117.186300000000         3.760002565113162E-058
   117.425700000000         2.823791600124718E-058
   117.665100000000         9.841584305062965E-059
   117.904500000000        -1.848785742162945E-058
   118.143900000000        -5.635601805143122E-058
   118.383300000000        -1.015731272206777E-057
   118.622700000000        -1.497377224642176E-057
   118.862100000000        -1.940140149347842E-057
   119.101500000000        -2.252244205619773E-057
   119.340900000000        -2.323775607055643E-057
   119.580300000000        -2.037300053098746E-057
   119.819700000000        -1.284320528388005E-057
   120.059100000000         1.268946210581586E-059
   120.298500000000         1.873990182743014E-057
   120.537900000000         4.234600282490370E-057
   120.777300000000         6.918596328943447E-057
   121.016700000000         9.620928863290290E-057
   121.256100000000         1.190294883518607E-056
   121.495500000000         1.320815828043852E-056
   121.734900000000         1.290407186626512E-056
   121.974300000000         1.035421416212786E-056
   122.213700000000         5.020980564756128E-057
   122.453100000000        -3.404687793633782E-057
   122.692500000000        -1.485694298661123E-056
   122.931900000000        -2.874902225246710E-056
   123.171300000000        -4.385158283844515E-056
   123.410700000000        -5.822523823832861E-056
   123.650100000000        -6.924054392959903E-056
   123.889500000000        -7.371803662553449E-056
   124.128900000000        -6.821473148882454E-056
   124.368300000000        -4.947049849936966E-056
   124.607700000000        -1.500735371471870E-056
   124.847100000000         3.615275343731608E-056
   125.086500000000         1.027189925073567E-055
   125.325900000000         1.804141349762040E-055
   125.565300000000         2.614439185691861E-055
   125.804700000000         3.343129930466686E-055
   126.044100000000         3.841555079498020E-055
   126.283500000000         3.937332819711705E-055
   126.522900000000         3.452090764164566E-055
   126.762300000000         2.227221313410985E-055
   127.001700000000         1.567690504969175E-056
   127.241100000000        -2.774916890445828E-055
   127.480500000000        -6.454812187855978E-055
   127.719900000000        -1.060787187205484E-054
   127.959300000000        -1.477590687511141E-054
   128.198700000000        -1.831676727426223E-054
   128.438100000000        -2.043188235031547E-054
   128.677500000000        -2.022890187044102E-054
   128.916900000000        -1.682332321273831E-054
   129.156300000000        -9.478427085434768E-055
   129.395700000000         2.223358360547967E-055
   129.635100000000         1.819205008032136E-054
   129.874500000000         3.764718190196812E-054
   130.113900000000         5.897062895183425E-054
   130.353300000000         7.963148001230836E-054
   130.592700000000         9.622196709563001E-054
   130.832100000000         1.046412080591647E-053
   131.071500000000         1.004547820695304E-053
   131.310900000000         7.944185492540512E-054
   131.550300000000         3.831737384769620E-054
   131.789700000000        -2.441448298907853E-054
   132.029100000000        -1.075557614468338E-053
   132.268500000000        -2.063769310297059E-053
   132.507900000000        -3.119974580616296E-053
   132.747300000000        -4.111597224141170E-053
   132.986700000000        -4.865767682285412E-053
   133.226100000000        -5.180147090456704E-053
   133.465500000000        -4.842194954518347E-053
   133.704900000000        -3.657114137263886E-053
   133.944300000000        -1.483492602244539E-053
   134.183700000000         1.725849057895495E-053
   134.423100000000         5.881983065189522E-053
   134.662500000000         1.072282858849431E-052
   134.901900000000         1.578820219298884E-052
   135.141300000000         2.041507324699836E-052
   135.380700000000         2.376107278208346E-052
   135.620100000000         2.486302887502552E-052
   135.859500000000         2.273456535672595E-052
   136.098900000000         1.650248733191087E-052
   136.338300000000         5.575862666434466E-053
   136.577700000000        -1.016528186671819E-052
   136.817100000000        -3.018228448622939E-052
   137.056500000000        -5.311903109523496E-052
   137.295900000000        -7.670550854673751E-052
   137.535300000000        -9.776001094379887E-052
   137.774700000000        -1.123247241409629E-051
   138.014100000000        -1.159622386965490E-051
   138.253500000000        -1.042268315444037E-051
   138.492900000000        -7.330382961329452E-052
   138.732300000000        -2.078363896394302E-052