  -1.79550000000000         0.000000000000000E+000
  -1.55610000000000         0.000000000000000E+000
  -1.31670000000000         0.000000000000000E+000
  -1.07730000000000         0.000000000000000E+000
 -0.837900000000000         0.000000000000000E+000
 -0.598500000000000         0.000000000000000E+000
 -0.359100000000000         0.000000000000000E+000
 -0.119700000000000         0.000000000000000E+000
  0.119700000000000         0.000000000000000E+000
  0.359100000000000         0.000000000000000E+000
  0.598500000000000         0.000000000000000E+000
  0.837900000000000         0.000000000000000E+000
   1.07730000000000         0.000000000000000E+000
   1.31670000000000         0.000000000000000E+000
   1.55610000000000         0.000000000000000E+000
   1.79550000000000         0.000000000000000E+000
   2.03490000000000         0.000000000000000E+000
   2.27430000000000         0.000000000000000E+000
   2.51370000000000         0.000000000000000E+000
   2.75310000000000         0.000000000000000E+000
   2.99250000000000         0.000000000000000E+000
   3.23190000000000         0.000000000000000E+000
   3.47130000000000         0.000000000000000E+000
   3.71070000000000         0.000000000000000E+000
   3.95010000000000         0.000000000000000E+000
   4.18950000000000         0.000000000000000E+000
   4.42890000000000         0.000000000000000E+000
   4.66830000000000         0.000000000000000E+000
   4.90770000000000         0.000000000000000E+000
   5.14710000000000         0.000000000000000E+000
   5.38650000000000         0.000000000000000E+000
   5.62590000000000         0.000000000000000E+000
   5.86530000000000         0.000000000000000E+000
   6.10470000000000         0.000000000000000E+000
   6.34410000000000         0.000000000000000E+000
   6.58350000000000         0.000000000000000E+000
   6.82290000000000         0.000000000000000E+000
   7.06230000000000         0.000000000000000E+000
   7.30170000000000         0.000000000000000E+000
   7.54110000000000         0.000000000000000E+000
   7.78050000000000         0.000000000000000E+000
   8.01990000000000         0.000000000000000E+000
   8.25930000000000         0.000000000000000E+000
   8.49870000000000         0.000000000000000E+000
   8.73810000000000         0.000000000000000E+000
   8.97750000000000        -1.061849950753853E-195
   9.21690000000000        -6.121821365604618E-189
   9.45630000000000         7.285032009288750E-185
   9.69570000000000         8.495269993065344E-183
   9.93510000000000         3.444197775220409E-180
   10.1745000000000         3.160841073898079E-178
   10.4139000000000         1.560797329433911E-176
   10.6533000000000         5.251986760946287E-175
   10.8927000000000         1.341852933407597E-173
   11.1321000000000         2.768367137972281E-172
   11.3715000000000         4.798144687966047E-171
   11.6109000000000         7.181456885865791E-170
   11.8503000000000         9.471585890970479E-169
   12.0897000000000         1.117923598058657E-167
   12.3291000000000         1.195255770699892E-166
   12.5685000000000         1.169019466872548E-165
   12.8079000000000         1.054345512613262E-164
   13.0473000000000         8.827681590680830E-164
   13.2867000000000         6.900091999679592E-163
   13.5261000000000         5.059183693406073E-162
   13.7655000000000         3.493769329143107E-161
   14.0049000000000         2.280424183659580E-160
   14.2443000000000         1.411078037109122E-159
   14.4837000000000         8.298946687150286E-159
   14.7231000000000         4.649351751804898E-158
   14.9625000000000         2.485850334004841E-157
   15.2019000000000         1.270434643401018E-156
   15.4413000000000         6.214104259775560E-156
   15.6807000000000         2.911934587384878E-155
   15.9201000000000         1.308155247193533E-154
   16.1595000000000         5.635954752983232E-154
   16.3989000000000         2.328621366739586E-153
   16.6383000000000         9.222447450260680E-153
   16.8777000000000         3.497371215750416E-152
   17.1171000000000         1.267522697842360E-151
   17.3565000000000         4.376428687486158E-151
   17.5959000000000         1.432195260879125E-150
   17.8353000000000         4.404120510392850E-150
   18.0747000000000         1.253092828036685E-149
   18.3141000000000         3.197790022687100E-149
   18.5535000000000         6.770338912461081E-149
   18.7929000000000         8.615772409900415E-149
   19.0323000000000        -1.705157279659188E-148
   19.2717000000000        -1.940361143677940E-147
   19.5111000000000        -1.017144748327141E-146
   19.7505000000000        -4.254609302174891E-146
   19.9899000000000        -1.571297065434887E-145
   20.2293000000000        -5.311139090767596E-145
   20.4687000000000        -1.668238084751946E-144
   20.7081000000000        -4.896119245229255E-144
   20.9475000000000        -1.340921629342713E-143
   21.1869000000000        -3.396676912061165E-143
   21.4263000000000        -7.784606532831250E-143
   21.6657000000000        -1.527640276923204E-142
   21.9051000000000        -2.124886771615617E-142
   22.1445000000000         4.922060368320123E-143
   22.3839000000000         1.909055412118984E-141
   22.6233000000000         9.822896643548960E-141
   22.8627000000000         3.778968312473503E-140
   23.1021000000000         1.265662620089883E-139
   23.3415000000000         3.876541844211124E-139
   23.5809000000000         1.109640522983817E-138
   23.8203000000000         3.000904707425107E-138
   24.0597000000000         7.708924876931003E-138
   24.2991000000000         1.884623160240538E-137
   24.5385000000000         4.380050877179087E-137
   24.7779000000000         9.634353462353239E-137
   25.0173000000000         1.986489790930551E-136
   25.2567000000000         3.765288995852019E-136
   25.4961000000000         6.279342770278919E-136
   25.7355000000000         8.092628349089069E-136
   25.9749000000000         2.994086774408135E-136
   26.2143000000000        -2.886933576852130E-135
   26.4537000000000        -1.425843432832522E-134
   26.6931000000000        -4.776651450022044E-134
   26.9325000000000        -1.363473451476772E-133
   27.1719000000000        -3.531509128005191E-133
   27.4113000000000        -8.514127566119773E-133
   27.6507000000000        -1.933023390578258E-132
   27.8901000000000        -4.151877502760566E-132
   28.1295000000000        -8.433404597693831E-132
   28.3689000000000        -1.611068269879003E-131
   28.6083000000000        -2.856094987448053E-131
   28.8477000000000        -4.560999122446023E-131
   29.0871000000000        -6.073747184895782E-131
   29.3265000000000        -4.878641545339058E-131
   29.5659000000000         6.261682175260165E-131
   29.8053000000000         4.548745625911786E-130
   30.0447000000000         1.544164512743545E-129
   30.2841000000000         4.223085282527537E-129
   30.5235000000000         1.029896513768403E-128
   30.7629000000000         2.323969830813698E-128
   31.0023000000000         4.934733296729442E-128
   31.2417000000000         9.941187383151957E-128
   31.4811000000000         1.906290169012273E-127
   31.7205000000000         3.478499882777247E-127
   31.9599000000000         6.016201170193149E-127
   32.1993000000000         9.771953415701265E-127
   32.4387000000000         1.462617801717668E-126
   32.6781000000000         1.933309230700390E-126
   32.9175000000000         1.993451550007411E-126
   33.1569000000000         6.687536891621566E-127
   33.3963000000000        -4.149418815003578E-126
   33.6357000000000        -1.664853017707084E-125
   33.8751000000000        -4.460084546138657E-125
   34.1145000000000        -1.016009576372527E-124
   34.3539000000000        -2.101109456452915E-124
   34.5933000000000        -4.051079465224864E-124
   34.8327000000000        -7.375080932930062E-124
   35.0721000000000        -1.275356520365203E-123
   35.3115000000000        -2.098715418840673E-123
   35.5509000000000        -3.280835905990073E-123
   35.7903000000000        -4.842999976042962E-123
   36.0297000000000        -6.662525631867016E-123
   36.2691000000000        -8.301408695047729E-123
   36.5085000000000        -8.704217555197408E-123
   36.7479000000000        -5.682894272410309E-123
   36.9873000000000         4.946791060763877E-123
   37.2267000000000         3.080411929760408E-122
   37.4661000000000         8.534064914026870E-122
   37.7055000000000         1.918299777567383E-121
   37.9449000000000         3.899505973255646E-121
   38.1843000000000         7.464088184194278E-121
   38.4237000000000         1.371386923838487E-120
   38.6631000000000         2.442303236102315E-120
   38.9025000000000         4.234248168043576E-120
   39.1419000000000         7.150183716025277E-120
   39.3813000000000         1.172945628013376E-119
   39.6207000000000         1.858383320469819E-119
   39.8601000000000         2.815683670584031E-119
   40.0995000000000         4.011333118038968E-119
   40.3389000000000         5.203203605504557E-119
   40.5783000000000         5.689269581738703E-119
   40.8177000000000         3.864481769599059E-119
   41.0571000000000        -3.501131316999653E-119
   41.2965000000000        -2.234467907258164E-118
   41.5359000000000        -6.277779149317250E-118
   41.7753000000000        -1.408055262334945E-117
   42.0147000000000        -2.798272145630038E-117
   42.2541000000000        -5.108350925985275E-117
   42.4935000000000        -8.692171356736475E-117
   42.7329000000000        -1.384565513421620E-116
   42.9723000000000        -2.057869422671988E-116
   43.2117000000000        -2.818097178309997E-116
   43.4511000000000        -3.447972231051042E-116
   43.6905000000000        -3.467841069051080E-116
   43.9299000000000        -1.968927338337792E-116
   44.1693000000000         2.603815996742841E-116
   44.4087000000000         1.269891118061835E-115
   44.6481000000000         3.187766155325648E-115
   44.8875000000000         6.488498283109000E-115
   45.1269000000000         1.173557166030738E-114
   45.3663000000000         1.948060098877613E-114
   45.6057000000000         3.003855897609244E-114
   45.8451000000000         4.306651737637909E-114
   46.0845000000000         5.685378079953834E-114
   46.3239000000000         6.721962176327582E-114
   46.5633000000000         6.592458258111917E-114
   46.8027000000000         3.855579820165830E-114
   47.0421000000000        -3.801641776599726E-114
   47.2815000000000        -1.982375074929820E-113
   47.5209000000000        -4.896546934528591E-113
   47.7603000000000        -9.722053660449212E-113
   47.9997000000000        -1.712076423624403E-112
   48.2391000000000        -2.765449493900221E-112
   48.4785000000000        -4.145227365976897E-112
   48.7179000000000        -5.761463235677661E-112
   48.9573000000000        -7.324512687353809E-112
   49.1967000000000        -8.200580452773373E-112
   49.4361000000000        -7.215283210918721E-112
   49.6755000000000        -2.416660082458695E-112
   49.9149000000000         9.159009620137993E-112
   50.1543000000000         3.161986658765851E-111
   50.3937000000000         7.006573348184267E-111
   50.6331000000000         1.298498311152244E-110
   50.8725000000000         2.148183230524479E-110
   51.1119000000000         3.239680776324010E-110
   51.3513000000000         4.459235333021520E-110
   51.5907000000000         5.507976365854508E-110
   51.8301000000000         5.795480443827707E-110
   52.0695000000000         4.320976797960718E-110
   52.3089000000000        -4.249982427838007E-111
   52.5483000000000        -1.047539378285233E-109
   52.7877000000000        -2.821501402053167E-109
   53.0271000000000        -5.587586032701393E-109
   53.2665000000000        -9.451853485975464E-109
   53.5059000000000        -1.423185041160377E-108
   53.7453000000000        -1.920477771799738E-108
   53.9847000000000        -2.278369819372257E-108
   54.2241000000000        -2.216761740890858E-108
   54.4635000000000        -1.307101055084254E-108
   54.7029000000000         1.027909677067410E-108
   54.9423000000000         5.459328955279686E-108
   55.1817000000000         1.260429145208572E-107
   55.4211000000000         2.274439006453261E-107
   55.6605000000000         3.537690589944119E-107
   55.8999000000000         4.859449268937168E-107
   56.1393000000000         5.834861363717275E-107
   56.3787000000000         5.775087211578349E-107
   56.6181000000000         3.670595415865296E-107
   56.8575000000000        -1.766209694671924E-107
   57.0969000000000        -1.191671447040066E-106
   57.3363000000000        -2.785901871915253E-106
   57.5757000000000        -4.969561753168481E-106
   57.8151000000000        -7.558318178910512E-106
   58.0545000000000        -1.005273227123505E-105
   58.2939000000000        -1.151481476340036E-105
   58.5333000000000        -1.048240601888096E-105
   58.7727000000000        -4.986283037465987E-106
   59.0121000000000         7.241988608001556E-106
   59.2515000000000         2.827055835588325E-105
   59.4909000000000         5.908632258949313E-105
   59.7303000000000         9.829497354250850E-105
   59.9697000000000         1.404758675127179E-104
   60.2091000000000         1.744480670225731E-104
   60.4485000000000         1.819552820868007E-104
   60.6879000000000         1.375688591916336E-104
   60.9273000000000         1.087223077315217E-105
   61.1667000000000        -2.278867485184912E-104
   61.4061000000000        -5.976669187209791E-104
   61.6455000000000        -1.091684132837765E-103
   61.8849000000000        -1.658615223453202E-103
   62.1243000000000        -2.182977682752362E-103
   62.3637000000000        -2.470362697549976E-103
   62.6031000000000        -2.246030892002422E-103
   62.8425000000000        -1.177549854594162E-103
   63.0819000000000         1.067607363772866E-103
   63.3213000000000         4.721852262845448E-103
   63.5607000000000         9.775344973610549E-103
   63.8001000000000         1.580696135097633E-102
   64.0395000000000         2.182320696575242E-102
   64.2789000000000         2.616219626404646E-102
   64.5183000000000         2.653818714619584E-102
   64.7577000000000         2.030662949156158E-102
   64.9971000000000         5.007527153518145E-103
   65.2365000000000        -2.081650445519895E-102
   65.4759000000000        -5.663906289407251E-102
   65.7153000000000        -9.906594127029159E-102
   65.9547000000000        -1.414697759302288E-101
   66.1941000000000        -1.746795144444503E-101
   66.4335000000000        -1.892354144631503E-101
   66.6729000000000        -1.794344586907658E-101
   66.9123000000000        -1.487237300260502E-101
   67.1517000000000        -1.148792741065478E-101
   67.3911000000000        -1.118925931083228E-101
   67.6305000000000        -1.838625355734613E-101
   67.8699000000000        -3.650756759808709E-101
   68.1093000000000        -6.408717824301840E-101
   68.3487000000000        -8.872220358262010E-101
   68.5881000000000        -7.947518895981244E-101
   68.8275000000000         2.035272500093040E-101
   69.0669000000000         2.962095076619911E-100
   69.3063000000000         8.548491980956248E-100
   69.5457000000000         1.798126757184458E-099
   69.7851000000000         3.168794085001055E-099
   70.0245000000000         4.860990756065101E-099
   70.2639000000000         6.494961243285397E-099
   70.5033000000000         7.269491251189694E-099
   70.7427000000000         5.828307712383690E-099
   70.9821000000000         2.082198658416577E-100
   71.2215000000000        -1.202617532867008E-098
   71.4609000000000        -3.332224283187844E-098
   71.7003000000000        -6.519858331222660E-098
   71.9397000000000        -1.066943790834987E-097
   72.1791000000000        -1.521765213824872E-097
   72.4185000000000        -1.886742486324973E-097
   72.6579000000000        -1.932451632632016E-097
   72.8973000000000        -1.313492737933012E-097
   73.1367000000000         4.221619937909999E-098
   73.3761000000000         3.776922316309742E-097
   73.6155000000000         9.175354037725847E-097
   73.8549000000000         1.674016910169413E-096
   74.0943000000000         2.595917500714210E-096
   74.3337000000000         3.525463098795993E-096
   74.5731000000000         4.150989184090722E-096
   74.8125000000000         3.967285902181633E-096
   75.0519000000000         2.263931889929870E-096
   75.2913000000000        -1.828876134642978E-096
   75.5307000000000        -9.199699094915490E-096
   75.7701000000000        -2.048052896973607E-095
   76.0095000000000        -3.560484583901222E-095
   76.2489000000000        -5.319249700901052E-095
   76.4883000000000        -6.980464891656699E-095
   76.7277000000000        -7.919182443718509E-095
   76.9671000000000        -7.176850976248814E-095
   77.2065000000000        -3.468073406726252E-095
   77.4459000000000         4.703400662651052E-095
   77.6853000000000         1.876036619370890E-094
   77.9247000000000         3.954186912597035E-094
   78.1641000000000         6.652980137612605E-094
   78.4035000000000         9.682483639138078E-094
   78.6429000000000         1.239720905826085E-093
   78.8823000000000         1.368685587285651E-093
   79.1217000000000         1.191562635647265E-093
   79.3611000000000         4.969850229555301E-094
   79.6005000000000        -9.508917947324356E-094
   79.8399000000000        -3.361952727357262E-093
   80.0793000000000        -6.834981297802794E-093
   80.3187000000000        -1.123434487653953E-092
   80.5581000000000        -1.603357623581842E-092
   80.7975000000000        -2.014496743328338E-092
   81.0369000000000        -2.177416578565190E-092
   81.2763000000000        -1.836330961400003E-092
   81.5157000000000        -6.711998374232496E-093
   81.7551000000000         1.661424896124246E-092
   81.9945000000000         5.447374323579132E-092
   82.2339000000000         1.078472744861625E-091
   82.4733000000000         1.740273577719334E-091
   82.7127000000000         2.444127134665567E-091
   82.9521000000000         3.022280314783016E-091
   83.1915000000000         3.207648086139629E-091
   83.4309000000000         2.630610314201316E-091
   83.6703000000000         8.424955034948545E-092
   83.9097000000000        -2.619897897073570E-091
   84.1491000000000        -8.114823150629278E-091
   84.3885000000000        -1.571194409780691E-090
   84.6279000000000        -2.494628828780145E-090
   84.8673000000000        -3.453046780913388E-090
   85.1067000000000        -4.207347315069689E-090
   85.3461000000000        -4.388958424280067E-090
   85.5855000000000        -3.501970983863704E-090
   85.8249000000000        -9.621622305459730E-091
   86.0643000000000         3.809786934440066E-090
   86.3037000000000         1.122545638763694E-089
   86.5431000000000         2.128835291541495E-089
   86.7825000000000         3.328355107787135E-089
   87.0219000000000         4.542952669265952E-089
   87.2613000000000         5.455871196005960E-089
   87.5007000000000         5.593486568984215E-089
   87.7401000000000         4.335818645417871E-089
   87.9795000000000         9.742508560586515E-090
   88.2189000000000        -5.164299770508212E-089
   88.4583000000000        -1.451130306811056E-088
   88.6977000000000        -2.696384785579568E-088
   88.9371000000000        -4.152009518292909E-088
   89.1765000000000        -5.588776833806526E-088
   89.4159000000000        -6.614996379063397E-088
   89.6553000000000        -6.661792985797262E-088
   89.8947000000000        -5.004388374603908E-088
   90.1341000000000        -8.395572001097926E-089
   90.3735000000000         6.560986422548302E-088
   90.6129000000000         1.760740519333973E-087
   90.8523000000000         3.205855070440170E-087
   91.0917000000000         4.862185357807331E-087
   91.3311000000000         6.454292823143465E-087
   91.5705000000000         7.528375075111761E-087
   91.8099000000000         7.443420922228021E-087
   92.0493000000000         5.404217515069970E-087
   92.2887000000000         5.567762321919602E-088
   92.5281000000000        -7.835072276869632E-087
   92.7675000000000        -2.012102081017593E-086
   93.0069000000000        -3.590867011933271E-086
   93.2463000000000        -5.365163332932195E-086
   93.4857000000000        -7.024715486037178E-086
   93.7251000000000        -8.075121545124543E-086
   93.9645000000000        -7.836240232294120E-086
   94.2039000000000        -5.486009314971496E-086
   94.4433000000000        -1.693088381212854E-087
   94.6827000000000         8.811666331059846E-086
   94.9221000000000         2.171841516481121E-085
   95.1615000000000         3.801873362560590E-085
   95.4009000000000         5.598734648991320E-085
   95.6403000000000         7.233544668250173E-085
   95.8797000000000         8.197953558673330E-085
   96.1191000000000         7.809808555357236E-085
   96.3585000000000         5.265099088981775E-085
   96.5979000000000        -2.462530734374214E-086
   96.8373000000000        -9.347377583064496E-085
   97.0767000000000        -2.220098745736774E-084
   97.3161000000000        -3.816971362704111E-084
   97.5555000000000        -5.544973500484351E-084
   97.7949000000000        -7.074901790078980E-084
   98.0343000000000        -7.911636503912734E-084
   98.2737000000000        -7.405894629290696E-084
   98.5131000000000        -4.810430190029556E-084
   98.7525000000000         6.044716441807635E-085
   98.9919000000000         9.366140658530876E-084
   99.2313000000000         2.154543116801349E-083
   99.4707000000000         3.645006512194609E-083
   99.7101000000000         5.230500659391104E-083
   99.9495000000000         6.598729629267353E-083
   100.188900000000         7.291195636627112E-083
   100.428300000000         6.719005108034162E-083
   100.667700000000         4.219109420147088E-083
   100.907100000000        -8.371089865058927E-084
   101.146500000000        -8.875895975603714E-083
   101.385900000000        -1.989636365921796E-082
   101.625300000000        -3.320622212722150E-082
   101.864700000000        -4.715508314173072E-082
   102.104100000000        -5.892558493122516E-082
   102.343500000000        -6.446585683994079E-082
   102.582900000000        -5.866489310852190E-082
   102.822300000000        -3.587794085587677E-082
   103.061700000000         9.106740430900217E-083
   103.301100000000         7.961452241825040E-082
   103.540500000000         1.751832869625377E-081
   103.779900000000         2.893786970568686E-081
   104.019300000000         4.076525094794770E-081
   104.258700000000         5.057552790503228E-081
   104.498100000000         5.493929211783092E-081
   104.737500000000         4.959439670855244E-081
   104.976900000000         2.990724535308146E-081
   105.216300000000        -8.308775883647486E-082
   105.455700000000        -6.759055252029005E-081
   105.695100000000        -1.472811107639577E-080
   105.934500000000        -2.417883873426362E-080
   106.173900000000        -3.389192854325063E-080
   106.413300000000        -4.187031804479602E-080
   106.652700000000        -4.532508919193050E-080
   106.892100000000        -4.082821423423184E-080
   107.131500000000        -2.469517283952986E-080
   107.370900000000         6.353871892626414E-081
   107.610300000000         5.423890712031798E-080
   107.849700000000         1.183111290052519E-079
   108.089100000000         1.940090034651848E-079
   108.328500000000         2.715953913722284E-079
   108.567900000000         3.352971736654567E-079
   108.807300000000         3.632639002224030E-079
   109.046700000000         3.288203554738789E-079
   109.286100000000         2.034763275540103E-079
   109.525500000000        -3.796138734723259E-080
   109.764900000000        -4.100886869434616E-079
   110.004300000000        -9.077518893863560E-079
   110.243700000000        -1.495965726458083E-078
   110.483100000000        -2.100538474537582E-078
   110.722500000000        -2.601802836983159E-078
   110.961900000000        -2.834523503377230E-078
   111.201300000000        -2.597442737058828E-078
   111.440700000000        -1.675795930012336E-078
   111.680100000000         1.207779162493864E-079
   111.919500000000         2.904424048942332E-078
   112.158900000000         6.641928093492095E-078
   112.398300000000         1.108102840104625E-077
   112.637700000000         1.568206545160029E-077
   112.877100000000         1.957222272582664E-077
   113.116500000000         2.154429423032793E-077
   113.355900000000         2.012454927825834E-077
   113.595300000000         1.373320310524272E-077
   113.834700000000         9.544750966399330E-079
   114.074100000000        -1.908035168898677E-077
   114.313500000000        -4.621502241217874E-077
   114.552900000000        -7.874308179840800E-077
   114.792300000000        -1.129181336625211E-076
   115.031700000000        -1.426194527679800E-076
   115.271100000000        -1.593249622596699E-076
   115.510500000000        -1.525616326418598E-076
   115.749900000000        -1.109961409485915E-076
   115.989300000000        -2.428430464578681E-077
   116.228700000000         1.142941064546365E-076
   116.468100000000         3.045343380833211E-076
   116.707500000000         5.356567415292913E-076
   116.946900000000         7.828631155974848E-076
   117.186300000000         1.004904300626506E-075
   117.425700000000         1.143681727320824E-075
   117.665100000000         1.127030487466856E-075
   117.904500000000         8.757902156756783E-076
   118.143900000000         3.159849901198777E-076
   118.383300000000        -6.036640547787247E-076
   118.622700000000        -1.889620852395211E-075
   118.862100000000        -3.478834956344039E-075
   119.101500000000        -5.215043664820676E-075
   119.340900000000        -6.831305285466594E-075
   119.580300000000        -7.945443168862946E-075
   119.819700000000        -8.075945532799225E-075
   120.059100000000        -6.685677681367992E-075
   120.298500000000        -3.259023316746033E-075
   120.537900000000         2.585661698677307E-075
   120.777300000000         1.095239730073742E-074
   121.016700000000         2.150506498220810E-074
   121.256100000000         3.330831571666664E-074
   121.495500000000         4.470477201567172E-074
   121.734900000000         5.327086692459957E-074
   121.974300000000         5.589960356762866E-074
   122.213700000000         4.905800586976278E-074
   122.453100000000         2.925694930914568E-074
   122.692500000000        -6.251382121148285E-075
   122.931900000000        -5.856973517331924E-074
   123.171300000000        -1.261176280059799E-073
   123.410700000000        -2.035924048695674E-073
   123.650100000000        -2.811294812223225E-073
   123.889500000000        -3.439222311249443E-073
   124.128900000000        -3.726019857028081E-073
   124.368300000000        -3.446804295255944E-073
   124.607700000000        -2.373012739338051E-073
   124.847100000000        -3.141818364224494E-074
   125.086500000000         2.826997980012345E-073
   125.325900000000         6.990359864253968E-073
   125.565300000000         1.189239691957111E-072
   125.804700000000         1.697063561838007E-072
   126.044100000000         2.135379111582848E-072
   126.283500000000         2.387587719895836E-072
   126.522900000000         2.315288464327870E-072
   126.762300000000         1.773776235393733E-072
   127.001700000000         6.362191889618004E-073
   127.241100000000        -1.173867536285830E-072
   127.480500000000        -3.643983774612954E-072
   127.719900000000        -6.632154877294745E-072
   127.959300000000        -9.831310375814568E-072
   128.198700000000        -1.274753574699836E-071
   128.438100000000        -1.470287880989186E-071
   128.677500000000        -1.487385699180504E-071
   128.916900000000        -1.237540599355567E-071
   129.156300000000        -6.396117931826441E-072
   129.395700000000         3.616200629619975E-072
   129.635100000000         1.772945850286438E-071
   129.874500000000         3.528593827856209E-071
   130.113900000000         5.468184275183284E-071
   130.353300000000         7.321839102478544E-071
   130.592700000000         8.708550422109859E-071
   130.832100000000         9.154299539401356E-071
   131.071500000000         8.135781679099995E-071
   131.310900000000         5.153576721298870E-071
   131.550300000000        -1.650507732998166E-072
   131.789700000000        -7.938917558019567E-071
   132.029100000000        -1.789334667887116E-070
   132.268500000000        -2.922818493874125E-070
   132.507900000000        -4.052111602469616E-070
   132.747300000000        -4.970020800834695E-070
   132.986700000000        -5.412248817860975E-070
   133.226100000000        -5.079274643578236E-070
   133.465500000000        -3.674673011047772E-070
   133.704900000000        -9.603868337043738E-071
   133.944300000000         3.173393494318588E-070
   134.183700000000         8.629817313959303E-070
   134.423100000000         1.502880614607253E-069
   134.662500000000         2.164706834157837E-069
   134.901900000000         2.739307355337311E-069
   135.141300000000         3.083730260910106E-069
   135.380700000000         3.031720799894916E-069
   135.620100000000         2.413152032420683E-069
   135.859500000000         1.082893684036654E-069
   136.098900000000        -1.041857055204927E-069
   136.338300000000        -3.938722410477808E-069
   136.577700000000        -7.437014819987150E-069
   136.817100000000        -1.118196334664575E-068
   137.056500000000        -1.461599615214839E-068
   137.295900000000        -1.698801861085031E-068
   137.535300000000        -1.740144686461681E-068
   137.774700000000        -1.490956507133550E-068
   138.014100000000        -8.662080076454301E-069
   138.253500000000         1.900706918190745E-069
   138.492900000000         1.681977943530641E-068
   138.732300000000         3.538106986473849E-068