  -1.79550000000000         0.000000000000000E+000
  -1.55610000000000         0.000000000000000E+000
  -1.31670000000000         0.000000000000000E+000
  -1.07730000000000         0.000000000000000E+000
 -0.837900000000000         0.000000000000000E+000
 -0.598500000000000         0.000000000000000E+000
 -0.359100000000000         0.000000000000000E+000
 -0.119700000000000         0.000000000000000E+000
  0.119700000000000         0.000000000000000E+000
  0.359100000000000         0.000000000000000E+000
  0.598500000000000         0.000000000000000E+000
  0.837900000000000         0.000000000000000E+000
   1.07730000000000         0.000000000000000E+000
   1.31670000000000         0.000000000000000E+000
   1.55610000000000         0.000000000000000E+000
   1.79550000000000         0.000000000000000E+000
   2.03490000000000         0.000000000000000E+000
   2.27430000000000         0.000000000000000E+000
   2.51370000000000         0.000000000000000E+000
   2.75310000000000         0.000000000000000E+000
   2.99250000000000         0.000000000000000E+000
   3.23190000000000         0.000000000000000E+000
   3.47130000000000         0.000000000000000E+000
   3.71070000000000         0.000000000000000E+000
   3.95010000000000         0.000000000000000E+000
   4.18950000000000         0.000000000000000E+000
   4.42890000000000         0.000000000000000E+000
   4.66830000000000         0.000000000000000E+000
   4.90770000000000         0.000000000000000E+000
   5.14710000000000         0.000000000000000E+000
   5.38650000000000         0.000000000000000E+000
   5.62590000000000         0.000000000000000E+000
   5.86530000000000         0.000000000000000E+000
   6.10470000000000         0.000000000000000E+000
   6.34410000000000         0.000000000000000E+000
   6.58350000000000         0.000000000000000E+000
   6.82290000000000        -1.894089165512169E-158
   7.06230000000000         5.729407945990784E-151
   7.30170000000000        -2.265215949453594E-146
   7.54110000000000        -1.137344134254297E-144
   7.78050000000000         5.968903706318227E-144
   8.01990000000000         1.940527287230858E-141
   8.25930000000000         7.848664019250517E-140
   8.49870000000000         1.902154320826054E-138
   8.73810000000000         3.361760161442772E-137
   8.97750000000000         4.709465287853461E-136
   9.21690000000000         5.493036234367148E-135
   9.45630000000000         5.523510355603970E-134
   9.69570000000000         4.924526275720466E-133
   9.93510000000000         3.989572673442695E-132
   10.1745000000000         3.002116869996996E-131
   10.4139000000000         2.137212579341739E-130
   10.6533000000000         1.458122267799004E-129
   10.8927000000000         9.592263927613105E-129
   11.1321000000000         6.083681868754173E-128
   11.3715000000000         3.704619126280040E-127
   11.6109000000000         2.154308501214272E-126
   11.8503000000000         1.190620476981333E-125
   12.0897000000000         6.232374536576151E-125
   12.3291000000000         3.083701096557863E-124
   12.5685000000000         1.440875270433405E-123
   12.8079000000000         6.356525697171403E-123
   13.0473000000000         2.648017655597080E-122
   13.2867000000000         1.041975243896838E-121
   13.5261000000000         3.873912199547487E-121
   13.7655000000000         1.361077544052447E-120
   14.0049000000000         4.519887259932041E-120
   14.2443000000000         1.419206289748318E-119
   14.4837000000000         4.218464223966636E-119
   14.7231000000000         1.191009561074436E-118
   14.9625000000000         3.220493957640566E-118
   15.2019000000000         8.491469154972533E-118
   15.4413000000000         2.257086455101611E-117
   15.6807000000000         6.339048165660573E-117
   15.9201000000000         1.955518388400098E-116
   16.1595000000000         6.623289985709563E-116
   16.3989000000000         2.370250104742038E-115
   16.6383000000000         8.570823716253979E-115
   16.8777000000000         3.037835943471734E-114
   17.1171000000000         1.039379110870603E-113
   17.3565000000000         3.412628627494384E-113
   17.5959000000000         1.073995569442794E-112
   17.8353000000000         3.242746511009217E-112
   18.0747000000000         9.409193696590065E-112
   18.3141000000000         2.628538519188517E-111
   18.5535000000000         7.081502635226215E-111
   18.7929000000000         1.842379931706711E-110
   19.0323000000000         4.633333836628472E-110
   19.2717000000000         1.126863233727080E-109
   19.5111000000000         2.650019626947976E-109
   19.7505000000000         6.020389392530461E-109
   19.9899000000000         1.318671424959095E-108
   20.2293000000000         2.774995024232704E-108
   20.4687000000000         5.577510115128699E-108
   20.7081000000000         1.059998588517471E-107
   20.9475000000000         1.870295378823857E-107
   21.1869000000000         2.949564944552469E-107
   21.4263000000000         3.755493344553428E-107
   21.6657000000000         2.260073241419635E-107
   21.9051000000000        -7.350953730629484E-107
   22.1445000000000        -3.964224006327277E-106
   22.3839000000000        -1.278853740365616E-105
   22.6233000000000        -3.426449093766144E-105
   22.8627000000000        -8.239251335229454E-105
   23.1021000000000        -1.832119350279187E-104
   23.3415000000000        -3.820414934713520E-104
   23.5809000000000        -7.523112580407896E-104
   23.8203000000000        -1.403883797381829E-103
   24.0597000000000        -2.487013842648392E-103
   24.2991000000000        -4.188783845260204E-103
   24.5385000000000        -6.729485372505707E-103
   24.7779000000000        -1.040383011612032E-102
   25.0173000000000        -1.580774061835942E-102
   25.2567000000000        -2.459546740696905E-102
   25.4961000000000        -4.148339174690617E-102
   25.7355000000000        -7.878722464251526E-102
   25.9749000000000        -1.654516527197040E-101
   26.2143000000000        -3.628782294295638E-101
   26.4537000000000        -7.887770476315440E-101
   26.6931000000000        -1.645515549422677E-100
   26.9325000000000        -3.237181499057404E-100
   27.1719000000000        -5.934412360974715E-100
   27.4113000000000        -1.000235376912584E-099
   27.6507000000000        -1.514321987635624E-099
   27.8901000000000        -1.953189856180341E-099
   28.1295000000000        -1.807957470889866E-099
   28.3689000000000         2.670029992088451E-101
   28.6083000000000         5.604059642578465E-099
   28.8477000000000         1.825982986794381E-098
   29.0871000000000         4.267393442867204E-098
   29.3265000000000         8.415976506872658E-098
   29.5659000000000         1.463750824508504E-097
   29.8053000000000         2.263846430579012E-097
   30.0447000000000         3.060082375808663E-097
   30.2841000000000         3.390220738035984E-097
   30.5235000000000         2.354727967182401E-097
   30.7629000000000        -1.526480546636042E-097
   31.0023000000000        -1.036291472584933E-096
   31.2417000000000        -2.673963019694935E-096
   31.4811000000000        -5.327642453254417E-096
   31.7205000000000        -9.195445639019735E-096
   31.9599000000000        -1.435773265620490E-095
   32.1993000000000        -2.082061213016495E-095
   32.4387000000000        -2.878052634379670E-095
   32.6781000000000        -3.919700717131201E-095
   32.9175000000000        -5.450589881398767E-095
   33.1569000000000        -7.860145551254623E-095
   33.3963000000000        -1.137754969142460E-094
   33.6357000000000        -1.499283465350179E-094
   33.8751000000000        -1.383069632845193E-094
   34.1145000000000         6.036882528202989E-095
   34.3539000000000         7.618062734950912E-094
   34.5933000000000         2.573893784984521E-093
   34.8327000000000         6.503858734976963E-093
   35.0721000000000         1.394832630622493E-092
   35.3115000000000         2.633927992286314E-092
   35.5509000000000         4.405235530404287E-092
   35.7903000000000         6.400475580051098E-092
   36.0297000000000         7.528355869851913E-092
   36.2691000000000         5.237032454822395E-092
   36.5085000000000        -5.356251066190742E-092
   36.7479000000000        -3.226840900997052E-091
   36.9873000000000        -8.673332807232891E-091
   37.2267000000000        -1.812977889199110E-090
   37.4661000000000        -3.238691837491446E-090
   37.7055000000000        -5.048854678426039E-090
   37.9449000000000        -6.745442942801132E-090
   38.1843000000000        -7.082795176073254E-090
   38.4237000000000        -3.628903920342079E-090
   38.6631000000000         7.651642653741228E-090
   38.9025000000000         3.251895749717428E-089
   39.1419000000000         7.777455493451131E-089
   39.3813000000000         1.489774706652983E-088
   39.6207000000000         2.455086541644348E-088
   39.8601000000000         3.518920865543638E-088
   40.0995000000000         4.247707926162660E-088
   40.3389000000000         3.764126773323980E-088
   40.5783000000000         5.862990653431174E-089
   40.8177000000000        -7.439989377437550E-088
   41.0571000000000        -2.295670046703968E-087
   41.2965000000000        -4.841580098131226E-087
   41.5359000000000        -8.460195187430960E-087
   41.7753000000000        -1.280520204641177E-086
   42.0147000000000        -1.672231755341238E-086
   42.2541000000000        -1.776821279232595E-086
   42.4935000000000        -1.173956621763433E-086
   42.7329000000000         7.552176158969065E-087
   42.9723000000000         4.785493416226571E-086
   43.2117000000000         1.168115120644971E-085
   43.4511000000000         2.183454421999105E-085
   43.6905000000000         3.464466990381562E-085
   43.9299000000000         4.761358763062682E-085
   44.1693000000000         5.524067101565536E-085
   44.4087000000000         4.797644639679915E-085
   44.6481000000000         1.176597993419183E-085
   44.8875000000000        -7.095857802203434E-085
   45.1269000000000        -2.176660649483550E-084
   45.3663000000000        -4.381930633807206E-084
   45.6057000000000        -7.222875169352529E-084
   45.8451000000000        -1.022290898688079E-083
   46.0845000000000        -1.233192208475519E-083
   46.3239000000000        -1.175782502975765E-083
   46.5633000000000        -5.933104715172646E-084
   46.8027000000000         8.229406291384815E-084
   47.0421000000000         3.360219649768467E-083
   47.2815000000000         7.145191099716060E-083
   47.5209000000000         1.193134105547954E-082
   47.7603000000000         1.682884699522348E-082
   47.9997000000000         2.003389732008475E-082
   48.2391000000000         1.867238438388435E-082
   48.4785000000000         8.939321476557888E-083
   48.7179000000000        -1.323061712829859E-082
   48.9573000000000        -5.072114784699638E-082
   49.1967000000000        -1.028775517595161E-081
   49.4361000000000        -1.623508829744871E-081
   49.6755000000000        -2.117314579729517E-081
   49.9149000000000        -2.212517164426415E-081
   50.1543000000000        -1.496648123892684E-081
   50.3937000000000         4.886636483473222E-082
   50.6331000000000         4.088308694961653E-081
   50.8725000000000         9.262912342630894E-081
   51.1119000000000         1.521430781907210E-080
   51.3513000000000         1.996939673084675E-080
   51.5907000000000         2.006721761810208E-080
   51.8301000000000         1.059724728592776E-080
   52.0695000000000        -1.406373415722486E-080
   52.3089000000000        -5.842066679045733E-080
   52.5483000000000        -1.226147102918263E-079
   52.7877000000000        -1.977324671862023E-079
   53.0271000000000        -2.602332747456125E-079
   53.2665000000000        -2.670059363671999E-079
   53.5059000000000        -1.538174338362176E-079
   53.7453000000000         1.587558322352718E-079
   53.9847000000000         7.468946290949876E-079
   54.2241000000000         1.647817404719941E-078
   54.4635000000000         2.804407423373348E-078
   54.7029000000000         3.993503262212454E-078
   54.9423000000000         4.750904028858001E-078
   55.1817000000000         4.319811022865012E-078
   55.4211000000000         1.665246315192948E-078
   55.6605000000000        -4.389308109482284E-078
   55.8999000000000        -1.484249553065272E-077
   56.1393000000000        -2.996751779435170E-077
   56.3787000000000        -4.853714631563568E-077
   56.6181000000000        -6.690851526331022E-077
   56.8575000000000        -7.818372331254194E-077
   57.0969000000000        -7.182066534666340E-077
   57.3363000000000        -3.422120035637601E-077
   57.5757000000000         4.909255291509571E-077
   57.8151000000000         1.891786271336244E-076
   58.0545000000000         3.870566754719326E-076
   58.2939000000000         6.252674542694244E-076
   58.5333000000000         8.591775664622273E-076
   58.7727000000000         1.010938990219006E-075
   59.0121000000000         9.703217105659762E-076
   59.2515000000000         6.073603251206459E-076
   59.4909000000000        -1.988941446569861E-076
   59.7303000000000        -1.514141710936464E-075
   59.9697000000000        -3.289644058721099E-075
   60.2091000000000        -5.303560012495398E-075
   60.4485000000000        -7.127116890777426E-075
   60.6879000000000        -8.149537720807567E-075
   60.9273000000000        -7.698615604761270E-075
   61.1667000000000        -5.282613303708309E-075
   61.4061000000000        -9.453927862304490E-076
   61.6455000000000         4.335966214538472E-075
   61.8849000000000         8.372815019985053E-075
   62.1243000000000         7.873320217035152E-075
   62.3637000000000        -7.081857016271856E-076
   62.6031000000000        -1.921727935900141E-074
   62.8425000000000        -4.452755479505111E-074
   63.0819000000000        -6.414121095626817E-074
   63.3213000000000        -5.158765630561593E-074
   63.5607000000000         3.637502721647164E-074
   63.8001000000000         2.574466921893850E-073
   64.0395000000000         6.718509500607095E-073
   64.2789000000000         1.315782181305521E-072
   64.5183000000000         2.156359397189804E-072
   64.7577000000000         3.028068419850352E-072
   64.9971000000000         3.558361423330932E-072
   65.2365000000000         3.102236332817203E-072
   65.4759000000000         7.217315508392978E-073
   65.7153000000000        -4.736157751341135E-072
   65.9547000000000        -1.439598036274229E-071
   66.1941000000000        -2.887668363693489E-071
   66.4335000000000        -4.753675585230506E-071
   66.6729000000000        -6.746043481915581E-071
   66.9123000000000        -8.231772961172524E-071
   67.1517000000000        -8.140079494351408E-071
   67.3911000000000        -4.935362891577621E-071
   67.6305000000000         3.266577231462780E-071
   67.8699000000000         1.834936090763057E-070
   68.1093000000000         4.152592803224762E-070
   68.3487000000000         7.229355854336291E-070
   68.5881000000000         1.070423412069125E-069
   68.8275000000000         1.374891846949160E-069
   69.0669000000000         1.493181225215207E-069
   69.3063000000000         1.216656339102152E-069
   69.5457000000000         2.835198413695564E-070
   69.7851000000000        -1.580573552593321E-069
   70.0245000000000        -4.582981337304979E-069
   70.2639000000000        -8.738875632647148E-069
   70.5033000000000        -1.370290431818571E-068
   70.7427000000000        -1.857623404563739E-068
   70.9821000000000        -2.173052327312908E-068
   71.2215000000000        -2.071868151611783E-068
   71.4609000000000        -1.237107597527295E-068
   71.7003000000000         6.803540248905272E-069
   71.9397000000000         3.979356005208577E-068
   72.1791000000000         8.775548010243519E-068
   72.4185000000000         1.481915352363497E-067
   72.6579000000000         2.128055206979537E-067
   72.8973000000000         2.654393965348710E-067
   73.1367000000000         2.807785544336006E-067
   73.3761000000000         2.248075701053545E-067
   73.6155000000000         5.821872855101776E-068
   73.8549000000000        -2.559983741611662E-067
   74.0943000000000        -7.398783103335800E-067
   74.3337000000000        -1.382631886159033E-066
   74.5731000000000        -2.119009798211884E-066
   74.8125000000000        -2.807387188300575E-066
   75.0519000000000        -3.213734096346987E-066
   75.2913000000000        -3.010426489630719E-066
   75.5307000000000        -1.801063216541209E-066
   75.7701000000000         8.169654731989586E-067
   76.0095000000000         5.142786023488943E-066
   76.2489000000000         1.121258822395987E-065
   76.4883000000000         1.860000861128688E-065
   76.7277000000000         2.620405924275419E-065
   76.9671000000000         3.207526031739120E-065
   77.2065000000000         3.335531334341343E-065
   77.4459000000000         2.642633300580762E-065
   77.6853000000000         7.373835565037671E-066
   77.9247000000000        -2.714742436829145E-065
   78.1641000000000        -7.860566061211444E-065
   78.4035000000000        -1.448977876755083E-064
   78.6429000000000        -2.184672986480754E-064
   78.8823000000000        -2.846178415253750E-064
   79.1217000000000        -3.206101363396379E-064
   79.3611000000000        -2.963103748804141E-064
   79.6005000000000        -1.772508095699696E-064
   79.8399000000000         6.911465963937363E-065
   80.0793000000000         4.635156359223257E-064
   80.3187000000000         1.001564554815579E-063
   80.5581000000000         1.638338840213470E-063
   80.7975000000000         2.273529582413694E-063
   81.0369000000000         2.741423473820301E-063
   81.2763000000000         2.811457899709301E-063
   81.5157000000000         2.205995371323919E-063
   81.7551000000000         6.417075265037105E-064
   81.9945000000000        -2.101123063875413E-063
   82.2339000000000        -6.081584069158374E-063
   82.4733000000000        -1.108087722500063E-062
   82.7127000000000        -1.648218999195218E-062
   82.9521000000000        -2.117661529896814E-062
   83.1915000000000        -2.353532321401596E-062
   83.4309000000000        -2.149614487494372E-062
   83.6703000000000        -1.281329746274996E-062
   83.9097000000000         4.492474608032336E-063
   84.1491000000000         3.147391308174275E-062
   84.3885000000000         6.742506210043157E-062
   84.6279000000000         1.089805223621066E-061
   84.8673000000000         1.493293983458414E-061
   85.1067000000000         1.778086194264244E-061
   85.3461000000000         1.802042809888285E-061
   85.5855000000000         1.401099116275839E-061
   85.8249000000000         4.163637226622385E-062
   86.0643000000000        -1.263908121056814E-061
   86.3037000000000        -3.648964445816133E-061
   86.5431000000000        -6.582483820405072E-061
   86.7825000000000        -9.682626138063560E-061
   87.0219000000000        -1.230160906531423E-060
   87.2613000000000        -1.352598664954482E-060
   87.5007000000000        -1.224119054913640E-060
   87.7401000000000        -7.281944648711621E-061
   87.9795000000000         2.318114724926808E-061
   88.2189000000000         1.698048214883915E-060
   88.4583000000000         3.616706748535234E-060
   88.6977000000000         5.795638465726021E-060
   88.9371000000000         7.870624712276294E-060
   89.1765000000000         9.293196007879914E-060
   89.4159000000000         9.355048758696020E-060
   89.6553000000000         7.263896913136134E-060
   89.8947000000000         2.281771060202343E-060
   90.1341000000000        -6.071754578585047E-060
   90.3735000000000        -1.776275013937730E-059
   90.6129000000000        -3.196265403859844E-059
   90.8523000000000        -4.679671084519489E-059
   91.0917000000000        -5.919529196601274E-059
   91.3311000000000        -6.493905964694507E-059
   91.5705000000000        -5.899383946561904E-059
   91.8099000000000        -3.621655706598181E-059
   92.0493000000000         7.527409150810587E-060
   92.2887000000000         7.386738073954822E-059
   92.5281000000000         1.601866632206754E-058
   92.7675000000000         2.579018157280650E-058
   93.0069000000000         3.511624058439655E-058
   93.2463000000000         4.164903547251075E-058
   93.4857000000000         4.239423308503049E-058
   93.7251000000000         3.403458758175328E-058
   93.9645000000000         1.349866766589075E-058
   94.2039000000000        -2.122237841167735E-058
   94.4433000000000        -7.006072957172618E-058
   94.6827000000000        -1.297814552332739E-057
   94.9221000000000        -1.930166753282227E-057
   95.1615000000000        -2.477022440506548E-057
   95.4009000000000        -2.772504773510183E-057
   95.6403000000000        -2.618035661484109E-057
   95.8797000000000        -1.808539430292534E-057
   96.1191000000000        -1.736749537850332E-058
   96.3585000000000         2.367107079740770E-057
   96.5979000000000         5.740484955745365E-057
   96.8373000000000         9.655350759345820E-057
   97.0767000000000         1.355286193004379E-056
   97.3161000000000         1.658824228908425E-056
   97.5555000000000         1.766429464371885E-056
   97.7949000000000         1.553561224001191E-056
   98.0343000000000         8.996998633690425E-057
   98.2737000000000        -2.841432156741729E-057
   98.5131000000000        -2.020700376852774E-056
   98.7525000000000        -4.228191467950912E-056
   98.9919000000000        -6.684775549237933E-056
   99.2313000000000        -9.004454016779285E-056
   99.4707000000000        -1.063507835824389E-055
   99.7101000000000        -1.088975037348940E-055
   99.9495000000000        -9.021519300554718E-056
   100.188900000000        -4.347197419245711E-056
   100.428300000000         3.581118851806088E-056
   100.667700000000         1.476864507407085E-055
   100.907100000000         2.855941963797790E-055
   101.146500000000         4.344565177923364E-055
   101.385900000000         5.695679647047598E-055
   101.625300000000         6.568890592485204E-055
   101.864700000000         6.553541158097882E-055
   102.104100000000         5.216916376312736E-055
   102.343500000000         2.179901017479428E-055
   102.582900000000        -2.781935411207764E-055
   102.822300000000        -9.619832441323099E-055
   103.061700000000        -1.789109022854782E-054
   103.301100000000        -2.665876430396735E-054
   103.540500000000        -3.444101180104172E-054
   103.779900000000        -3.924311641557352E-054
   104.019300000000        -3.870436286091482E-054
   104.258700000000        -3.038444710241774E-054
   104.498100000000        -1.219844774738020E-054
   104.737500000000         1.701512052428486E-054
   104.976900000000         5.684126660926153E-054
   105.216300000000         1.046367095535833E-053
   105.455700000000         1.550043131043079E-053
   105.695100000000         1.995512121245292E-053
   105.934500000000         2.271051328165847E-053
   106.173900000000         2.245550772464963E-053
   106.413300000000         1.784391851632717E-053
   106.652700000000         7.731693134128163E-054
   106.892100000000        -8.516765667896891E-054
   107.131500000000        -3.067956177569983E-053
   107.370900000000        -5.733157133587309E-053
   107.610300000000        -8.556772367500203E-053
   107.849700000000        -1.108771365064411E-052
   108.089100000000        -1.272579860836892E-052
   108.328500000000        -1.276579756599971E-052
   108.567900000000        -1.048024850035365E-052
   108.807300000000        -5.242847951420955E-053
   109.046700000000         3.312402834019572E-053
   109.286100000000         1.510971889606011E-052
   109.525500000000         2.945099508294117E-052
   109.764900000000         4.486933835605332E-052
   110.004300000000         5.905786207001710E-052
   110.243700000000         6.891900875612916E-052
   110.483100000000         7.077732904423966E-052
   110.722500000000         6.078761267632780E-052
   110.961900000000         3.554886624538905E-052
   111.201300000000        -7.097662141122353E-053
   111.440700000000        -6.715019864912081E-052
   111.680100000000        -1.415199472004623E-051
   111.919500000000        -2.232570114443087E-051
   112.158900000000        -3.011298123048079E-051
   112.398300000000        -3.597808796637698E-051
   112.637700000000        -3.806735151719100E-051
   112.877100000000        -3.439942991954811E-051
   113.116500000000        -2.315775271096106E-051
   113.355900000000        -3.076647619760754E-052
   113.595300000000         2.610720655707556E-051
   113.834700000000         6.318940479015324E-051
   114.074100000000         1.050934653864832E-050
   114.313500000000         1.466226086678545E-050
   114.552900000000         1.804746818819466E-050
   114.792300000000         1.976255298291349E-050
   115.031700000000         1.881655698437238E-050
   115.271100000000         1.426309375291492E-050
   115.510500000000         5.380261738131480E-051
   115.749900000000        -8.114371762455021E-051
   115.989300000000        -2.583614265232671E-050
   116.228700000000        -4.652659829767011E-050
   116.468100000000        -6.791121180412592E-050
   116.707500000000        -8.667141938368593E-050
   116.946900000000        -9.858145345052792E-050
   117.186300000000        -9.885269765031541E-050
   117.425700000000        -8.271029340913551E-050
   117.665100000000        -4.619750258744650E-050
   117.904500000000         1.283659142631498E-050
   118.143900000000         9.365854911114096E-050
   118.383300000000         1.916250872714671E-049
   118.622700000000         2.974018813182322E-049
   118.862100000000         3.966518162232248E-049
   119.101500000000         4.704275132749299E-049
   119.340900000000         4.964774867676203E-049
   119.580300000000         4.516054583728223E-049
   119.819700000000         3.151028054666570E-049
   120.059100000000         7.310564220271961E-050
   120.298500000000        -2.764802219609323E-049
   120.537900000000        -7.190721194426453E-049
   120.777300000000        -1.219326763697785E-048
   121.016700000000        -1.718857204944523E-048
   121.256100000000        -2.136805329560145E-048
   121.495500000000        -2.374260352138231E-048
   121.734900000000        -2.323265177910934E-048
   121.974300000000        -1.880691668668868E-048
   122.213700000000        -9.665885983652672E-049
   122.453100000000         4.542583680683434E-049
   122.692500000000         2.349797094781805E-048
   122.931900000000         4.600437179549627E-048
   123.171300000000         6.985095563924293E-048
   123.410700000000         9.178110779557722E-048
   123.650100000000         1.076152666672999E-047
   123.889500000000         1.125646630965258E-047
   124.128900000000         1.017566770722757E-047
   124.368300000000         7.096682238894830E-048
   124.607700000000         1.751819523016432E-048
   124.847100000000        -5.873108917308425E-048
   125.086500000000        -1.544342817528765E-047
   125.325900000000        -2.619964966116353E-047
   125.565300000000        -3.691969001754060E-047
   125.804700000000        -4.593881121736964E-047
   126.044100000000        -5.124489165756816E-047
   126.283500000000        -5.066130281546512E-047
   126.522900000000        -4.212057510072136E-047
   126.762300000000        -2.401927791473177E-047
   127.001700000000         4.371208808423135E-048
   127.241100000000         4.248072507609902E-047
   127.480500000000         8.806277213892332E-047
   127.719900000000         1.369367172061207E-046
   127.959300000000         1.829305287572318E-046
   128.198700000000         2.181026234822136E-046
   128.438100000000         2.333066864939846E-046
   128.677500000000         2.191340319693942E-046
   128.916900000000         1.672236503634595E-046
   129.156300000000         7.187205437444442E-047
   129.395700000000        -6.819257653063349E-047
   129.635100000000        -2.480778564822492E-046
   129.874500000000        -4.553059136900201E-046
   130.113900000000        -6.690185485516879E-046
   130.353300000000        -8.601385849596145E-046
   130.592700000000        -9.927884381166186E-046
   130.832100000000        -1.027184772787653E-045
   131.071500000000        -9.240869057688217E-046
   131.310900000000        -6.506773653284301E-046
   131.550300000000        -1.875055132388975E-046
   131.789700000000         4.641507905120364E-046
   132.029100000000         1.275424518475664E-045
   132.268500000000         2.184651132900067E-045
   132.507900000000         3.095107800016644E-045
   132.747300000000         3.877001824194411E-045
   132.986700000000         4.374833621086205E-045
   133.226100000000         4.420866464808433E-045
   133.465500000000         3.854811150035181E-045
   133.704900000000         2.548992235256058E-045
   133.944300000000         4.372520778266873E-046
   134.183700000000        -2.455243220005825E-045
   134.423100000000        -5.985179194875505E-045
   134.662500000000        -9.871975507336515E-045
   134.901900000000        -1.369155675271262E-044
   135.141300000000        -1.688807500864346E-044
   135.380700000000        -1.880779070386279E-044
   135.620100000000        -1.875760637737426E-044
   135.859500000000        -1.608814544773572E-044
   136.098900000000        -1.029785094143132E-044
   136.338300000000        -1.150558125164792E-045
   136.577700000000         1.120527043284780E-044
   136.817100000000         2.613146337399942E-044
   137.056500000000         4.242814424969207E-044
   137.295900000000         5.831527491707718E-044
   137.535300000000         7.148741531164642E-044
   137.774700000000         7.925767990196319E-044
   138.014100000000         7.879983986862833E-044
   138.253500000000         6.748705777560178E-044
   138.492900000000         4.331218474208364E-044
   138.732300000000         5.358757234548205E-045