  -1.79550000000000         0.000000000000000E+000
  -1.55610000000000         0.000000000000000E+000
  -1.31670000000000         0.000000000000000E+000
  -1.07730000000000         0.000000000000000E+000
 -0.837900000000000         0.000000000000000E+000
 -0.598500000000000         0.000000000000000E+000
 -0.359100000000000         0.000000000000000E+000
 -0.119700000000000         0.000000000000000E+000
  0.119700000000000         0.000000000000000E+000
  0.359100000000000         0.000000000000000E+000
  0.598500000000000         0.000000000000000E+000
  0.837900000000000         0.000000000000000E+000
   1.07730000000000         0.000000000000000E+000
   1.31670000000000         0.000000000000000E+000
   1.55610000000000         0.000000000000000E+000
   1.79550000000000         0.000000000000000E+000
   2.03490000000000         0.000000000000000E+000
   2.27430000000000         0.000000000000000E+000
   2.51370000000000         0.000000000000000E+000
   2.75310000000000         0.000000000000000E+000
   2.99250000000000         0.000000000000000E+000
   3.23190000000000         0.000000000000000E+000
   3.47130000000000         0.000000000000000E+000
   3.71070000000000         0.000000000000000E+000
   3.95010000000000         0.000000000000000E+000
   4.18950000000000         0.000000000000000E+000
   4.42890000000000         0.000000000000000E+000
   4.66830000000000         0.000000000000000E+000
   4.90770000000000         0.000000000000000E+000
   5.14710000000000         0.000000000000000E+000
   5.38650000000000         0.000000000000000E+000
   5.62590000000000         0.000000000000000E+000
   5.86530000000000         0.000000000000000E+000
   6.10470000000000         0.000000000000000E+000
   6.34410000000000         0.000000000000000E+000
   6.58350000000000         0.000000000000000E+000
   6.82290000000000         2.145547955944004E-158
   7.06230000000000        -3.565250187723455E-150
   7.30170000000000         4.947642682957172E-146
   7.54110000000000         2.001614174014253E-144
   7.78050000000000         1.545363981095345E-142
   8.01990000000000         8.999408382868404E-141
   8.25930000000000         3.202518880503122E-139
   8.49870000000000         7.904509636357559E-138
   8.73810000000000         1.485309323060477E-136
   8.97750000000000         2.253931509743946E-135
   9.21690000000000         2.871880595906898E-134
   9.45630000000000         3.156774777318459E-133
   9.69570000000000         3.052626079580633E-132
   9.93510000000000         2.635138460476622E-131
   10.1745000000000         2.053442710300885E-130
   10.4139000000000         1.457049114610247E-129
   10.6533000000000         9.478053427899390E-129
   10.8927000000000         5.682063912032671E-128
   11.1321000000000         3.151924029106929E-127
   11.3715000000000         1.622457975998991E-126
   11.6109000000000         7.763433168210223E-126
   11.8503000000000         3.454839877230646E-125
   12.0897000000000         1.428323257063054E-124
   12.3291000000000         5.467798696487147E-124
   12.5685000000000         1.924776372429671E-123
   12.8079000000000         6.146035324627011E-123
   13.0473000000000         1.729841549847669E-122
   13.2867000000000         3.993396979072335E-122
   13.5261000000000         5.688009590830841E-122
   13.7655000000000        -8.766957610313371E-122
   14.0049000000000        -1.162983351137157E-120
   14.2443000000000        -6.201192971670004E-120
   14.4837000000000        -2.555868371263755E-119
   14.7231000000000        -9.072668225844261E-119
   14.9625000000000        -2.874109791531264E-118
   15.2019000000000        -8.219658130991613E-118
   15.4413000000000        -2.116696927354944E-117
   15.6807000000000        -4.815952280530950E-117
   15.9201000000000        -9.165873462261276E-117
   16.1595000000000        -1.198065549198983E-116
   16.3989000000000         3.840576002164108E-117
   16.6383000000000         9.990720071566111E-116
   16.8777000000000         4.624510931250084E-115
   17.1171000000000         1.597959043650773E-114
   17.3565000000000         4.797742600880009E-114
   17.5959000000000         1.327099645446087E-113
   17.8353000000000         3.514028812574356E-113
   18.0747000000000         9.218277261600188E-113
   18.3141000000000         2.471460046899470E-112
   18.5535000000000         6.909121288628585E-112
   18.7929000000000         2.016707131066713E-111
   19.0323000000000         6.055655975084271E-111
   19.2717000000000         1.832788743568273E-110
   19.5111000000000         5.496268751405118E-110
   19.7505000000000         1.615426735320200E-109
   19.9899000000000         4.627415184902575E-109
   20.2293000000000         1.289161223175754E-108
   20.4687000000000         3.492462487432239E-108
   20.7081000000000         9.207874458798263E-108
   20.9475000000000         2.365257025206202E-107
   21.1869000000000         5.926026920525936E-107
   21.4263000000000         1.449419450546353E-106
   21.6657000000000         3.462691313976822E-106
   21.9051000000000         8.082048159286345E-106
   22.1445000000000         1.842797927091783E-105
   22.3839000000000         4.103200386828308E-105
   22.6233000000000         8.916581169151282E-105
   22.8627000000000         1.889608104007944E-104
   23.1021000000000         3.901734217498059E-104
   23.3415000000000         7.842242306717074E-104
   23.5809000000000         1.532834486119719E-103
   23.8203000000000         2.910837933467105E-103
   24.0597000000000         5.366165363987234E-103
   24.2991000000000         9.598747392371649E-103
   24.5385000000000         1.666039435665069E-102
   24.7779000000000         2.808691447455875E-102
   25.0173000000000         4.610897322139698E-102
   25.2567000000000         7.408162743147477E-102
   25.4961000000000         1.174716612119699E-101
   25.7355000000000         1.860926335987757E-101
   25.9749000000000         2.987641339472637E-101
   26.2143000000000         4.919745356240173E-101
   26.4537000000000         8.337506379936436E-101
   26.6931000000000         1.441187984866768E-100
   26.9325000000000         2.491971223661043E-100
   27.1719000000000         4.202023634282974E-100
   27.4113000000000         6.707459386930728E-100
   27.6507000000000         9.735534791736839E-100
   27.8901000000000         1.188188396316211E-099
   28.1295000000000         9.258752889497731E-100
   28.3689000000000        -6.685677597463271E-100
   28.6083000000000        -5.211180994646533E-099
   28.8477000000000        -1.537146121530383E-098
   29.0871000000000        -3.494067800521878E-098
   29.3265000000000        -6.821767793774599E-098
   29.5659000000000        -1.179455077090335E-097
   29.8053000000000        -1.807610031336203E-097
   30.0447000000000        -2.391587785203463E-097
   30.2841000000000        -2.498239936659963E-097
   30.5235000000000        -1.305828418047949E-097
   30.7629000000000         2.470919184235449E-097
   31.0023000000000         1.045899151129621E-096
   31.2417000000000         2.408528195169561E-096
   31.4811000000000         4.334804655568509E-096
   31.7205000000000         6.473125665737338E-096
   31.9599000000000         7.848889113900110E-096
   32.1993000000000         6.641398522332601E-096
   32.4387000000000         2.688487582190809E-097
   32.6781000000000        -1.377481836204108E-095
   32.9175000000000        -3.576604467874095E-095
   33.1569000000000        -5.988621360329495E-095
   33.3963000000000        -6.911646772845412E-095
   33.6357000000000        -3.148498655045088E-095
   33.8751000000000         9.583956934863205E-095
   34.1145000000000         3.424309255271768E-094
   34.3539000000000         6.623058265766319E-094
   34.5933000000000         8.134700992543767E-094
   34.8327000000000         1.709426788828492E-094
   35.0721000000000        -2.494742678453206E-093
   35.3115000000000        -9.151997122498941E-093
   35.5509000000000        -2.227619356063462E-092
   35.7903000000000        -4.374416944005735E-092
   36.0297000000000        -7.209715886503789E-092
   36.2691000000000        -9.728104278105521E-092
   36.5085000000000        -9.225053090229274E-092
   36.7479000000000        -2.001695301698000E-093
   36.9873000000000         2.666544562064164E-091
   37.2267000000000         8.462523640679093E-091
   37.4661000000000         1.884862928040534E-090
   37.7055000000000         3.472150735421330E-090
   37.9449000000000         5.482494332531190E-090
   38.1843000000000         7.303640354803793E-090
   38.4237000000000         7.442232900936102E-090
   38.6631000000000         3.060280073479269E-090
   38.9025000000000        -1.037990214934877E-089
   39.1419000000000        -3.898556825032243E-089
   39.3813000000000        -8.917504452922505E-089
   39.6207000000000        -1.643732805523008E-088
   39.8601000000000        -2.586090835413019E-088
   40.0995000000000        -3.462389977439106E-088
   40.3389000000000        -3.681264833297589E-088
   40.5783000000000        -2.170503658045064E-088
   40.8177000000000         2.706316735594880E-088
   41.0571000000000         1.303890528955597E-087
   41.2965000000000         3.086116022872223E-087
   41.5359000000000         5.698231409576813E-087
   41.7753000000000         8.890364191389083E-087
   42.0147000000000         1.177183924834745E-086
   42.2541000000000         1.242980470080729E-086
   42.4935000000000         7.583827509957957E-087
   42.7329000000000        -7.496502419076666E-087
   42.9723000000000        -3.842986325347379E-086
   43.2117000000000        -8.998457891770338E-086
   43.4511000000000        -1.625623583387200E-085
   43.6905000000000        -2.464592321986688E-085
   43.9299000000000        -3.140356333967314E-085
   44.1693000000000        -3.111532374270356E-085
   44.4087000000000        -1.512864618268308E-085
   44.6481000000000         2.814341373142630E-085
   44.8875000000000         1.110798471537652E-084
   45.1269000000000         2.416912376334198E-084
   45.3663000000000         4.143272303671324E-084
   45.6057000000000         5.958338566429416E-084
   45.8451000000000         7.084764135031415E-084
   46.0845000000000         6.140974719876632E-084
   46.3239000000000         1.086936377918458E-084
   46.5633000000000        -1.057582620724300E-083
   46.8027000000000        -3.114568778471336E-083
   47.0421000000000        -6.138003888195859E-083
   47.2815000000000        -9.831275655825704E-083
   47.5209000000000        -1.322853929517561E-082
   47.7603000000000        -1.436828303246358E-082
   47.9997000000000        -1.005672392434021E-082
   48.2391000000000         4.065001027385004E-083
   48.4785000000000         3.283359839317316E-082
   48.7179000000000         7.986871667278447E-082
   48.9573000000000         1.445096039270725E-081
   49.1967000000000         2.172443652298743E-081
   49.4361000000000         2.740241040279355E-081
   49.6755000000000         2.707945497918251E-081
   49.9149000000000         1.409511303212981E-081
   50.1543000000000        -1.999141526473092E-081
   50.3937000000000        -8.360820933877410E-081
   50.6331000000000        -1.814139992142914E-080
   50.8725000000000        -3.081010789152150E-080
   51.1119000000000        -4.398386832453489E-080
   51.3513000000000        -5.245545939057926E-080
   51.5907000000000        -4.740332284662978E-080
   51.8301000000000        -1.631794676379566E-080
   52.0695000000000         5.556444898048844E-080
   52.3089000000000         1.813458315957963E-079
   52.5483000000000         3.651324205751505E-079
   52.7877000000000         5.908249791119682E-079
   53.0271000000000         8.077379872248006E-079
   53.2665000000000         9.158098778235525E-079
   53.5059000000000         7.561661625909102E-079
   53.7453000000000         1.164405478806339E-079
   53.9847000000000        -1.236319161920694E-078
   54.2241000000000        -3.480770554516011E-078
   54.4635000000000        -6.612825388698997E-078
   54.7029000000000        -1.026236382422997E-077
   54.9423000000000        -1.347495642802469E-077
   55.1817000000000        -1.451233957846825E-077
   55.4211000000000        -1.077090064641478E-077
   55.6605000000000         1.032488907960887E-078
   55.8999000000000         2.421899721515051E-077
   56.1393000000000         6.086097186757717E-077
   56.3787000000000         1.097328001172200E-076
   56.6181000000000         1.635721734812432E-076
   56.8575000000000         2.060674246342462E-076
   57.0969000000000         2.094939294892506E-076
   57.3363000000000         1.345508646564362E-076
   57.5757000000000        -6.543282125354502E-077
   57.8151000000000        -4.333988042179433E-076
   58.0545000000000        -9.883327694793961E-076
   58.2939000000000        -1.695107690549492E-075
   58.5333000000000        -2.426673870502561E-075
   58.7727000000000        -2.925950389296304E-075
   59.0121000000000        -2.781751368290038E-075
   59.2515000000000        -1.441047940758960E-075
   59.4909000000000         1.713301565927191E-075
   59.7303000000000         7.188158326901870E-075
   59.9697000000000         1.508569471384176E-074
   60.2091000000000         2.468942995767542E-074
   60.4485000000000         3.397649575283539E-074
   60.6879000000000         3.917126196911099E-074
   60.9273000000000         3.454461628878104E-074
   61.1667000000000         1.275687490107296E-074
   61.4061000000000        -3.389008849367185E-074
   61.6455000000000        -1.109325101475158E-073
   61.8849000000000        -2.177415155758569E-073
   62.1243000000000        -3.421734450122580E-073
   62.3637000000000        -4.546226462659776E-073
   62.6031000000000        -5.031070664671447E-073
   62.8425000000000        -4.120844111209815E-073
   63.0819000000000        -8.872841940882344E-074
   63.3213000000000         5.590096406068267E-073
   63.5607000000000         1.588659893297827E-072
   63.8001000000000         2.972107888116281E-072
   64.0395000000000         4.530061924814786E-072
   64.2789000000000         5.862754512760713E-072
   64.5183000000000         6.298012223325993E-072
   64.7577000000000         4.889890638669598E-072
   64.9971000000000         5.118341947331783E-073
   65.2365000000000        -7.907037491743840E-072
   65.4759000000000        -2.096213121275606E-071
   65.7153000000000        -3.815868159692416E-071
   65.9547000000000        -5.714792661656730E-071
   66.1941000000000        -7.294914875189648E-071
   66.4335000000000        -7.741007532912704E-071
   66.6729000000000        -5.928753126739127E-071
   66.9123000000000        -5.437818871616606E-072
   67.1517000000000         9.636168546121986E-071
   67.3911000000000         2.525537561799324E-070
   67.6305000000000         4.568434130534761E-070
   67.8699000000000         6.817217631893785E-070
   68.1093000000000         8.700223788386725E-070
   68.3487000000000         9.293017487759565E-070
   68.5881000000000         7.331581475890645E-070
   68.8275000000000         1.346443684406377E-070
   69.0669000000000        -1.002868407665971E-069
   69.3063000000000        -2.753378221952091E-069
   69.5457000000000        -5.054199095999742E-069
   69.7851000000000        -7.616566649326625E-069
   70.0245000000000        -9.837169756052801E-069
   70.2639000000000        -1.073924880364920E-068
   70.5033000000000        -8.984813371875171E-069
   70.7427000000000        -3.009355699832103E-069
   70.9821000000000         8.668233202014194E-069
   71.2215000000000         2.692183252117154E-068
   71.4609000000000         5.127816368103980E-068
   71.7003000000000         7.902329989243730E-068
   71.9397000000000         1.043122584028382E-067
   72.1791000000000         1.175549609249012E-067
   72.4185000000000         1.054722660138499E-067
   72.6579000000000         5.230636164258155E-068
   72.8973000000000        -5.731854731067928E-068
   73.1367000000000        -2.335176402616858E-067
   73.3761000000000        -4.742128993543656E-067
   73.6155000000000        -7.566935012496483E-067
   73.8549000000000        -1.029058910355774E-066
   74.0943000000000        -1.203974417038861E-066
   74.3337000000000        -1.158241351068556E-066
   74.5731000000000        -7.424986079718056E-067
   74.8125000000000         1.944909662713199E-067
   75.0519000000000         1.763572382805865E-066
   75.2913000000000         3.974331701463625E-066
   75.5307000000000         6.659918320507786E-066
   75.7701000000000         9.398940700113870E-066
   76.0095000000000         1.145459606916488E-065
   76.2489000000000         1.176030901866261E-065
   76.4883000000000         8.988255423892900E-066
   76.7277000000000         1.738860811573624E-066
   76.9671000000000        -1.111845155273341E-065
   77.2065000000000        -2.994457403327343E-065
   77.4459000000000        -5.369999785759976E-065
   77.6853000000000        -7.927024146423889E-065
   77.9247000000000        -1.009037292025451E-064
   78.1641000000000        -1.099922655906033E-064
   78.4035000000000        -9.548394712099879E-065
   78.6429000000000        -4.523824300626044E-065
   78.8823000000000         5.141845674595799E-065
   79.1217000000000         1.998338283027036E-064
   79.3611000000000         3.950486940632646E-064
   79.6005000000000         6.162963254728246E-064
   79.8399000000000         8.221151083243776E-064
   80.0793000000000         9.477775756532979E-064
   80.3187000000000         9.072200303446367E-064
   80.5581000000000         6.018649630463933E-064
   80.7975000000000        -6.156509956202431E-065
   81.0369000000000        -1.143177580060638E-063
   81.2763000000000        -2.632885714403432E-063
   81.5157000000000        -4.408098898853474E-063
   81.7551000000000        -6.193808518752068E-063
   81.9945000000000        -7.536938226662915E-063
   82.2339000000000        -7.810533631824755E-063
   82.4733000000000        -6.265332464026015E-063
   82.7127000000000        -2.144907232849534E-063
   82.9521000000000         5.125769098039428E-063
   83.1915000000000         1.568122644635795E-062
   83.4309000000000         2.890852214234592E-062
   83.6703000000000         4.314100951503346E-062
   83.9097000000000         5.543078154836346E-062
   84.1491000000000         6.150493222686498E-062
   84.3885000000000         5.602776252165610E-062
   84.6279000000000         3.328745544010623E-062
   84.8673000000000        -1.160972940956796E-062
   85.1067000000000        -8.103195098501589E-062
   85.3461000000000        -1.727194884935358E-061
   85.5855000000000        -2.775741185230436E-061
   85.8249000000000        -3.778220037489028E-061
   86.0643000000000        -4.462222986592060E-061
   86.3037000000000        -4.471291896760364E-061
   86.5431000000000        -3.402307643036258E-061
   86.7825000000000        -8.761122370110808E-062
   87.0219000000000         3.356535155134807E-061
   87.2613000000000         9.278945757321518E-061
   87.5007000000000         1.645802105174797E-060
   87.7401000000000         2.390730175797665E-060
   87.9795000000000         3.000423335200393E-060
   88.2189000000000         3.251241069828359E-060
   88.4583000000000         2.876313775926220E-060
   88.6977000000000         1.604322172477965E-060
   88.9371000000000        -7.786833775433061E-061
   89.1765000000000        -4.346125776903268E-060
   89.4159000000000        -8.934111791260102E-060
   89.6553000000000        -1.404622167539641E-059
   89.8947000000000        -1.878315172052525E-059
   90.1341000000000        -2.182751065208892E-059
   90.3735000000000        -2.151784905394856E-059
   90.6129000000000        -1.604388036883826E-059
   90.8523000000000        -3.784130364797747E-060
   91.0917000000000         1.621422359007658E-059
   91.3311000000000         4.364660269689797E-059
   91.5705000000000         7.632982069088793E-059
   91.8099000000000         1.096736573008955E-058
   92.0493000000000         1.364166165985208E-058
   92.2887000000000         1.468288713900283E-058
   92.5281000000000         1.295874830684887E-058
   92.7675000000000         7.348551408912063E-059
   93.0069000000000        -2.996649092463074E-059
   93.2463000000000        -1.831589500286774E-058
   93.4857000000000        -3.785691476081324E-058
   93.7251000000000        -5.951425335049587E-058
   93.9645000000000        -7.957835238248977E-058
   94.2039000000000        -9.271008719764361E-058
   94.4433000000000        -9.226484740828207E-058
   94.6827000000000        -7.107722675331224E-058
   94.9221000000000        -2.277305718850120E-058
   95.1615000000000         5.640634525814843E-058
   95.4009000000000         1.654033803128188E-057
   95.6403000000000         2.960548578727416E-057
   95.8797000000000         4.311693178676039E-057
   96.1191000000000         5.435788834924710E-057
   96.3585000000000         5.968716375508085E-057
   96.5979000000000         5.485052124013734E-057
   96.8373000000000         3.558430318200860E-057
   97.0767000000000        -1.470107229174622E-058
   97.3161000000000        -5.757977060688534E-057
   97.5555000000000        -1.305780821172932E-056
   97.7949000000000        -2.135750129199809E-056
   98.0343000000000        -2.940203118859791E-056
   98.2737000000000        -3.534950860083299E-056
   98.5131000000000        -3.686396055626638E-056
   98.7525000000000        -3.135877251225242E-056
   98.9919000000000        -1.641448279276385E-056
   99.2313000000000         9.630199600858091E-057
   99.4707000000000         4.695195174604432E-056
   99.7101000000000         9.346538486528036E-056
   99.9495000000000         1.441307057820757E-055
   100.188900000000         1.905311803623101E-055
   100.428300000000         2.209390332795525E-055
   100.667700000000         2.210938254688043E-055
   100.907100000000         1.758795634240324E-055
   101.146500000000         7.199305498903020E-056
   101.385900000000        -9.846105829501688E-056
   101.625300000000        -3.337316375184722E-055
   101.864700000000        -6.180864313287510E-055
   102.104100000000        -9.182084084452997E-055
   102.343500000000        -1.181394621265827E-054
   102.582900000000        -1.336774419401734E-054
   102.822300000000        -1.300734586073672E-054
   103.061700000000        -9.874603441139159E-055
   103.301100000000        -3.249132561637191E-055
   103.540500000000         7.243565200487223E-055
   103.779900000000         2.139397794128788E-054
   104.019300000000         3.817319194728056E-054
   104.258700000000         5.554757339499012E-054
   104.498100000000         7.040293434756960E-054
   104.737500000000         7.864363712770172E-054
   104.976900000000         7.552820974874926E-054
   105.216300000000         5.628551075048655E-054
   105.455700000000         1.702152470568694E-054
   105.695100000000        -4.412436621142189E-054
   105.934500000000        -1.256812376512340E-053
   106.173900000000        -2.215899875191823E-053
   106.413300000000        -3.202464435784587E-053
   106.652700000000        -4.041617662627079E-053
   106.892100000000        -4.505833815231555E-053
   107.131500000000        -4.333920178166107E-053
   107.370900000000        -3.264911037360341E-053
   107.610300000000        -1.087209266439361E-053
   107.849700000000         2.299411321736024E-053
   108.089100000000         6.814788769827911E-053
   108.328500000000         1.213207704666805E-052
   108.567900000000         1.762769459733197E-052
   108.807300000000         2.236397857167413E-052
   109.046700000000         2.512218427409065E-052
   109.286100000000         2.450191011333945E-052
   109.525500000000         1.909783697443636E-052
   109.764900000000         7.755235853783421E-053
   110.004300000000        -1.010807811064857E-052
   110.243700000000        -3.414312987809017E-052
   110.483100000000        -6.272383925861246E-052
   110.722500000000        -9.268205042757608E-052
   110.961900000000        -1.192065549855169E-051
   111.201300000000        -1.359951174820977E-051
   111.440700000000        -1.357410026691318E-051
   111.680100000000        -1.110101409443847E-051
   111.919500000000        -5.551887913119607E-052
   112.158900000000         3.424523787642856E-052
   112.398300000000         1.572029006204283E-051
   112.637700000000         3.059021419311605E-051
   112.877100000000         4.651105767675621E-051
   113.116500000000         6.111884054854032E-051
   113.355900000000         7.126827550795014E-051
   113.595300000000         7.325527148872631E-051
   113.834700000000         6.323179903685629E-051
   114.074100000000         3.782077653608833E-051
   114.313500000000        -5.093300310319168E-052
   114.552900000000        -6.546313550415509E-051
   114.792300000000        -1.401782814425014E-050
   115.031700000000        -2.223230158288441E-050
   115.271100000000        -3.007870927182928E-050
   115.510500000000        -3.604427053677683E-050
   115.749900000000        -3.830902875000418E-050
   115.989300000000        -3.493256028803570E-050
   116.228700000000        -2.413836531299298E-050
   116.468100000000        -4.686915187553398E-051
   116.707500000000         2.369058652660148E-050
   116.946900000000         5.984741757293762E-050
   117.186300000000         1.008371835717273E-049
   117.425700000000         1.416804767209860E-049
   117.665100000000         1.753830531172892E-049
   117.904500000000         1.933037944180771E-049
   118.143900000000         1.859505835078679E-049
   118.383300000000         1.442408167285451E-049
   118.622700000000         6.119923157681883E-050
   118.862100000000        -6.601901244573965E-050
   119.101500000000        -2.339913002589645E-049
   119.340900000000        -4.310905431904604E-049
   119.580300000000        -6.361522939675588E-049
   119.819700000000        -8.182077164867674E-049
   120.059100000000        -9.377468864151379E-049
   120.298500000000        -9.499030881092591E-049
   120.537900000000        -8.097811378257878E-049
   120.777300000000        -4.798830846822554E-049
   121.016700000000         6.078144167517073E-050
   121.256100000000         8.067516343026814E-049
   121.495500000000         1.716656383259694E-048
   121.734900000000         2.705984762627948E-048
   121.974300000000         3.644134475777005E-048
   122.213700000000         4.357868560431453E-048
   122.453100000000         4.643074224476394E-048
   122.692500000000         4.286081554251791E-048
   122.931900000000         3.094717761978357E-048
   123.171300000000         9.377540276168425E-049
   123.410700000000        -2.210469023198296E-048
   123.650100000000        -6.225501856275409E-048
   123.889500000000        -1.079556178671884E-047
   124.128900000000        -1.540038165625875E-047
   124.368300000000        -1.931557343577457E-047
   124.607700000000        -2.165136727976726E-047
   124.847100000000        -2.143236730241212E-047
   125.086500000000        -1.772086376675978E-047
   125.325900000000        -9.780225728903561E-048
   125.565300000000         2.732768695370641E-048
   125.804700000000         1.956650402745238E-047
   126.044100000000         3.969255802738716E-047
   126.283500000000         6.117911078636222E-047
   126.522900000000         8.116000630382453E-047
   126.762300000000         9.593931789292262E-047
   127.001700000000         1.012644234489030E-046
   127.241100000000         9.278610902950800E-047
   127.480500000000         6.670163735283148E-047
   127.719900000000         2.054669767178971E-047
   127.959300000000        -4.593325595348329E-047
   128.198700000000        -1.299389612934991E-046
   128.438100000000        -2.249411054276083E-046
   128.677500000000        -3.203364203313310E-046
   128.916900000000        -4.016077493760310E-046
   129.156300000000        -4.511428670945970E-046
   129.395700000000        -4.498202888978437E-046
   129.635100000000        -3.793908943317983E-046
   129.874500000000        -2.255726789777068E-046
   130.113900000000         1.836171153566331E-047
   130.353300000000         3.478768642008746E-046
   130.592700000000         7.438659379292516E-046
   130.832100000000         1.170381544051255E-045
   131.071500000000         1.574110852566780E-045
   131.310900000000         1.886280131916525E-045
   131.550300000000         2.027544744804751E-045
   131.789700000000         1.916163951855917E-045
   132.029100000000         1.479371077531741E-045
   132.268500000000         6.673422211344791E-046
   132.507900000000        -5.314234984479086E-046
   132.747300000000        -2.075112225730525E-045
   132.986700000000        -3.856344885052231E-045
   133.226100000000        -5.695410985928916E-045
   133.465500000000        -7.341846251008729E-045
   133.704900000000        -8.486948205726511E-045
   133.944300000000        -8.789089208330785E-045
   134.183700000000        -7.912435196975704E-045
   134.423100000000        -5.577923455514293E-045
   134.662500000000        -1.623184336300442E-045
   134.901900000000         3.934309958369012E-045
   135.141300000000         1.083894956642745E-044
   135.380700000000         1.855359389161132E-044
   135.620100000000         2.624229491628473E-044
   135.859500000000         3.279027933599281E-044
   136.098900000000         3.687063587995139E-044
   136.338300000000         3.706355149031444E-044
   136.577700000000         3.202833155533380E-044
   136.817100000000         2.072098062951891E-044
   137.056500000000         2.641279653275446E-045
   137.295900000000        -2.191611232894954E-044
   137.535300000000        -5.164082657317974E-044
   137.774700000000        -8.405731958376211E-044
   138.014100000000        -1.154910480774414E-043
   138.253500000000        -1.411925104507872E-043
   138.492900000000        -1.556527418459395E-043
   138.732300000000        -1.531277447705004E-043