  -1.79550000000000         0.000000000000000E+000
  -1.55610000000000         0.000000000000000E+000
  -1.31670000000000         0.000000000000000E+000
  -1.07730000000000         0.000000000000000E+000
 -0.837900000000000         0.000000000000000E+000
 -0.598500000000000         0.000000000000000E+000
 -0.359100000000000         0.000000000000000E+000
 -0.119700000000000         0.000000000000000E+000
  0.119700000000000         0.000000000000000E+000
  0.359100000000000         0.000000000000000E+000
  0.598500000000000         0.000000000000000E+000
  0.837900000000000         0.000000000000000E+000
   1.07730000000000         0.000000000000000E+000
   1.31670000000000         0.000000000000000E+000
   1.55610000000000         0.000000000000000E+000
   1.79550000000000         0.000000000000000E+000
   2.03490000000000         0.000000000000000E+000
   2.27430000000000         0.000000000000000E+000
   2.51370000000000         0.000000000000000E+000
   2.75310000000000         0.000000000000000E+000
   2.99250000000000         0.000000000000000E+000
   3.23190000000000         0.000000000000000E+000
   3.47130000000000         0.000000000000000E+000
   3.71070000000000         0.000000000000000E+000
   3.95010000000000         0.000000000000000E+000
   4.18950000000000         0.000000000000000E+000
   4.42890000000000         0.000000000000000E+000
   4.66830000000000         0.000000000000000E+000
   4.90770000000000         0.000000000000000E+000
   5.14710000000000         0.000000000000000E+000
   5.38650000000000         0.000000000000000E+000
   5.62590000000000         0.000000000000000E+000
   5.86530000000000         0.000000000000000E+000
   6.10470000000000         0.000000000000000E+000
   6.34410000000000         0.000000000000000E+000
   6.58350000000000         0.000000000000000E+000
   6.82290000000000         0.000000000000000E+000
   7.06230000000000        -9.068898924472267E-159
   7.30170000000000         2.743240524540387E-151
   7.54110000000000        -1.084585396599287E-146
   7.78050000000000        -5.445600971569050E-145
   8.01990000000000         2.847065240619172E-144
   8.25930000000000         9.285799050289780E-142
   8.49870000000000         3.758225038941217E-140
   8.73810000000000         9.116800687165441E-139
   8.97750000000000         1.613368990337745E-137
   9.21690000000000         2.264008780511402E-136
   9.45630000000000         2.646199438918370E-135
   9.69570000000000         2.667296846068294E-134
   9.93510000000000         2.384325175204139E-133
   10.1745000000000         1.936880364505046E-132
   10.4139000000000         1.461256809106597E-131
   10.6533000000000         1.042666186633876E-130
   10.8927000000000         7.127615099132298E-130
   11.1321000000000         4.697042587204529E-129
   11.3715000000000         2.984143029750820E-128
   11.6109000000000         1.820742063534930E-127
   11.8503000000000         1.061324340678902E-126
   12.0897000000000         5.882765050140115E-126
   12.3291000000000         3.090193362180556E-125
   12.5685000000000         1.535303735533305E-124
   12.8079000000000         7.207930131053199E-124
   13.0473000000000         3.197034877358998E-123
   13.2867000000000         1.339950154810414E-122
   13.5261000000000         5.308680955513958E-122
   13.7655000000000         1.988824176624378E-121
   14.0049000000000         7.047707376474514E-121
   14.2443000000000         2.363004437717898E-120
   14.4837000000000         7.499930452962403E-120
   14.7231000000000         2.256101114207016E-119
   14.9625000000000         6.452546823720642E-119
   15.2019000000000         1.767582618339004E-118
   15.4413000000000         4.710970113772916E-118
   15.6807000000000         1.257451256536552E-117
   15.9201000000000         3.506233273095573E-117
   16.1595000000000         1.062047330019622E-116
   16.3989000000000         3.521854572467297E-116
   16.6383000000000         1.241080483152450E-115
   16.8777000000000         4.455895852589135E-115
   17.1171000000000         1.578623898049511E-114
   17.3565000000000         5.422136768107360E-114
   17.5959000000000         1.791828976649262E-113
   17.8353000000000         5.684504463302834E-113
   18.0747000000000         1.731809927136139E-112
   18.3141000000000         5.073572388257607E-112
   18.5535000000000         1.431725235701076E-111
   18.7929000000000         3.897980700572073E-111
   19.0323000000000         1.025304034871281E-110
   19.2717000000000         2.608238311034920E-110
   19.5111000000000         6.420725197956540E-110
   19.7505000000000         1.529653228486182E-109
   19.9899000000000         3.524634960939241E-109
   20.2293000000000         7.843452011190326E-109
   20.4687000000000         1.681131113696543E-108
   20.7081000000000         3.454857044242654E-108
   20.9475000000000         6.756404355518193E-108
   21.1869000000000         1.240983131805128E-107
   21.4263000000000         2.087892131003542E-107
   21.6657000000000         3.039113345177308E-107
   21.9051000000000         3.170015198995260E-107
   22.1445000000000        -4.805233010480810E-108
   22.3839000000000        -1.581068934329973E-106
   22.6233000000000        -6.171204038975374E-106
   22.8627000000000        -1.798690719528228E-105
   23.1021000000000        -4.562073943205400E-105
   23.3415000000000        -1.057087816866498E-104
   23.5809000000000        -2.285422065061373E-104
   23.8203000000000        -4.659154120365797E-104
   24.0597000000000        -9.007217686925574E-104
   24.2991000000000        -1.656697639896629E-103
   24.5385000000000        -2.906311473803141E-103
   24.7779000000000        -4.878775236252361E-103
   25.0173000000000        -7.887665333401548E-103
   25.2567000000000        -1.244752144432284E-102
   25.4961000000000        -1.966397512785834E-102
   25.7355000000000        -3.230976941274151E-102
   25.9749000000000        -5.738729828669461E-102
   26.2143000000000        -1.115280207349357E-101
   26.4537000000000        -2.311333945375699E-101
   26.6931000000000        -4.891944711409193E-101
   26.9325000000000        -1.019006239601148E-100
   27.1719000000000        -2.039156972889605E-100
   27.4113000000000        -3.860402878035841E-100
   27.6507000000000        -6.828283957547059E-100
   27.8901000000000        -1.111097655483521E-099
   28.1295000000000        -1.618015698893853E-099
   28.3689000000000        -1.976747692545588E-099
   28.6083000000000        -1.605231595291732E-099
   28.8477000000000         7.064760643209792E-100
   29.0871000000000         7.137574945479766E-099
   29.3265000000000         2.113875586876915E-098
   29.5659000000000         4.743327046038604E-098
   29.8053000000000         9.122314534623632E-098
   30.0447000000000         1.558262375565092E-097
   30.2841000000000         2.377398894999551E-097
   30.5235000000000         3.181500064936721E-097
   30.7629000000000         3.504842645686484E-097
   31.0023000000000         2.450621179207386E-097
   31.2417000000000        -1.456920925050171E-097
   31.4811000000000        -1.035231375909197E-096
   31.7205000000000        -2.696567299123232E-096
   31.9599000000000        -5.438010747871846E-096
   32.1993000000000        -9.571049694914137E-096
   32.4387000000000        -1.540691983579482E-095
   32.6781000000000        -2.335116570832400E-095
   32.9175000000000        -3.417444686941900E-095
   33.1569000000000        -4.944859006046130E-095
   33.3963000000000        -7.180882376882617E-095
   33.6357000000000        -1.039242979830023E-094
   33.8751000000000        -1.435945160897928E-094
   34.1145000000000        -1.701456720036300E-094
   34.3539000000000        -1.146899225447568E-094
   34.5933000000000         1.946071717458195E-094
   34.8327000000000         1.117690421705832E-093
   35.0721000000000         3.308654734052789E-093
   35.3115000000000         7.796149057126327E-093
   35.5509000000000         1.591990196111966E-092
   35.7903000000000         2.888841677670206E-092
   36.0297000000000         4.656537903840433E-092
   36.2691000000000         6.493418468155301E-092
   36.5085000000000         7.164029043209393E-092
   36.7479000000000         3.928845457663173E-092
   36.9873000000000        -8.286085190764485E-092
   37.2267000000000        -3.759907202336792E-091
   37.4661000000000        -9.509146652561786E-091
   37.7055000000000        -1.926676372024583E-090
   37.9449000000000        -3.368306285286566E-090
   38.1843000000000        -5.156394453037763E-090
   38.4237000000000        -6.759548615590442E-090
   38.6631000000000        -6.893913650097550E-090
   38.9025000000000        -3.095942112979138E-090
   39.1419000000000         8.676163199549498E-090
   39.3813000000000         3.414251478966486E-089
   39.6207000000000         8.000657615409432E-089
   39.8601000000000         1.516920584035962E-088
   40.0995000000000         2.484925071963236E-088
   40.3389000000000         3.550723139082643E-088
   40.5783000000000         4.287188971030757E-088
   40.8177000000000         3.831443131568929E-088
   41.0571000000000         7.249220571136587E-089
   41.2965000000000        -7.160225052049669E-088
   41.5359000000000        -2.245656345273866E-087
   41.7753000000000        -4.766763960946910E-087
   42.0147000000000        -8.376787085095821E-087
   42.2541000000000        -1.277340960552075E-086
   42.4935000000000        -1.688420737006148E-086
   42.7329000000000        -1.839431391052408E-086
   42.9723000000000        -1.326822542514710E-086
   43.2117000000000         4.518628566368745E-087
   43.4511000000000         4.266112655133411E-086
   43.6905000000000         1.090624262916859E-085
   43.9299000000000         2.085398060508033E-085
   44.1693000000000         3.370362838671271E-085
   44.4087000000000         4.730321388737611E-085
   44.6481000000000         5.667475092150014E-085
   44.8875000000000         5.293676507986717E-085
   45.1269000000000         2.269978376455010E-085
   45.3663000000000        -5.128174681740517E-085
   45.6057000000000        -1.871070549821389E-084
   45.8451000000000        -3.971130099260044E-084
   46.0845000000000        -6.765799372739912E-084
   46.3239000000000        -9.875654393440828E-084
   46.5633000000000        -1.239544599698787E-083
   46.8027000000000        -1.271642493106549E-083
   47.0421000000000        -8.455206264672825E-084
   47.2815000000000         3.372306752025932E-084
   47.5209000000000         2.575596872076767E-083
   47.7603000000000         6.049956772566198E-083
   47.9997000000000         1.063324881338977E-082
   48.2391000000000         1.564218680942278E-082
   48.4785000000000         1.957358645639360E-082
   48.7179000000000         1.992233393239869E-082
   48.9573000000000         1.323876697536424E-082
   49.1967000000000        -4.362951656743178E-083
   49.4361000000000        -3.601900480709207E-082
   49.6755000000000        -8.209655442492764E-082
   49.9149000000000        -1.373960268845413E-081
   50.1543000000000        -1.880318762576643E-081
   50.3937000000000        -2.090555390565229E-081
   50.6331000000000        -1.646346607747945E-081
   50.8725000000000        -1.330731874175904E-082
   51.1119000000000         2.788735821903728E-081
   51.3513000000000         7.151537396354130E-081
   51.5907000000000         1.235008297663314E-080
   51.8301000000000         1.675972119190140E-080
   52.0695000000000         1.742404497713535E-080
   52.3089000000000         1.002600527742213E-080
   52.5483000000000        -1.054777028213562E-080
   52.7877000000000        -4.868191801030433E-080
   53.0271000000000        -1.052220755708892E-079
   53.2665000000000        -1.732816099585036E-079
   53.5059000000000        -2.330645179035045E-079
   53.7453000000000        -2.469293972792845E-079
   53.9847000000000        -1.570522254292565E-079
   54.2241000000000         1.106837511313955E-079
   54.4635000000000         6.319227479506514E-079
   54.7029000000000         1.453434025442555E-078
   54.9423000000000         2.544012109897975E-078
   55.1817000000000         3.728166874459767E-078
   55.4211000000000         4.612337627645743E-078
   55.6605000000000         4.525486810174150E-078
   55.8999000000000         2.510736904825621E-078
   56.1393000000000        -2.581100049902371E-078
   56.3787000000000        -1.183771061510996E-077
   56.6181000000000        -2.582068570582873E-077
   56.8575000000000        -4.387350772318290E-077
   57.0969000000000        -6.325505242787385E-077
   57.3363000000000        -7.826124229116530E-077
   57.5757000000000        -7.964016315850669E-077
   57.8151000000000        -5.475572795541752E-077
   58.0545000000000         1.093856351307275E-077
   58.2939000000000         1.305670082605439E-076
   58.5333000000000         3.103166206172731E-076
   58.7727000000000         5.419412270826583E-076
   59.0121000000000         7.943542091341334E-076
   59.2515000000000         1.006531262101648E-075
   59.4909000000000         1.085158332801899E-075
   59.7303000000000         9.113007456398831E-076
   59.9697000000000         3.601872816055193E-076
   60.2091000000000        -6.637808296757810E-076
   60.4485000000000        -2.179157252377278E-075
   60.6879000000000        -4.076244396980011E-075
   60.9273000000000        -6.081155913099941E-075
   61.1667000000000        -7.762341548539713E-075
   61.4061000000000        -8.610471162915476E-075
   61.6455000000000        -8.214995614586857E-075
   61.8849000000000        -6.534410539394454E-075
   62.1243000000000        -4.206091783017991E-075
   62.3637000000000        -2.764664819478033E-075
   62.6031000000000        -4.545171096957089E-075
   62.8425000000000        -1.196589817656789E-074
   63.0819000000000        -2.586496433282749E-074
   63.3213000000000        -4.267670998242900E-074
   63.5607000000000        -5.056513417195666E-074
   63.8001000000000        -2.526034695118240E-074
   64.0395000000000         7.270034204832101E-074
   64.2789000000000         2.964218879378849E-073
   64.5183000000000         7.026968504574046E-073
   64.7577000000000         1.328886767312363E-072
   64.9971000000000         2.152536009881752E-072
   65.2365000000000         3.032630216803215E-072
   65.4759000000000         3.637886766034632E-072
   65.7153000000000         3.378195283345070E-072
   65.9547000000000         1.370214434692495E-072
   66.1941000000000        -3.514600114335936E-072
   66.4335000000000        -1.245594169067193E-071
   66.6729000000000        -2.627519881641960E-071
   66.9123000000000        -4.475599788208372E-071
   67.1517000000000        -6.568892775451365E-071
   67.3911000000000        -8.373069850103822E-071
   67.6305000000000        -8.931944527938726E-071
   67.8699000000000        -6.809032671679435E-071
   68.1093000000000        -1.462705253652034E-072
   68.3487000000000         1.307358167016072E-070
   68.5881000000000         3.446788530519696E-070
   68.8275000000000         6.432545464003046E-070
   69.0669000000000         1.002977069371228E-069
   69.3063000000000         1.358189717033345E-069
   69.5457000000000         1.585512124533337E-069
   69.7851000000000         1.493939017081088E-069
   70.0245000000000         8.287335075516554E-070
   70.2639000000000        -7.003924472205345E-070
   70.5033000000000        -3.355440145359798E-069
   70.7427000000000        -7.261343034767854E-069
   70.9821000000000        -1.224974100641098E-068
   71.2215000000000        -1.766591757794205E-068
   71.4609000000000        -2.216984571632819E-068
   71.7003000000000        -2.358918875490273E-068
   71.9397000000000        -1.891231064515234E-068
   72.1791000000000        -4.536032201964075E-069
   72.4185000000000         2.310501322789363E-068
   72.6579000000000         6.641807486920016E-068
   72.8973000000000         1.249962965380738E-067
   73.1367000000000         1.935104579300965E-067
   73.3761000000000         2.594330684008818E-067
   73.6155000000000         3.011483224965402E-067
   73.8549000000000         2.873081956311091E-067
   74.0943000000000         1.785763009481738E-067
   74.3337000000000        -6.694553935660872E-068
   74.5731000000000        -4.834278461447714E-067
   74.8125000000000        -1.081527430740459E-066
   75.0519000000000        -1.827604831903086E-066
   75.2913000000000        -2.620263316071396E-066
   75.5307000000000        -3.268997035138273E-066
   75.7701000000000        -3.482612384151326E-066
   76.0095000000000        -2.877833966570611E-066
   76.2489000000000        -1.020246436104825E-066
   76.4883000000000         2.490753275061374E-066
   76.7277000000000         7.885437686979327E-066
   76.9671000000000         1.503725684049208E-065
   77.2065000000000         2.324307232694624E-065
   77.4459000000000         3.100778086931842E-065
   77.6853000000000         3.589600057012692E-065
   77.9247000000000         3.453837333785845E-065
   78.1641000000000         2.289781378258896E-065
   78.4035000000000        -3.098016963221942E-066
   78.6429000000000        -4.647924695644443E-065
   78.8823000000000        -1.077001595559205E-064
   79.1217000000000        -1.827542694787940E-064
   79.3611000000000        -2.612082928353391E-064
   79.6005000000000        -3.246276769715361E-064
   79.8399000000000        -3.460759804574408E-064
   80.0793000000000        -2.915355779362039E-064
   80.3187000000000        -1.241446939778308E-064
   80.5581000000000         1.880135309094949E-064
   80.7975000000000         6.602919427163783E-064
   81.0369000000000         1.276579494969172E-063
   81.2763000000000         1.972885501981539E-063
   81.5157000000000         2.622705537349985E-063
   81.7551000000000         3.029116085771432E-063
   81.9945000000000         2.929955101039961E-063
   82.2339000000000         2.023098362787882E-063
   82.4733000000000         1.809264872693187E-065
   82.7127000000000        -3.282425652542421E-063
   82.9521000000000        -7.873579919419770E-063
   83.1915000000000        -1.342178905768837E-062
   83.4309000000000        -1.914229267429062E-062
   83.6703000000000        -2.371414322381142E-062
   83.9097000000000        -2.527729949945530E-062
   84.1491000000000        -2.156314638148553E-062
   84.3885000000000        -1.020758991591683E-062
   84.6279000000000         1.071997335220112E-062
   84.8673000000000         4.197228419105982E-062
   85.1067000000000         8.221888928018998E-062
   85.3461000000000         1.271070511724318E-061
   85.5855000000000         1.685006990176410E-061
   85.8249000000000         1.941916768597191E-061
   86.0643000000000         1.884361940587090E-061
   86.3037000000000         1.336757560235187E-061
   86.5431000000000         1.372377639303255E-062
   86.7825000000000        -1.814935692974759E-061
   87.0219000000000        -4.498803630974511E-061
   87.2613000000000        -7.704946113447212E-061
   87.5007000000000        -1.097504603877656E-060
   87.7401000000000        -1.356602814837372E-060
   87.9795000000000        -1.446164113657968E-060
   88.2189000000000        -1.245611481807877E-060
   88.4583000000000        -6.331386283715488E-061
   88.6977000000000         4.860677093907941E-061
   88.9371000000000         2.141813069018069E-060
   89.1765000000000         4.254522821628685E-060
   89.4159000000000         6.591395317590969E-060
   89.6553000000000         8.733720167292330E-060
   89.8947000000000         1.006934915960055E-059
   90.1341000000000         9.826232150917218E-060
   90.3735000000000         7.162193067374037E-060
   90.6129000000000         1.321427384183365E-060
   90.8523000000000        -8.141525686306896E-060
   91.0917000000000        -2.108483776849594E-059
   91.3311000000000        -3.648423147963379E-059
   91.5705000000000        -5.217765952745325E-059
   91.8099000000000        -6.473048181577219E-059
   92.0493000000000        -6.951814705064534E-059
   92.2887000000000        -6.112635831436409E-059
   92.5281000000000        -3.415044515254967E-059
   92.7675000000000         1.557101603569526E-059
   93.0069000000000         8.933294421804788E-059
   93.2463000000000         1.837075759537861E-058
   93.4857000000000         2.887485260604292E-058
   93.7251000000000         3.866911639649121E-058
   93.9645000000000         4.517061314018639E-058
   94.2039000000000         4.513227847491971E-058
   94.4433000000000         3.500933835667532E-058
   94.6827000000000         1.158720115597724E-058
   94.9221000000000        -2.713002240901624E-058
   95.1615000000000        -8.082918299117576E-058
   95.4009000000000        -1.457298568604698E-057
   95.6403000000000        -2.135767115468433E-057
   95.8797000000000        -2.710814043323289E-057
   96.1191000000000        -3.001695794692500E-057
   96.3585000000000        -2.793969611195564E-057
   96.5979000000000        -1.868324924912620E-057
   96.8373000000000        -4.542541438468183E-059
   97.0767000000000         2.754657018662157E-057
   97.3161000000000         6.443684877720285E-057
   97.5555000000000         1.069710742667570E-056
   97.7949000000000         1.490134915313288E-056
   98.0343000000000         1.813555856719340E-056
   98.2737000000000         1.920911209894387E-056
   98.5131000000000         1.677508085054545E-056
   98.7525000000000         9.533998694572782E-057
   98.9919000000000        -3.469499898003488E-057
   99.2313000000000        -2.247270663517842E-056
   99.4707000000000        -4.658282573034273E-056
   99.7101000000000        -7.339346181445019E-056
   99.9495000000000        -9.872295051861001E-056
   100.188900000000        -1.165884962255061E-055
   100.428300000000        -1.195373317619584E-055
   100.667700000000        -9.944209916305865E-056
   100.907100000000        -4.882505914730726E-056
   101.146500000000         3.730040206357968E-056
   101.385900000000         1.591927215716633E-055
   101.625300000000         3.100095435642184E-055
   101.864700000000         4.737112031398550E-055
   102.104100000000         6.237930942139455E-055
   102.343500000000         7.234971592377084E-055
   102.582900000000         7.281667549308599E-055
   102.822300000000         5.902980917490811E-055
   103.061700000000         2.675691776403108E-055
   103.301100000000        -2.663273083937892E-055
   103.540500000000        -1.008852457233645E-054
   103.779900000000        -1.915362953427666E-054
   104.019300000000        -2.887812871211306E-054
   104.258700000000        -3.768527847208268E-054
   104.498100000000        -4.342620198475067E-054
   104.737500000000        -4.352589525352833E-054
   104.976900000000        -3.527936227772311E-054
   105.216300000000        -1.631029680101393E-054
   105.455700000000         1.482069425653252E-054
   105.695100000000         5.790576831332871E-054
   105.934500000000         1.103658146217571E-053
   106.173900000000         1.666437059059093E-053
   106.413300000000         2.178827856073796E-053
   106.652700000000         2.520803877620840E-053
   106.892100000000         2.549021323335850E-053
   107.131500000000         2.113021137441935E-053
   107.370900000000         1.080083905515343E-053
   107.610300000000        -6.320144981196671E-054
   107.849700000000        -3.016898704043756E-053
   108.089100000000        -5.940811794048063E-053
   108.328500000000        -9.110011077730787E-053
   108.567900000000        -1.205307566864873E-052
   108.807300000000        -1.412795405970012E-052
   109.046700000000        -1.456335126778907E-052
   109.286100000000        -1.254197558277155E-052
   109.525500000000        -7.328817860355496E-053
   109.764900000000         1.559160862940693E-053
   110.004300000000         1.415462134452283E-052
   110.243700000000         2.983606522206488E-052
   110.483100000000         4.715304273695750E-052
   110.722500000000         6.372425036844681E-052
   110.961900000000         7.625815168638319E-052
   111.201300000000         8.074504752673909E-052
   111.440700000000         7.285979105321373E-052
   111.680100000000         4.859353241354008E-052
   111.919500000000         5.100040333632478E-053
   112.158900000000        -5.830192466599487E-052
   112.398300000000        -1.390809137979096E-051
   112.637700000000        -2.305650098490079E-051
   112.877100000000        -3.213473928622201E-051
   113.116500000000        -3.952694803038043E-051
   113.355900000000        -4.322267128423019E-051
   113.595300000000        -4.100004691072187E-051
   113.834700000000        -3.072254078470241E-051
   114.074100000000        -1.074495989719648E-051
   114.313500000000         1.959621044234575E-051
   114.552900000000         5.945794513297218E-051
   114.792300000000         1.060074881274218E-050
   115.031700000000         1.540810488151621E-050
   115.271100000000         1.961011629685968E-050
   115.510500000000         2.223727417041186E-050
   115.749900000000         2.218618561707703E-050
   115.989300000000         1.835211297054840E-050
   116.228700000000         9.815840515142969E-051
   116.468100000000        -3.924822294376057E-051
   116.707500000000        -2.270004769667250E-050
   116.946900000000        -4.542309789528488E-050
   117.186300000000        -6.990084760878526E-050
   117.425700000000        -9.275376953025588E-050
   117.665100000000        -1.095025360930794E-049
   117.904500000000        -1.148731337691253E-049
   118.143900000000        -1.033563761181597E-049
   118.383300000000        -7.002942045471106E-050
   118.622700000000        -1.160628433258121E-050
   118.862100000000         7.236660032045859E-050
   119.101500000000         1.783106052750987E-049
   119.340900000000         2.976072936764952E-049
   119.580300000000         4.160240259394354E-049
   119.819700000000         5.138359871454025E-049
   120.059100000000         5.668952491968708E-049
   120.298500000000         5.488389686320642E-049
   120.537900000000         4.345165189219768E-049
   120.777300000000         2.045472378429258E-049
   121.016700000000        -1.492971355365231E-049
   121.256100000000        -6.184415918845099E-049
   121.495500000000        -1.172399527329920E-048
   121.734900000000        -1.755237448488295E-048
   121.974300000000        -2.284778894513676E-048
   122.213700000000        -2.655712619446949E-048
   122.453100000000        -2.747581515410965E-048
   122.692500000000        -2.438213712815830E-048
   122.931900000000        -1.622498666429437E-048
   123.171300000000        -2.355243912474683E-049
   123.410700000000         1.721965089577516E-048
   123.650100000000         4.158955050004769E-048
   123.889500000000         6.874584057607831E-048
   124.128900000000         9.548551119066420E-048
   124.368300000000         1.174669375582839E-047
   124.607700000000         1.294644257504927E-047
   124.847100000000         1.258546494344863E-047
   125.086500000000         1.013439802544199E-047
   125.325900000000         5.191151533120911E-048
   125.565300000000        -2.409994232323084E-048
   125.804700000000        -1.248599604727752E-047
   126.044100000000        -2.440549704319968E-047
   126.283500000000        -3.702205017292120E-047
   126.522900000000        -4.866212883124440E-047
   126.762300000000        -5.718938153114655E-047
   127.001700000000        -6.016255909681792E-047
   127.241100000000        -5.509644675367359E-047
   127.480500000000        -3.982278793038169E-047
   127.719900000000        -1.293199145355706E-047
   127.959300000000         2.574251226790888E-047
   128.198700000000         7.465514571540547E-047
   128.438100000000         1.301700483911927E-046
   128.677500000000         1.863623872087253E-046
   128.916900000000         2.350914228981386E-046
   129.156300000000         2.664290710027498E-046
   129.395700000000         2.695037625326227E-046
   129.635100000000         2.337784653598828E-046
   129.874500000000         1.507240848489214E-046
   130.113900000000         1.577799388510067E-047
   130.353300000000        -1.696019961976268E-046
   130.592700000000        -3.960563605935623E-046
   130.832100000000        -6.449491003678636E-046
   131.071500000000        -8.878724298042908E-046
   131.310900000000        -1.087401910849975E-045
   131.550300000000        -1.199416752323544E-045
   131.789700000000        -1.177179550588759E-045
   132.029100000000        -9.771813538263802E-046
   132.268500000000        -5.665062911426120E-046
   132.507900000000         6.882960860617270E-047
   132.747300000000         9.154313235053567E-046
   132.986700000000         1.925138082030456E-045
   133.226100000000         3.010101661281430E-045
   133.465500000000         4.041848945380731E-045
   133.704900000000         4.855785239918273E-045
   133.944300000000         5.262306427621333E-045
   134.183700000000         5.065141534781689E-045
   134.423100000000         4.086735973882541E-045
   134.662500000000         2.199437736275295E-045
   134.901900000000        -6.399658990301853E-046
   135.141300000000        -4.356079636923500E-045
   135.380700000000        -8.725976213168670E-045
   135.620100000000        -1.336124982593301E-044
   135.859500000000        -1.770711814665546E-044
   136.098900000000        -2.106425386630887E-044
   136.338300000000        -2.263772917741278E-044
   136.577700000000        -2.161514109663780E-044
   136.817100000000        -1.727264569416524E-044
   137.056500000000        -9.103396433166870E-045
   137.295900000000         3.041949772587334E-045
   137.535300000000         1.881795719712969E-044
   137.774700000000         3.727012422380365E-044
   138.014100000000         5.676653433418967E-044
   138.253500000000         7.499948755290295E-044
   138.492900000000         8.907933759714779E-044
   138.732300000000         9.573736160741247E-044