  -1.79550000000000         0.000000000000000E+000
  -1.55610000000000         0.000000000000000E+000
  -1.31670000000000         0.000000000000000E+000
  -1.07730000000000         0.000000000000000E+000
 -0.837900000000000         0.000000000000000E+000
 -0.598500000000000         0.000000000000000E+000
 -0.359100000000000         0.000000000000000E+000
 -0.119700000000000         0.000000000000000E+000
  0.119700000000000         0.000000000000000E+000
  0.359100000000000         0.000000000000000E+000
  0.598500000000000         0.000000000000000E+000
  0.837900000000000         0.000000000000000E+000
   1.07730000000000         0.000000000000000E+000
   1.31670000000000         0.000000000000000E+000
   1.55610000000000         0.000000000000000E+000
   1.79550000000000         0.000000000000000E+000
   2.03490000000000         0.000000000000000E+000
   2.27430000000000         0.000000000000000E+000
   2.51370000000000         0.000000000000000E+000
   2.75310000000000         0.000000000000000E+000
   2.99250000000000         0.000000000000000E+000
   3.23190000000000         0.000000000000000E+000
   3.47130000000000         0.000000000000000E+000
   3.71070000000000         0.000000000000000E+000
   3.95010000000000         0.000000000000000E+000
   4.18950000000000         0.000000000000000E+000
   4.42890000000000         0.000000000000000E+000
   4.66830000000000         0.000000000000000E+000
   4.90770000000000         0.000000000000000E+000
   5.14710000000000         0.000000000000000E+000
   5.38650000000000         0.000000000000000E+000
   5.62590000000000         0.000000000000000E+000
   5.86530000000000         0.000000000000000E+000
   6.10470000000000         0.000000000000000E+000
   6.34410000000000         0.000000000000000E+000
   6.58350000000000         0.000000000000000E+000
   6.82290000000000        -1.582363546793792E-157
   7.06230000000000         4.786473120140866E-150
   7.30170000000000        -1.892506714800588E-145
   7.54110000000000        -9.123130070038409E-144
   7.78050000000000         6.849027994950829E-143
   8.01990000000000         1.609323389318784E-140
   8.25930000000000         6.233897477715940E-139
   8.49870000000000         1.461192922159808E-137
   8.73810000000000         2.503458593632120E-136
   8.97750000000000         3.403195721012051E-135
   9.21690000000000         3.855244091709829E-134
   9.45630000000000         3.770036770584442E-133
   9.69570000000000         3.275607216976694E-132
   9.93510000000000         2.594009909773218E-131
   10.1745000000000         1.915335519175331E-130
   10.4139000000000         1.343137201918755E-129
   10.6533000000000         9.052861209650427E-129
   10.8927000000000         5.890153862171207E-128
   11.1321000000000         3.692066882782759E-127
   11.3715000000000         2.217469117406456E-126
   11.6109000000000         1.268517573293829E-125
   11.8503000000000         6.878430019520750E-125
   12.0897000000000         3.524148693615867E-124
   12.3291000000000         1.703110312677048E-123
   12.5685000000000         7.758085683794286E-123
   12.8079000000000         3.330833392136861E-122
   13.0473000000000         1.348090500285010E-121
   13.2867000000000         5.144586845889841E-121
   13.5261000000000         1.851403433749068E-120
   13.7655000000000         6.282985238746328E-120
   14.0049000000000         2.010640252967132E-119
   14.2443000000000         6.069706979740594E-119
   14.4837000000000         1.731590650579255E-118
   14.7231000000000         4.694166564773898E-118
   14.9625000000000         1.226059029876939E-117
   15.2019000000000         3.177429021361129E-117
   15.4413000000000         8.584806063052885E-117
   15.6807000000000         2.551679552891840E-116
   15.9201000000000         8.489369501694968E-116
   16.1595000000000         3.050621610657123E-115
   16.3989000000000         1.121772514098099E-114
   16.6383000000000         4.058322399445711E-114
   16.8777000000000         1.416017026426637E-113
   17.1171000000000         4.729308926150051E-113
   17.3565000000000         1.509733699384812E-112
   17.5959000000000         4.611675713258090E-112
   17.8353000000000         1.350654434995347E-111
   18.0747000000000         3.800930515364594E-111
   18.3141000000000         1.029780924678671E-110
   18.5535000000000         2.690322764575881E-110
   18.7929000000000         6.785280144230209E-110
   19.0323000000000         1.653095966296912E-109
   19.2717000000000         3.890177634908037E-109
   19.5111000000000         8.834604263345054E-109
   19.7505000000000         1.932220246666738E-108
   19.9899000000000         4.054684395823226E-108
   20.2293000000000         8.111761713396565E-108
   20.4687000000000         1.530106277195010E-107
   20.7081000000000         2.665779913319617E-107
   20.9475000000000         4.103616831094636E-107
   21.1869000000000         4.912837352101798E-107
   21.4263000000000         1.820064903545305E-107
   21.6657000000000        -1.431313176347682E-106
   21.9051000000000        -6.597949122774397E-106
   22.1445000000000        -2.037889827291759E-105
   22.3839000000000        -5.334134731880242E-105
   22.6233000000000        -1.260734691724699E-104
   22.8627000000000        -2.759985643666535E-104
   23.1021000000000        -5.662689517204324E-104
   23.3415000000000        -1.094796699436069E-103
   23.5809000000000        -1.998517958621049E-103
   23.8203000000000        -3.444861651579788E-103
   24.0597000000000        -5.603843822660501E-103
   24.2991000000000        -8.613115263486613E-103
   24.5385000000000        -1.261246140523103E-102
   24.7779000000000        -1.808381882546738E-102
   25.0173000000000        -2.706163232105817E-102
   25.2567000000000        -4.635296073332464E-102
   25.4961000000000        -9.473245564041900E-102
   25.7355000000000        -2.169119294523881E-101
   25.9749000000000        -5.071016718608003E-101
   26.2143000000000        -1.142243162808040E-100
   26.4537000000000        -2.415808785412342E-100
   26.6931000000000        -4.741572181932130E-100
   26.9325000000000        -8.555553546010454E-100
   27.1719000000000        -1.397770344577994E-099
   27.4113000000000        -2.000676947110505E-099
   27.6507000000000        -2.294115122421987E-099
   27.8901000000000        -1.372283111034293E-099
   28.1295000000000         2.585586246293064E-099
   28.3689000000000         1.274154634193378E-098
   28.6083000000000         3.385293438202260E-098
   28.8477000000000         7.187614018243314E-098
   29.0871000000000         1.320846330901502E-097
   29.3265000000000         2.144970765176570E-097
   29.5659000000000         3.052633026145390E-097
   29.8053000000000         3.631540792321680E-097
   30.0447000000000         3.020388574676239E-097
   30.2841000000000        -2.623404357679607E-098
   30.5235000000000        -8.388392821154193E-097
   30.7629000000000        -2.403607262427978E-096
   31.0023000000000        -4.978543263230573E-096
   31.2417000000000        -8.702923295750231E-096
   31.4811000000000        -1.346649553097894E-095
   31.7205000000000        -1.884597886973383E-095
   31.9599000000000        -2.428089679597344E-095
   32.1993000000000        -2.971141292800358E-095
   32.4387000000000        -3.678745268295504E-095
   32.6781000000000        -5.023410811500075E-095
   32.9175000000000        -7.765972348629955E-095
   33.1569000000000        -1.236398312217925E-094
   33.3963000000000        -1.702118095609955E-094
   33.6357000000000        -1.318170093259881E-094
   33.8751000000000         2.289045886952342E-094
   34.1145000000000         1.430876435252546E-093
   34.3539000000000         4.429085538123070E-093
   34.5933000000000         1.070949016354301E-092
   34.8327000000000         2.212229722152334E-092
   35.0721000000000         4.007041431772450E-092
   35.3115000000000         6.344632433422371E-092
   35.5509000000000         8.453258444756202E-092
   35.7903000000000         8.215413649202110E-092
   36.0297000000000         1.207145162834754E-092
   36.2691000000000        -2.034936249808551E-091
   36.5085000000000        -6.814924670001924E-091
   36.7479000000000        -1.566808113098368E-090
   36.9873000000000        -2.983310438477104E-090
   37.2267000000000        -4.916811603927414E-090
   37.4661000000000        -6.993914781138047E-090
   37.7055000000000        -8.128581801440020E-090
   37.9449000000000        -6.045087909295903E-090
   38.1843000000000         3.226773512703386E-090
   38.4237000000000         2.562779002723958E-089
   38.6631000000000         6.861236514471789E-089
   38.9025000000000         1.391346260284906E-088
   39.1419000000000         2.389405405323868E-088
   39.3813000000000         3.559042024148727E-088
   39.6207000000000         4.505384333339702E-088
   39.8601000000000         4.382120461140570E-088
   40.0995000000000         1.706326160572236E-088
   40.3389000000000        -5.746268957887856E-088
   40.5783000000000        -2.080199927921207E-087
   40.8177000000000        -4.625137117008340E-087
   41.0571000000000        -8.337862957847237E-087
   41.2965000000000        -1.293122686192937E-086
   41.5359000000000        -1.729947563848609E-086
   41.7753000000000        -1.899966269886404E-086
   42.0147000000000        -1.372477762695558E-086
   42.2541000000000         4.987139874962513E-087
   42.4935000000000         4.537749316339682E-086
   42.7329000000000         1.157899452376341E-085
   42.9723000000000         2.209081166111264E-085
   43.2117000000000         3.551702284367548E-085
   43.4511000000000         4.930664477154043E-085
   43.6905000000000         5.771194907828889E-085
   43.9299000000000         5.063322825513796E-085
   44.1693000000000         1.308509576347985E-085
   44.4087000000000        -7.377201822677309E-085
   44.6481000000000        -2.287381443681085E-084
   44.8875000000000        -4.623609195936809E-084
   45.1269000000000        -7.632655376019802E-084
   45.3663000000000        -1.079065276369328E-083
   45.6057000000000        -1.294321971371127E-083
   45.8451000000000        -1.211971944692585E-083
   46.0845000000000        -5.499437594631394E-084
   46.3239000000000         1.029557005075128E-083
   46.5633000000000         3.836541837518858E-083
   46.8027000000000         7.995129847157381E-083
   47.0421000000000         1.320185445217416E-082
   47.2815000000000         1.841862549726271E-082
   47.5209000000000         2.156591882824673E-082
   47.7603000000000         1.934891776109281E-082
   47.9997000000000         7.426774175926969E-083
   48.2391000000000        -1.880115125362450E-082
   48.4785000000000        -6.251098665219402E-082
   48.7179000000000        -1.227015330207924E-081
   48.9573000000000        -1.905025665506177E-081
   49.1967000000000        -2.452234477561469E-081
   49.4361000000000        -2.516297787682560E-081
   49.6755000000000        -1.609063532155747E-081
   49.9149000000000         8.137203016052294E-082
   50.1543000000000         5.166806352811903E-081
   50.3937000000000         1.141892273858330E-080
   50.6331000000000         1.865329987306525E-080
   50.8725000000000         2.457647161957669E-080
   51.1119000000000         2.514278883523706E-080
   51.3513000000000         1.458226473013175E-080
   51.5907000000000        -1.376504762691262E-080
   51.8301000000000        -6.534915732024128E-080
   52.0695000000000        -1.406740794646596E-079
   52.3089000000000        -2.298934446224956E-079
   52.5483000000000        -3.063976456145053E-079
   52.7877000000000        -3.211525372959033E-079
   53.0271000000000        -2.009928892655862E-079
   53.2665000000000         1.444125916750489E-079
   53.5059000000000         8.011889332287292E-079
   53.7453000000000         1.810116547736093E-078
   53.9847000000000         3.103323693364291E-078
   54.2241000000000         4.423182368665396E-078
   54.4635000000000         5.239223802206846E-078
   54.7029000000000         4.694743105388027E-078
   54.9423000000000         1.632748679453651E-078
   55.1817000000000        -5.234194009386762E-078
   55.4211000000000        -1.694262059104816E-077
   55.6605000000000        -3.363845229679837E-077
   55.8999000000000        -5.368976341891119E-077
   56.1393000000000        -7.266798314499002E-077
   56.3787000000000        -8.246675805203573E-077
   56.6181000000000        -7.101167927189524E-077
   56.8575000000000        -2.318387669495318E-077
   57.0969000000000         7.634225569143284E-077
   57.3363000000000         2.377719046284277E-076
   57.5757000000000         4.582494259603086E-076
   57.8151000000000         7.120603001761056E-076
   58.0545000000000         9.410562272951394E-076
   58.2939000000000         1.049008758481734E-075
   58.5333000000000         9.051275171473623E-076
   58.7727000000000         3.627206345383452E-076
   59.0121000000000        -7.020462790916512E-076
   59.2515000000000        -2.330212580100744E-075
   59.4909000000000        -4.405413733831028E-075
   59.7303000000000        -6.582452316958256E-075
   59.9697000000000        -8.250482919337773E-075
   60.2091000000000        -8.574211765493450E-075
   60.4485000000000        -6.660181536779141E-075
   60.6879000000000        -1.881345865310633E-075
   60.9273000000000         5.648447920835272E-075
   61.1667000000000         1.453536411803670E-074
   61.4061000000000         2.169872541811906E-074
   61.6455000000000         2.242290366098623E-074
   61.8849000000000         1.130181484733949E-074
   62.1243000000000        -1.547470376087255E-074
   62.3637000000000        -5.621707500823616E-074
   62.6031000000000        -9.841194468578390E-074
   62.8425000000000        -1.130356362335961E-073
   63.0819000000000        -5.082114038475672E-074
   63.3213000000000         1.556962836650578E-073
   63.5607000000000         5.791632277976615E-073
   63.8001000000000         1.267717849670287E-072
   64.0395000000000         2.194306025612289E-072
   64.2789000000000         3.185236424219050E-072
   64.5183000000000         3.837129623268694E-072
   64.7577000000000         3.445318352174467E-072
   64.9971000000000         9.848654697184629E-073
   65.2365000000000        -4.795434312773885E-072
   65.4759000000000        -1.509182368202900E-071
   65.7153000000000        -3.050457817411494E-071
   65.9547000000000        -5.019569426866832E-071
   66.1941000000000        -7.077927042801166E-071
   66.4335000000000        -8.511105718577416E-071
   66.6729000000000        -8.133571780880174E-071
   66.9123000000000        -4.278537486095165E-071
   67.1517000000000         5.044564777833881E-071
   67.3911000000000         2.172833917182173E-070
   67.6305000000000         4.679246386109729E-070
   67.8699000000000         7.921241229736380E-070
   68.1093000000000         1.144097023610910E-069
   68.3487000000000         1.426298173641828E-069
   68.5881000000000         1.476691188392389E-069
   68.8275000000000         1.066904758809238E-069
   69.0669000000000        -7.868940153232139E-071
   69.3063000000000        -2.231460022971064E-069
   69.5457000000000        -5.564166524502578E-069
   69.7851000000000        -1.000887770242205E-068
   70.0245000000000        -1.507389409968036E-068
   70.2639000000000        -1.964535648797352E-068
   70.5033000000000        -2.182522568026843E-068
   70.7427000000000        -1.888763753987930E-068
   70.9821000000000        -7.463985079098857E-069
   71.2215000000000         1.591713258963570E-068
   71.4609000000000         5.382059122694644E-068
   71.7003000000000         1.063683496600896E-067
   71.9397000000000         1.692374966488535E-067
   72.1791000000000         2.314468813824699E-067
   72.4185000000000         2.734491514823127E-067
   72.6579000000000         2.663502258076126E-067
   72.8973000000000         1.733646934648799E-067
   73.1367000000000        -4.521801093581181E-068
   73.3761000000000        -4.223758431013312E-067
   73.6155000000000        -9.693438022983063E-067
   73.8549000000000        -1.655694649766724E-066
   74.0943000000000        -2.386744248916765E-066
   74.3337000000000        -2.982959809775410E-066
   74.5731000000000        -3.168902446305214E-066
   74.8125000000000        -2.581952942906905E-066
   75.0519000000000        -8.127580683413136E-067
   75.2913000000000         2.511234314926677E-066
   75.5307000000000         7.592051174542900E-066
   75.7701000000000         1.427953353506587E-065
   76.0095000000000         2.185931817997154E-065
   76.2489000000000         2.884913796431360E-065
   76.4883000000000         3.286698891394038E-065
   76.7277000000000         3.065891444000541E-065
   76.9671000000000         1.839038442914277E-065
   77.2065000000000        -7.696541271062499E-066
   77.4459000000000        -5.018967708821755E-065
   77.6853000000000        -1.089790567528013E-064
   77.9247000000000        -1.794191047620621E-064
   78.1641000000000        -2.504742640250970E-064
   78.4035000000000        -3.033446755187116E-064
   78.6429000000000        -3.112711220800110E-064
   78.8823000000000        -2.413649921831428E-064
   79.1217000000000        -5.932251670794225E-065
   79.3611000000000         2.623280426830792E-064
   79.6005000000000         7.323216257416860E-064
   79.8399000000000         1.325869428638793E-063
   80.0793000000000         1.969042653925551E-063
   80.3187000000000         2.525935782943730E-063
   80.5581000000000         2.793815974766306E-063
   80.7975000000000         2.512706516463637E-063
   81.0369000000000         1.396181465212276E-063
   81.2763000000000        -8.110985421629811E-064
   81.5157000000000        -4.247067943930425E-063
   81.7551000000000        -8.821335103857475E-063
   81.9945000000000        -1.409287200039588E-062
   82.2339000000000        -1.916077048317103E-062
   82.4733000000000        -2.260441878869412E-062
   82.7127000000000        -2.251933030864546E-062
   82.9521000000000        -1.669892622448709E-062
   83.1915000000000        -3.006235973071946E-063
   83.4309000000000         2.004197815412660E-062
   83.6703000000000         5.249642963362397E-062
   83.9097000000000         9.207977814233516E-062
   84.1491000000000         1.333290645787213E-061
   84.3885000000000         1.670147033301242E-061
   84.6279000000000         1.801487073772700E-061
   84.8673000000000         1.569346341743990E-061
   85.1067000000000         8.098701227992811E-062
   85.3461000000000        -6.097313122392110E-062
   85.5855000000000        -2.739840062969179E-061
   85.8249000000000        -5.486854954688304E-061
   86.0643000000000        -8.550503806540213E-061
   86.3037000000000        -1.137477877290273E-060
   86.5431000000000        -1.313248417270242E-060
   86.7825000000000        -1.276678330982465E-060
   87.0219000000000        -9.112773308810815E-061
   87.2613000000000        -1.115945022271735E-061
   87.5007000000000         1.184941286194099E-060
   87.7401000000000         2.958121287260194E-060
   87.9795000000000         5.061978440090200E-060
   88.2189000000000         7.187284236528286E-060
   88.4583000000000         8.841609110600532E-060
   88.6977000000000         9.361663380550587E-060
   88.9371000000000         7.973225897229463E-060
   89.1765000000000         3.911246079408949E-060
   89.4159000000000        -3.394514660728045E-060
   89.6553000000000        -1.407542556951318E-059
   89.8947000000000        -2.754634429626625E-059
   90.1341000000000        -4.224083731432181E-059
   90.3735000000000        -5.542829853189585E-059
   90.6129000000000        -6.320080672475518E-059
   90.8523000000000        -6.072615072383670E-059
   91.0917000000000        -4.285430976754067E-059
   91.3311000000000        -5.130382637909076E-060
   91.5705000000000         5.479805332567876E-059
   91.8099000000000         1.354883493446408E-058
   92.0493000000000         2.299583191331571E-058
   92.2887000000000         3.242603240476082E-058
   92.5281000000000         3.968698554104299E-058
   92.7675000000000         4.194639165811292E-058
   93.0069000000000         3.596554661749322E-058
   93.2463000000000         1.861085177945038E-058
   93.4857000000000        -1.238530781520847E-058
   93.7251000000000        -5.745300048284676E-058
   93.9645000000000        -1.141085694073996E-057
   94.2039000000000        -1.759586492857341E-057
   94.4433000000000        -2.320476260697281E-057
   94.6827000000000        -2.668723878112052E-057
   94.9221000000000        -2.614084818207822E-057
   95.1615000000000        -1.954467288929357E-057
   95.4009000000000        -5.140567963140325E-058
   95.6403000000000         1.804525568461675E-057
   95.8797000000000         4.958183129880627E-057
   96.1191000000000         8.699832546873768E-057
   96.3585000000000         1.252641668893078E-056
   96.5979000000000         1.565552045396475E-056
   96.8373000000000         1.705012535723370E-056
   97.0767000000000         1.551053605210608E-056
   97.3161000000000         9.847695852993885E-057
   97.5555000000000        -8.581189554616813E-058
   97.7949000000000        -1.692535977224897E-056
   98.0343000000000        -3.769964947020263E-056
   98.2737000000000        -6.120119255512881E-056
   98.5131000000000        -8.387459367533085E-056
   98.7525000000000        -1.005440438433105E-055
   98.9919000000000        -1.046843672917788E-055
   99.2313000000000        -8.910664921125830E-056
   99.4707000000000        -4.711927739397148E-056
   99.7101000000000         2.584341981289178E-056
   99.9495000000000         1.302326932142339E-055
   100.188900000000         2.602703879310473E-055
   100.428300000000         4.020785068936633E-055
   100.667700000000         5.325519210315456E-055
   100.907100000000         6.195595713583507E-055
   101.146500000000         6.240688447866574E-055
   101.385900000000         5.046817559854665E-055
   101.625300000000         2.248177807209735E-055
   101.864700000000        -2.376410341773820E-055
   102.104100000000        -8.790045646406219E-055
   102.343500000000        -1.658184540483279E-054
   102.582900000000        -2.487042216983044E-054
   102.822300000000        -3.225486630231102E-054
   103.061700000000        -3.684503166949125E-054
   103.301100000000        -3.640203662975279E-054
   103.540500000000        -2.861256234329962E-054
   103.779900000000        -1.150527069372481E-054
   104.019300000000         1.600613581200949E-054
   104.258700000000         5.350026150208493E-054
   104.498100000000         9.842955767116112E-054
   104.737500000000         1.456269859517713E-053
   104.976900000000         1.870893556102732E-053
   105.216300000000         2.122042362386965E-053
   105.455700000000         2.085777483120517E-053
   105.695100000000         1.635767965519524E-053
   105.934500000000         6.661468792637178E-054
   106.173900000000        -8.791841031641537E-054
   106.413300000000        -2.973438460179577E-053
   106.652700000000        -5.474535961039338E-053
   106.892100000000        -8.099782169307374E-053
   107.131500000000        -1.041550279961738E-052
   107.370900000000        -1.185016934756165E-052
   107.610300000000        -1.173893035095876E-052
   107.849700000000        -9.405107102206669E-053
   108.089100000000        -4.279813179537769E-053
   108.328500000000         3.945653132496868E-053
   108.567900000000         1.514832402411178E-052
   108.807300000000         2.860606652670452E-052
   109.046700000000         4.286637111273174E-052
   109.286100000000         5.569098947240225E-052
   109.525500000000         6.411917081900184E-052
   109.764900000000         6.468904365979648E-052
   110.004300000000         5.384498903831374E-052
   110.243700000000         2.853718879052565E-052
   110.483100000000        -1.301237435351263E-052
   110.722500000000        -7.044390273848304E-052
   110.961900000000        -1.404061092158924E-051
   111.201300000000        -2.158723234199594E-051
   111.440700000000        -2.858197108991583E-051
   111.680100000000        -3.354814465890745E-051
   111.919500000000        -3.473678787563420E-051
   112.158900000000        -3.031985444725580E-051
   112.398300000000        -1.867853098211910E-051
   112.637700000000         1.224365979495658E-052
   112.877100000000         2.941825388385334E-051
   113.116500000000         6.449717810100072E-051
   113.355900000000         1.032647691939059E-050
   113.595300000000         1.405435363769905E-050
   113.834700000000         1.692492642335164E-050
   114.074100000000         1.808264299714126E-050
   114.313500000000         1.661171229222487E-050
   114.552900000000         1.166905062681622E-050
   114.792300000000         2.659143146941856E-051
   115.031700000000        -1.056220077886430E-050
   115.271100000000        -2.747842772119807E-050
   115.510500000000        -4.673069520932356E-050
   115.749900000000        -6.600642676717190E-050
   115.989300000000        -8.204512619750389E-050
   116.228700000000        -9.080746900168910E-050
   116.468100000000        -8.784427290688049E-050
   116.707500000000        -6.888260745702937E-050
   116.946900000000        -3.061642401199306E-050
   117.186300000000         2.835039059689270E-050
   117.425700000000         1.065067876919949E-049
   117.665100000000         1.985290587715725E-049
   117.904500000000         2.946546840334522E-049
   118.143900000000         3.805496408188956E-049
   118.383300000000         4.378842619407223E-049
   118.622700000000         4.457982280071898E-049
   118.862100000000         3.833574520679354E-049
   119.101500000000         2.329808691660271E-049
   119.340900000000        -1.535368877596648E-050
   119.580300000000        -3.595170580477409E-049
   119.819700000000        -7.808559821040177E-049
   120.059100000000        -1.240841288271397E-048
   120.298500000000        -1.679675538492617E-048
   120.537900000000        -2.017834047820768E-048
   120.777300000000        -2.161402746290677E-048
   121.016700000000        -2.011783897374627E-048
   121.256100000000        -1.479846216373273E-048
   121.495500000000        -5.039050165263621E-049
   121.734900000000         9.299298638722010E-049
   121.974300000000         2.767426103062346E-048
   122.213700000000         4.869191025622707E-048
   122.453100000000         7.000875527707356E-048
   122.692500000000         8.834869891786920E-048
   122.931900000000         9.967469997668561E-048
   123.171300000000         9.954488100699591E-048
   123.410700000000         8.366441019045009E-048
   123.650100000000         4.861761881308121E-048
   123.889500000000        -7.269277716791663E-049
   124.128900000000        -8.302300318755349E-048
   124.368300000000        -1.742021821368172E-047
   124.607700000000        -2.723193480117576E-047
   124.847100000000        -3.646838633771168E-047
   125.086500000000        -4.348415550004303E-047
   125.325900000000        -4.637567312047373E-047
   125.565300000000        -4.318189042486505E-047
   125.804700000000        -3.216582218857721E-047
   126.044100000000        -1.216233520656516E-047
   126.283500000000         1.703776412973187E-047
   126.522900000000         5.431334459828637E-047
   126.762300000000         9.690885411507631E-047
   127.001700000000         1.402714860950735E-046
   127.241100000000         1.781037542363886E-046
   127.480500000000         2.026986439492775E-046
   127.719900000000         2.056049906973171E-046
   127.959300000000         1.786373781507288E-046
   128.198700000000         1.151979996686676E-046
   128.438100000000         1.182007060510888E-047
   128.677500000000        -1.302215286217359E-046
   128.916900000000        -3.034491614863222E-046
   129.156300000000        -4.931389420142241E-046
   129.395700000000        -6.769916419880953E-046
   129.635100000000        -8.258093601139589E-046
   129.874500000000        -9.054191879877203E-046
   130.113900000000        -8.799829411824344E-046
   130.353300000000        -7.166756754251339E-046
   130.592700000000        -3.915102323192705E-046
   130.832100000000         1.041557237893278E-046
   131.071500000000         7.571464234022610E-046
   131.310900000000         1.526976721463156E-045
   131.550300000000         2.342462310195437E-045
   131.789700000000         3.101617086220049E-045
   132.029100000000         3.675941209215426E-045
   132.268500000000         3.919936939693538E-045
   132.507900000000         3.686217338640431E-045
   132.747300000000         2.845896480722717E-045
   132.986700000000         1.313099316201160E-045
   133.226100000000        -9.285308640521945E-046
   133.465500000000        -3.800419134053460E-045
   133.704900000000        -7.108677898353638E-045
   133.944300000000        -1.053326159562605E-044
   134.183700000000        -1.363127723338405E-044
   134.423100000000        -1.585858053495083E-044
   134.662500000000        -1.661256660340344E-044
   134.901900000000        -1.529705115245365E-044
   135.141300000000        -1.140736201321757E-044
   135.380700000000        -4.630363093042639E-045
   135.620100000000         5.049613940900175E-045
   135.859500000000         1.725164695833551E-044
   136.098900000000         3.112174073008914E-044
   136.338300000000         4.529674562134383E-044
   136.577700000000         5.792655060265448E-044
   136.817100000000         6.677013228081752E-044
   137.056500000000         6.937590678094223E-044
   137.295900000000         6.334866019804793E-044
   137.535300000000         4.669428378331617E-044
   137.774700000000         1.822020736385785E-044
   138.014100000000        -2.204510321460815E-044
   138.253500000000        -7.246435453832856E-044
   138.492900000000        -1.294978261928181E-043
   138.732300000000        -1.875734144716378E-043