  -1.79550000000000         0.000000000000000E+000
  -1.55610000000000         0.000000000000000E+000
  -1.31670000000000         0.000000000000000E+000
  -1.07730000000000         0.000000000000000E+000
 -0.837900000000000         0.000000000000000E+000
 -0.598500000000000         0.000000000000000E+000
 -0.359100000000000         0.000000000000000E+000
 -0.119700000000000         0.000000000000000E+000
  0.119700000000000         0.000000000000000E+000
  0.359100000000000         0.000000000000000E+000
  0.598500000000000         0.000000000000000E+000
  0.837900000000000         0.000000000000000E+000
   1.07730000000000         0.000000000000000E+000
   1.31670000000000         0.000000000000000E+000
   1.55610000000000         0.000000000000000E+000
   1.79550000000000         0.000000000000000E+000
   2.03490000000000         0.000000000000000E+000
   2.27430000000000         0.000000000000000E+000
   2.51370000000000         0.000000000000000E+000
   2.75310000000000         0.000000000000000E+000
   2.99250000000000         0.000000000000000E+000
   3.23190000000000         0.000000000000000E+000
   3.47130000000000         0.000000000000000E+000
   3.71070000000000         0.000000000000000E+000
   3.95010000000000         0.000000000000000E+000
   4.18950000000000         0.000000000000000E+000
   4.42890000000000         0.000000000000000E+000
   4.66830000000000         0.000000000000000E+000
   4.90770000000000         0.000000000000000E+000
   5.14710000000000         0.000000000000000E+000
   5.38650000000000         0.000000000000000E+000
   5.62590000000000         0.000000000000000E+000
   5.86530000000000         0.000000000000000E+000
   6.10470000000000         0.000000000000000E+000
   6.34410000000000         0.000000000000000E+000
   6.58350000000000         0.000000000000000E+000
   6.82290000000000         0.000000000000000E+000
   7.06230000000000         0.000000000000000E+000
   7.30170000000000         0.000000000000000E+000
   7.54110000000000         0.000000000000000E+000
   7.78050000000000         0.000000000000000E+000
   8.01990000000000         0.000000000000000E+000
   8.25930000000000         0.000000000000000E+000
   8.49870000000000         0.000000000000000E+000
   8.73810000000000         0.000000000000000E+000
   8.97750000000000        -1.271034391052362E-196
   9.21690000000000        -7.327822716697507E-190
   9.45630000000000         8.718717750829497E-186
   9.69570000000000         1.034322719235869E-183
   9.93510000000000         4.143216802312890E-181
   10.1745000000000         3.866185980848517E-179
   10.4139000000000         1.944771530795437E-177
   10.6533000000000         6.667932746265490E-176
   10.8927000000000         1.735743570280076E-174
   11.1321000000000         3.647929617309718E-173
   11.3715000000000         6.439545699641613E-172
   11.6109000000000         9.814496381495058E-171
   11.8503000000000         1.317855833887929E-169
   12.0897000000000         1.583315013379922E-168
   12.3291000000000         1.722868113553384E-167
   12.5685000000000         1.714675228954556E-166
   12.8079000000000         1.573450731678176E-165
   13.0473000000000         1.340223717432120E-164
   13.2867000000000         1.065630732745309E-163
   13.5261000000000         7.947414626114028E-163
   13.7655000000000         5.582367637696410E-162
   14.0049000000000         3.706108700308588E-161
   14.2443000000000         2.332638055234528E-160
   14.4837000000000         1.395553765017303E-159
   14.7231000000000         7.954211730379652E-159
   14.9625000000000         4.327511427532806E-158
   15.2019000000000         2.251017695884679E-157
   15.4413000000000         1.121001076298704E-156
   15.6807000000000         5.350415057293537E-156
   15.9201000000000         2.449461906729981E-155
   16.1595000000000         1.076156157694157E-154
   16.3989000000000         4.538139717613533E-154
   16.6383000000000         1.836476909156285E-153
   16.8777000000000         7.126757214205740E-153
   17.1171000000000         2.648535725263204E-152
   17.3565000000000         9.404345533501444E-152
   17.5959000000000         3.178630794514549E-151
   17.8353000000000         1.016470077272711E-150
   18.0747000000000         3.043595417526648E-150
   18.3141000000000         8.371302189843023E-150
   18.5535000000000         2.030315252521540E-149
   18.7929000000000         3.872032777808209E-149
   19.0323000000000         2.862267471521247E-149
   19.2717000000000        -2.240492868205576E-148
   19.5111000000000        -1.673832779466394E-147
   19.7505000000000        -7.984122377917325E-147
   19.9899000000000        -3.188531558587625E-146
   20.2293000000000        -1.142680763756200E-145
   20.4687000000000        -3.775305100369162E-145
   20.7081000000000        -1.163284082435666E-144
   20.9475000000000        -3.354432746412834E-144
   21.1869000000000        -9.025338200473275E-144
   21.4263000000000        -2.240933448400949E-143
   21.6657000000000        -5.001336261857924E-143
   21.9051000000000        -9.373411138958895E-143
   22.1445000000000        -1.132772997849485E-142
   22.3839000000000         1.211283393065729E-142
   22.6233000000000         1.525443000370026E-141
   22.8627000000000         7.224668798633621E-141
   23.1021000000000         2.689807543114030E-140
   23.3415000000000         8.845026286882335E-140
   23.5809000000000         2.676764393451933E-139
   23.8203000000000         7.597087034251416E-139
   24.0597000000000         2.041675304672569E-138
   24.2991000000000         5.220327535249134E-138
   24.5385000000000         1.271914235804043E-137
   24.7779000000000         2.949438435246063E-137
   25.0173000000000         6.480498824433615E-137
   25.2567000000000         1.336537803221234E-136
   25.4961000000000         2.538880225627109E-136
   25.7355000000000         4.259205168615456E-136
   25.9749000000000         5.586284968898071E-136
   26.2143000000000         2.489017664302724E-136
   26.4537000000000        -1.803398771819458E-135
   26.6931000000000        -9.227785146596376E-135
   26.9325000000000        -3.126621414644973E-134
   27.1719000000000        -8.985915562284882E-134
   27.4113000000000        -2.340454268515247E-133
   27.6507000000000        -5.673424336701959E-133
   27.8901000000000        -1.295705070602853E-132
   28.1295000000000        -2.802163338027244E-132
   28.3689000000000        -5.740090587416362E-132
   28.6083000000000        -1.108728500643685E-131
   28.8477000000000        -1.996554665598005E-131
   29.0871000000000        -3.269533798586820E-131
   29.3265000000000        -4.580534729595930E-131
   29.5659000000000        -4.414984766194372E-131
   29.8053000000000         1.779387104400676E-131
   30.0447000000000         2.570788483615733E-130
   30.2841000000000         9.474186488555219E-130
   30.5235000000000         2.685708084154847E-129
   30.7629000000000         6.700286098619622E-129
   31.0023000000000         1.538895374228876E-128
   31.2417000000000         3.319543079610680E-128
   31.4811000000000         6.791332541681661E-128
   31.7205000000000         1.323692623367372E-127
   31.9599000000000         2.460208339407927E-127
   32.1993000000000         4.350050443339489E-127
   32.4387000000000         7.270506775854980E-127
   32.6781000000000         1.133543143365940E-126
   32.9175000000000         1.603576408816664E-126
   33.1569000000000         1.922242375945261E-126
   33.3963000000000         1.505606760382044E-126
   33.6357000000000        -9.839077339692636E-127
   33.8751000000000        -8.315457997892612E-126
   34.1145000000000        -2.581581382879974E-125
   34.3539000000000        -6.312772865172028E-125
   34.5933000000000        -1.367694300442033E-124
   34.8327000000000        -2.735405700101177E-124
   35.0721000000000        -5.144804642650054E-124
   35.3115000000000        -9.183568753879487E-124
   35.5509000000000        -1.562289168970189E-123
   35.7903000000000        -2.534712324049544E-123
   36.0297000000000        -3.911923739316369E-123
   36.2691000000000        -5.703106678248062E-123
   36.5085000000000        -7.738680140402406E-123
   36.7479000000000        -9.460817426167047E-123
   36.9873000000000        -9.548928980601125E-123
   37.2267000000000        -5.269545010704489E-123
   37.4661000000000         8.632983771308896E-123
   37.7055000000000         4.181030781088066E-122
   37.9449000000000         1.114494426482324E-121
   38.1843000000000         2.474716647129079E-121
   38.4237000000000         5.009718150611803E-121
   38.6631000000000         9.574705272060945E-121
   38.9025000000000         1.756653730282358E-120
   39.1419000000000         3.119370226805400E-120
   39.3813000000000         5.379263134345634E-120
   39.6207000000000         9.007763885680019E-120
   39.8601000000000         1.460262207397147E-119
   40.0995000000000         2.277456116995320E-119
   40.3389000000000         3.380436162803481E-119
   40.5783000000000         4.684265203316498E-119
   40.8177000000000         5.827849240071630E-119
   41.0571000000000         5.871342289247777E-119
   41.2965000000000         2.777598785614893E-119
   41.5359000000000        -7.411560941105872E-119
   41.7753000000000        -3.178048407298789E-118
   42.0147000000000        -8.213022314632879E-118
   42.2541000000000        -1.767725013135641E-117
   42.4935000000000        -3.419647530377434E-117
   42.7329000000000        -6.117425361344470E-117
   42.9723000000000        -1.023801997984852E-116
   43.2117000000000        -1.607455200122396E-116
   43.4511000000000        -2.357503708422911E-116
   43.6905000000000        -3.185326560445135E-116
   43.9299000000000        -3.836107738809583E-116
   44.1693000000000        -3.760111566398501E-116
   44.4087000000000        -1.928375123268365E-116
   44.6481000000000         3.407440632976461E-116
   44.8875000000000         1.498992916578272E-115
   45.1269000000000         3.680414088805213E-115
   45.3663000000000         7.416989954900509E-115
   45.6057000000000         1.334443340269528E-114
   45.8451000000000         2.209511104208612E-114
   46.0845000000000         3.405557073374344E-114
   46.3239000000000         4.890715702051228E-114
   46.5633000000000         6.484451828053637E-114
   46.8027000000000         7.735081986023483E-114
   47.0421000000000         7.741538369838345E-114
   47.2815000000000         4.913578884488354E-114
   47.5209000000000        -3.320490760833354E-114
   47.7603000000000        -2.081895567302178E-113
   47.9997000000000        -5.294980869536362E-113
   48.2391000000000        -1.065457939281334E-112
   48.4785000000000        -1.892665959408624E-112
   48.7179000000000        -3.078496824426676E-112
   48.9573000000000        -4.644888142413542E-112
   49.1967000000000        -6.503241791286768E-112
   49.4361000000000        -8.348520671830712E-112
   49.6755000000000        -9.501464284047990E-112
   49.9149000000000        -8.694405044387768E-112
   50.1543000000000        -3.813173562314537E-112
   50.3937000000000         8.358592766004770E-112
   50.6331000000000         3.228848584827369E-111
   50.8725000000000         7.354526390214409E-111
   51.1119000000000         1.380379960641205E-110
   51.3513000000000         2.301940218929865E-110
   51.5907000000000         3.495015459285326E-110
   51.8301000000000         4.848039239404286E-110
   52.0695000000000         6.058979171246362E-110
   52.3089000000000         6.525327804301037E-110
   52.5483000000000         5.220550878832388E-110
   52.7877000000000         5.893090647673283E-111
   53.0271000000000        -9.476368594633880E-110
   53.2665000000000        -2.747857769849007E-109
   53.5059000000000        -5.582797126389242E-109
   53.7453000000000        -9.585161513502499E-109
   53.9847000000000        -1.461118208013538E-108
   54.2241000000000        -1.999185455777033E-108
   54.4635000000000        -2.420991832455254E-108
   54.7029000000000        -2.454411040403870E-108
   54.9423000000000        -1.677888576111923E-108
   55.1817000000000         4.843267866497144E-109
   55.4211000000000         4.715563964188927E-108
   55.6605000000000         1.167268309107659E-107
   55.8999000000000         2.172405950215749E-107
   56.1393000000000         3.452514932944486E-107
   56.3787000000000         4.842225777407372E-107
   56.6181000000000         5.972873987912378E-107
   56.8575000000000         6.200828958739224E-107
   57.0969000000000         4.562982936180036E-107
   57.3363000000000        -1.981723266094798E-108
   57.5757000000000        -9.481462285834711E-107
   57.8151000000000        -2.447733456453327E-106
   58.0545000000000        -4.555776195335752E-106
   58.2939000000000        -7.137411575381609E-106
   58.5333000000000        -9.770478903020679E-106
   58.7727000000000        -1.162208098306541E-105
   59.0121000000000        -1.135207302627230E-105
   59.2515000000000        -7.101221154695294E-106
   59.4909000000000         3.355397494466255E-106
   59.7303000000000         2.219393864146684E-105
   59.9697000000000         5.077480831577745E-105
   60.2091000000000         8.847120327965178E-105
   60.4485000000000         1.311326841680438E-104
   60.6879000000000         1.693797238790725E-104
   60.9273000000000         1.871481223478573E-104
   61.1667000000000         1.611714845737402E-104
   61.4061000000000         6.235271060517543E-105
   61.6455000000000        -1.398626102664063E-104
   61.8849000000000        -4.690734432144351E-104
   62.1243000000000        -9.289121140872409E-104
   62.3637000000000        -1.485916957609431E-103
   62.6031000000000        -2.050469270278853E-103
   62.8425000000000        -2.460271885646463E-103
   63.0819000000000        -2.473432001797772E-103
   63.3213000000000        -1.780433684491559E-103
   63.5607000000000        -4.511917528777673E-105
   63.8001000000000         3.017082891765271E-103
   64.0395000000000         7.521414039277705E-103
   64.2789000000000         1.326526680588463E-102
   64.5183000000000         1.957350270009063E-102
   64.7577000000000         2.518082725163020E-102
   64.9971000000000         2.821093180204623E-102
   65.2365000000000         2.631859721903504E-102
   65.4759000000000         1.704716580732726E-102
   65.7153000000000        -1.590723191147121E-103
   65.9547000000000        -3.038284854004942E-102
   66.1941000000000        -6.822591859789849E-102
   66.4335000000000        -1.117865355881383E-101
   66.6729000000000        -1.559163194046620E-101
   66.9123000000000        -1.951968545940649E-101
   67.1517000000000        -2.267501341887369E-101
   67.3911000000000        -2.538947266943570E-101
   67.6305000000000        -2.892966155975666E-101
   67.8699000000000        -3.550045195206198E-101
   68.1093000000000        -4.754164302924235E-101
   68.3487000000000        -6.583292603377140E-101
   68.5881000000000        -8.596615392110064E-101
   68.8275000000000        -9.304311285697851E-101
   69.0669000000000        -5.515061360722697E-101
   69.3063000000000         8.263111347195956E-101
   69.5457000000000         4.001923353189857E-100
   69.7851000000000         9.947327601285915E-100
   70.0245000000000         1.955898005604211E-099
   70.2639000000000         3.315205459926465E-099
   70.5033000000000         4.962810423515136E-099
   70.7427000000000         6.530616959454867E-099
   70.9821000000000         7.253189310568446E-099
   71.2215000000000         5.838580041667885E-099
   71.4609000000000         4.103743878502146E-100
   71.7003000000000        -1.138256850159917E-098
   71.9397000000000        -3.195815610036749E-098
   72.1791000000000        -6.294500288614599E-098
   72.4185000000000        -1.037448400569396E-097
   72.6579000000000        -1.494605936608548E-097
   72.8973000000000        -1.883145477765181E-097
   73.1367000000000        -1.989837767838979E-097
   73.3761000000000        -1.487207375919920E-097
   73.6155000000000         6.318010365813805E-099
   73.8549000000000         3.165268223446715E-097
   74.0943000000000         8.276379713274409E-097
   74.3337000000000         1.560367229088813E-096
   74.5731000000000         2.479238567350352E-096
   74.8125000000000         3.450996095177153E-096
   75.0519000000000         4.196872864892900E-096
   75.2913000000000         4.248949038800741E-096
   75.5307000000000         2.928828583822590E-096
   75.7701000000000        -6.238947155161971E-097
   76.0095000000000        -7.337314080123368E-096
   76.2489000000000        -1.796635601903168E-095
   76.4883000000000        -3.268911438632332E-095
   76.7277000000000        -5.052399224676747E-095
   76.9671000000000        -6.859394425046834E-095
   77.2065000000000        -8.133591873688949E-095
   77.4459000000000        -7.985723201154751E-095
   77.6853000000000        -5.177110308448470E-095
   77.9247000000000         1.801667259317146E-095
   78.1641000000000         1.449844621841808E-094
   78.4035000000000         3.405199635918864E-094
   78.6429000000000         6.048138851797513E-094
   78.8823000000000         9.170401424052263E-094
   79.1217000000000         1.223501854690296E-093
   79.3611000000000         1.425621009425051E-093
   79.6005000000000         1.371288368843355E-093
   79.8399000000000         8.550408795492182E-094
   80.0793000000000        -3.655321232624390E-094
   80.3187000000000        -2.528430466331217E-093
   80.5581000000000        -5.792400623480461E-093
   80.7975000000000        -1.012297230067195E-092
   81.0369000000000        -1.514069254697851E-092
   81.2763000000000        -1.994514835231684E-092
   81.5157000000000        -2.294666271850828E-092
   81.7551000000000        -2.176136332324318E-092
   81.9945000000000        -1.325213065725825E-092
   82.2339000000000         6.177695164059615E-093
   82.4733000000000         3.991808864535367E-092
   82.7127000000000         9.000536517260100E-092
   82.9521000000000         1.554382623425006E-091
   83.1915000000000         2.300105053015446E-091
   83.4309000000000         2.998944583536256E-091
   83.6703000000000         3.414675349914489E-091
   83.9097000000000         3.201920283403115E-091
   84.1491000000000         1.916974173993082E-091
   84.3885000000000        -9.350898656447279E-092
   84.6279000000000        -5.801880282202041E-091
   84.8673000000000        -1.292124798700520E-090
   85.1067000000000        -2.209073971989693E-090
   85.3461000000000        -3.238051768989860E-090
   85.5855000000000        -4.182596019144669E-090
   85.8249000000000        -4.716952764909506E-090
   86.0643000000000        -4.376092087853383E-090
   86.3037000000000        -2.576373462200770E-090
   86.5431000000000         1.315529511374545E-090
   86.7825000000000         7.847786419370915E-090
   87.0219000000000         1.726974182850346E-089
   87.2613000000000         2.923833399523395E-089
   87.5007000000000         4.246441523992719E-089
   87.7401000000000         5.434979358156647E-089
   87.9795000000000         6.070594677483384E-089
   88.2189000000000         5.569045822423770E-089
   88.4583000000000         3.213876162641108E-089
   88.6977000000000        -1.750699402950477E-089
   88.9371000000000        -9.948227384685825E-089
   89.1765000000000        -2.160794864814885E-088
   89.4159000000000        -3.621586518395415E-088
   89.6553000000000        -5.210818205369236E-088
   89.8947000000000        -6.607260114209252E-088
   90.1341000000000        -7.306780399502483E-088
   90.3735000000000        -6.621925321576600E-088
   90.6129000000000        -3.728968845154796E-088
   90.8523000000000         2.216046075804855E-088
   91.0917000000000         1.187349046841710E-087
   91.3311000000000         2.541931485101521E-087
   91.5705000000000         4.215656832522670E-087
   91.8099000000000         6.007780813404243E-087
   92.0493000000000         7.545643134348813E-087
   92.2887000000000         8.259174085896067E-087
   92.5281000000000         7.387962049348145E-087
   92.7675000000000         4.041617706828787E-087
   93.0069000000000        -2.665136297433382E-087
   93.2463000000000        -1.338550462023734E-086
   93.4857000000000        -2.821618956654369E-086
   93.7251000000000        -4.629069449284426E-086
   93.9645000000000        -6.533659454041439E-086
   94.2039000000000        -8.128332724849137E-086
   94.4433000000000        -8.805274307774339E-086
   94.6827000000000        -7.770784115869596E-086
   94.9221000000000        -4.116333360813826E-086
   95.1615000000000         3.034203349399099E-086
   95.4009000000000         1.428673113922675E-085
   95.6403000000000         2.964696948196480E-085
   95.8797000000000         4.811847285959224E-085
   96.1191000000000         6.727976411008685E-085
   96.3585000000000         8.293042856036063E-085
   96.5979000000000         8.893798724096726E-085
   96.8373000000000         7.745441134513454E-085
   97.0767000000000         3.969101839173707E-085
   97.3161000000000        -3.257271080630023E-085
   97.5555000000000        -1.446351908186661E-084
   97.7949000000000        -2.956950980467092E-084
   98.0343000000000        -4.750839614257900E-084
   98.2737000000000        -6.584348090902352E-084
   98.5131000000000        -8.046642171774984E-084
   98.7525000000000        -8.550095409713090E-084
   98.9919000000000        -7.356613117078505E-084
   99.2313000000000        -3.656497969441146E-084
   99.4707000000000         3.285562936467016E-084
   99.7101000000000         1.390954502085510E-083
   99.9495000000000         2.806913367637930E-083
   100.188900000000         4.469537421965498E-083
   100.428300000000         6.146558451101454E-083
   100.667700000000         7.455850760124747E-083
   100.907100000000         7.860676212031600E-083
   101.146500000000         6.698029518067075E-083
   101.385900000000         3.253990039778924E-083
   101.625300000000        -3.102389478857885E-083
   101.864700000000        -1.272163771955148E-082
   102.104100000000        -2.541949368788430E-082
   102.343500000000        -4.018944926789287E-082
   102.582900000000        -5.492820003672383E-082
   102.822300000000        -6.624497726226240E-082
   103.061700000000        -6.944948995313201E-082
   103.301100000000        -5.882955479008870E-082
   103.540500000000        -2.833025700720841E-082
   103.779900000000         2.727781247991452E-082
   104.019300000000         1.107124479023151E-081
   104.258700000000         2.200473601893321E-081
   104.498100000000         3.463485997566994E-081
   104.737500000000         4.714754252818801E-081
   104.976900000000         5.666388908296562E-081
   105.216300000000         5.924922587845685E-081
   105.455700000000         5.016407626850553E-081
   105.695100000000         2.444393817338111E-081
   105.934500000000        -2.212768074997822E-081
   106.173900000000        -9.163838918116278E-081
   106.413300000000        -1.823257983470546E-080
   106.652700000000        -2.866987008094163E-080
   106.892100000000        -3.898242050105326E-080
   107.131500000000        -4.682556993378254E-080
   107.370900000000        -4.902102365712690E-080
   107.610300000000        -4.176806800927743E-080
   107.849700000000        -2.111382868504671E-080
   108.089100000000         1.627089117166452E-080
   108.328500000000         7.200373723370294E-080
   108.567900000000         1.446487772687138E-079
   108.807300000000         2.282665378130906E-079
   109.046700000000         3.111090232199356E-079
   109.286100000000         3.748249361783739E-079
   109.525500000000         3.946370745211255E-079
   109.764900000000         3.410054806285291E-079
   110.004300000000         1.832599636418498E-079
   110.243700000000        -1.044650349747294E-079
   110.483100000000        -5.349665878339105E-079
   110.722500000000        -1.097836842822943E-078
   110.961900000000        -1.748565105764083E-078
   111.201300000000        -2.398771464744279E-078
   111.440700000000        -2.910278133192697E-078
   111.680100000000        -3.096413789440124E-078
   111.919500000000        -2.734297114206676E-078
   112.158900000000        -1.591598762757274E-078
   112.398300000000         5.298391296389651E-079
   112.637700000000         3.733381463800758E-078
   112.877100000000         7.953319758638760E-078
   113.116500000000         1.287496683829046E-077
   113.355900000000         1.786272740626824E-077
   113.595300000000         2.191550036657332E-077
   113.834700000000         2.367361544733868E-077
   114.074100000000         2.150394801923474E-077
   114.313500000000         1.368809173932524E-077
   114.552900000000        -1.269393334681989E-078
   114.792300000000        -2.421124082535521E-077
   115.031700000000        -5.479908992108619E-077
   115.271100000000        -9.094183639989589E-077
   115.510500000000        -1.282746618096090E-076
   115.749900000000        -1.598225273083860E-076
   115.989300000000        -1.760155966460331E-076
   116.228700000000        -1.652414233695137E-076
   116.468100000000        -1.151076585583204E-076
   116.707500000000        -1.453678632869058E-077
   116.946900000000         1.432900405693844E-076
   117.186300000000         3.572858002913960E-076
   117.425700000000         6.144715478366914E-076
   117.665100000000         8.862757999467768E-076
   117.904500000000         1.126013438112938E-075
   118.143900000000         1.268668930246666E-075
   118.383300000000         1.234233746207002E-075
   118.622700000000         9.357875428182830E-076
   118.862100000000         2.931833825121954E-076
   119.101500000000        -7.474738884412214E-076
   119.340900000000        -2.189421857790609E-075
   119.580300000000        -3.958198647773856E-075
   119.819700000000        -5.875958875362821E-075
   120.059100000000        -7.642925174098633E-075
   120.298500000000        -8.833305883572885E-075
   120.537900000000        -8.913907269255707E-075
   120.777300000000        -7.293401607025764E-075
   121.016700000000        -3.408243371757185E-075
   121.256100000000         3.152918297898111E-075
   121.495500000000         1.249108489945902E-074
   121.734900000000         2.421876888060950E-074
   121.974300000000         3.728647419852922E-074
   122.213700000000         4.984990004818497E-074
   122.453100000000         5.922420018310030E-074
   122.692500000000         6.197796657550358E-074
   122.931900000000         5.421887883535582E-074
   123.171300000000         3.211180146279366E-074
   123.410700000000        -7.354489472409377E-075
   123.650100000000        -6.537569923760845E-074
   123.889500000000        -1.401943892055763E-073
   124.128900000000        -2.259623379598582E-073
   124.368300000000        -3.118210430626981E-073
   124.607700000000        -3.814842529667882E-073
   124.847100000000        -4.136499720386416E-073
   125.086500000000        -3.835715627998704E-073
   125.325900000000        -2.660577894040031E-073
   125.565300000000        -4.003119070161649E-074
   125.804700000000         3.054593087776592E-073
   126.044100000000         7.642026967861357E-073
   126.283500000000         1.305601826514134E-072
   126.522900000000         1.868536105765712E-072
   126.762300000000         2.357997150322388E-072
   127.001700000000         2.646473602617745E-072
   127.241100000000         2.582117095443057E-072
   127.480500000000         2.005420293528472E-072
   127.719900000000         7.753664968951201E-073
   127.959300000000        -1.195310293902063E-072
   128.198700000000        -3.897998174802768E-072
   128.438100000000        -7.183812797262530E-072
   128.677500000000        -1.072414807272565E-071
   128.916900000000        -1.398588485207332E-071
   129.156300000000        -1.623283626594156E-071
   129.395700000000        -1.656559236701567E-071
   129.635100000000        -1.401051696885729E-071
   129.874500000000        -7.664573974120564E-072
   130.113900000000         3.104569415217742E-072
   130.353300000000         1.841422739827893E-071
   130.592700000000         3.760260365921125E-071
   130.832100000000         5.898443506314020E-071
   131.071500000000         7.968066228168629E-071
   131.310900000000         9.558802428696369E-071
   131.550300000000         1.015592898467186E-070
   131.789700000000         9.185883975412928E-071
   132.029100000000         6.093761946257111E-071
   132.268500000000         4.533146116289173E-072
   132.507900000000        -7.895676713694557E-071
   132.747300000000        -1.869516920044980E-070
   132.986700000000        -3.112274593402853E-070
   133.226100000000        -4.368109951737125E-070
   133.465500000000        -5.415957485995857E-070
   133.704900000000        -5.970774149412687E-070
   133.944300000000        -5.705877252137163E-070
   134.183700000000        -4.293032918386310E-070
   134.423100000000        -1.461095690220489E-070
   134.662500000000         2.929006485951317E-070
   134.901900000000         8.799111470777018E-070
   135.141300000000         1.576928749742517E-069
   135.380700000000         2.308948241720877E-069
   135.620100000000         2.960699519749055E-069
   135.859500000000         3.379176192008996E-069
   136.098900000000         3.384088276480152E-069
   136.338300000000         2.787912914437932E-069
   136.577700000000         1.426237167951277E-069
   136.817100000000        -8.024545185946811E-070
   137.056500000000        -3.890470270600339E-069
   137.295900000000        -7.673470837731286E-069
   137.535300000000        -1.178988985514469E-068
   137.774700000000        -1.565751798387818E-068
   138.014100000000        -1.847904390806864E-068
   138.253500000000        -1.928838027511279E-068
   138.492900000000        -1.704753805859920E-068
   138.732300000000        -1.079909639738382E-068