  -1.79550000000000         0.000000000000000E+000
  -1.55610000000000         0.000000000000000E+000
  -1.31670000000000         0.000000000000000E+000
  -1.07730000000000         0.000000000000000E+000
 -0.837900000000000         0.000000000000000E+000
 -0.598500000000000         0.000000000000000E+000
 -0.359100000000000         0.000000000000000E+000
 -0.119700000000000         0.000000000000000E+000
  0.119700000000000         0.000000000000000E+000
  0.359100000000000         0.000000000000000E+000
  0.598500000000000         0.000000000000000E+000
  0.837900000000000         0.000000000000000E+000
   1.07730000000000         0.000000000000000E+000
   1.31670000000000         0.000000000000000E+000
   1.55610000000000         0.000000000000000E+000
   1.79550000000000         0.000000000000000E+000
   2.03490000000000         0.000000000000000E+000
   2.27430000000000         0.000000000000000E+000
   2.51370000000000         0.000000000000000E+000
   2.75310000000000         0.000000000000000E+000
   2.99250000000000         0.000000000000000E+000
   3.23190000000000         0.000000000000000E+000
   3.47130000000000         0.000000000000000E+000
   3.71070000000000         0.000000000000000E+000
   3.95010000000000         0.000000000000000E+000
   4.18950000000000         0.000000000000000E+000
   4.42890000000000         0.000000000000000E+000
   4.66830000000000         0.000000000000000E+000
   4.90770000000000         0.000000000000000E+000
   5.14710000000000         0.000000000000000E+000
   5.38650000000000         0.000000000000000E+000
   5.62590000000000         0.000000000000000E+000
   5.86530000000000         0.000000000000000E+000
   6.10470000000000         0.000000000000000E+000
   6.34410000000000         0.000000000000000E+000
   6.58350000000000         0.000000000000000E+000
   6.82290000000000         0.000000000000000E+000
   7.06230000000000         0.000000000000000E+000
   7.30170000000000         0.000000000000000E+000
   7.54110000000000        -3.418973838408907E-153
   7.78050000000000        -1.095659693246073E-148
   8.01990000000000        -2.014911953110638E-146
   8.25930000000000        -6.927342701144299E-145
   8.49870000000000        -6.778611522658852E-144
   8.73810000000000         1.632297923912060E-142
   8.97750000000000         6.931578423051563E-141
   9.21690000000000         1.262090366805223E-139
   9.45630000000000         1.376742841863004E-138
   9.69570000000000         7.026166230691159E-138
   9.93510000000000        -6.285775048586992E-137
   10.1745000000000        -2.088392082500595E-135
   10.4139000000000        -3.106921558425663E-134
   10.6533000000000        -3.397283549766559E-133
   10.8927000000000        -3.033281003030018E-132
   11.1321000000000        -2.303930262894753E-131
   11.3715000000000        -1.509383108368598E-130
   11.6109000000000        -8.368643742948241E-130
   11.8503000000000        -3.479099400272306E-129
   12.0897000000000        -2.815284991066533E-129
   12.3291000000000         1.603343825518110E-127
   12.5685000000000         2.524256363775920E-126
   12.8079000000000         2.755850056410565E-125
   13.0473000000000         2.532590230672800E-124
   13.2867000000000         2.065408665916444E-123
   13.5261000000000         1.527969306186478E-122
   13.7655000000000         1.037780185517699E-121
   14.0049000000000         6.523182746816888E-121
   14.2443000000000         3.817811318912026E-120
   14.4837000000000         2.090798733672949E-119
   14.7231000000000         1.075860094888847E-118
   14.9625000000000         5.220229406528399E-118
   15.2019000000000         2.395782240105517E-117
   15.4413000000000         1.042758604240960E-116
   15.6807000000000         4.314166116158697E-116
   15.9201000000000         1.699979002862214E-115
   16.1595000000000         6.390730227603302E-115
   16.3989000000000         2.295196197501985E-114
   16.6383000000000         7.883703171822651E-114
   16.8777000000000         2.591984657987942E-113
   17.1171000000000         8.160877881649404E-113
   17.3565000000000         2.460890028248284E-112
   17.5959000000000         7.104735544293699E-112
   17.8353000000000         1.961973478187940E-111
   18.0747000000000         5.173135309354935E-111
   18.3141000000000         1.298417115956746E-110
   18.5535000000000         3.086651167190574E-110
   18.7929000000000         6.890608035281311E-110
   19.0323000000000         1.422325282223534E-109
   19.2717000000000         2.630459700001685E-109
   19.5111000000000         4.025046293083290E-109
   19.7505000000000         3.640033641607860E-109
   19.9899000000000        -5.749029975717836E-109
   20.2293000000000        -4.573450363234122E-108
   20.4687000000000        -1.736344920539387E-107
   20.7081000000000        -5.291085160431340E-107
   20.9475000000000        -1.429135389702601E-106
   21.1869000000000        -3.548097475692834E-106
   21.4263000000000        -8.232227367747602E-106
   21.6657000000000        -1.799328520685323E-105
   21.9051000000000        -3.716575980590627E-105
   22.1445000000000        -7.251230099765859E-105
   22.3839000000000        -1.330703038331021E-104
   22.6233000000000        -2.274997124956995E-104
   22.8627000000000        -3.552735585824686E-104
   23.1021000000000        -4.848809606396774E-104
   23.3415000000000        -5.076156912094840E-104
   23.5809000000000        -1.499624532987311E-104
   23.8203000000000         1.177209539308507E-103
   24.0597000000000         4.614999237907359E-103
   24.2991000000000         1.219243999640087E-102
   24.5385000000000         2.725708861464180E-102
   24.7779000000000         5.497632704747172E-102
   25.0173000000000         1.029095138608150E-101
   25.2567000000000         1.818172474998631E-101
   25.4961000000000         3.073432998051707E-101
   25.7355000000000         5.041158074419972E-101
   25.9749000000000         8.149466983622554E-101
   26.2143000000000         1.317696620531583E-100
   26.4537000000000         2.146433658043054E-100
   26.6931000000000         3.490771090118748E-100
   26.9325000000000         5.485830457197359E-100
   27.1719000000000         7.768626367122699E-100
   27.4113000000000         8.217294529181432E-100
   27.6507000000000        -2.507692677850322E-102
   27.8901000000000        -3.465132182284367E-099
   28.1295000000000        -1.351116458013147E-098
   28.3689000000000        -3.792156367101476E-098
   28.6083000000000        -9.023608779372897E-098
   28.8477000000000        -1.905779019132899E-097
   29.0871000000000        -3.617591582804993E-097
   29.3265000000000        -6.129629886398153E-097
   29.5659000000000        -8.971105182086227E-097
   29.8053000000000        -1.020832028036628E-096
   30.0447000000000        -4.822955145520720E-097
   30.2841000000000         1.776693649526945E-096
   30.5235000000000         7.669444005766019E-096
   30.7629000000000         2.015597067452802E-095
   31.0023000000000         4.292107495309638E-095
   31.2417000000000         7.871209239128298E-095
   31.4811000000000         1.249219306879919E-094
   31.7205000000000         1.644074009697805E-094
   31.9599000000000         1.494194340320500E-094
   32.1993000000000        -2.203502121780754E-095
   32.4387000000000        -5.331533718268059E-094
   32.6781000000000        -1.663093761533267E-093
   32.9175000000000        -3.753046988953320E-093
   33.1569000000000        -7.054553606129979E-093
   33.3963000000000        -1.135033133185320E-092
   33.6357000000000        -1.520588747922028E-092
   33.8751000000000        -1.472851404300661E-092
   34.1145000000000        -1.859591062646568E-093
   34.3539000000000         3.736349133325329E-092
   34.5933000000000         1.232969388064559E-091
   34.8327000000000         2.792201332783005E-091
   35.0721000000000         5.191674336574839E-091
   35.3115000000000         8.201356377150677E-091
   35.5509000000000         1.070710843318990E-090
   35.7903000000000         9.911134189141609E-091
   36.0297000000000         3.153204364050205E-092
   36.2691000000000        -2.716401593764394E-090
   36.5085000000000        -8.507779504924493E-090
   36.7479000000000        -1.866280651601964E-089
   36.9873000000000        -3.373989619702197E-089
   37.2267000000000        -5.179040093347015E-089
   37.4661000000000        -6.531411138916966E-089
   37.7055000000000        -5.677306496662499E-089
   37.9449000000000         6.742693249466126E-090
   38.1843000000000         1.775334612685864E-088
   38.4237000000000         5.250836363673618E-088
   38.6631000000000         1.118671609961354E-087
   38.9025000000000         1.980974104688897E-087
   39.1419000000000         2.994964106764200E-087
   39.3813000000000         3.747520429973281E-087
   39.6207000000000         3.306487969776237E-087
   39.8601000000000        -3.564338161522656E-089
   40.0995000000000        -8.945068367229484E-087
   40.3389000000000        -2.692821868438729E-086
   40.5783000000000        -5.750916602810092E-086
   40.8177000000000        -1.021010235334631E-085
   41.0571000000000        -1.558222806229639E-085
   41.2965000000000        -2.005777855983638E-085
   41.5359000000000        -1.952894924892906E-085
   41.7753000000000        -6.463222516451711E-086
   42.0147000000000         3.095051738597139E-085
   42.2541000000000         1.084935099932852E-084
   42.4935000000000         2.429060328114725E-084
   42.7329000000000         4.438967451492257E-084
   42.9723000000000         6.983506181412477E-084
   43.2117000000000         9.441226793078213E-084
   43.4511000000000         1.032705627637294E-083
   43.6905000000000         6.849844343750455E-084
   43.9299000000000        -5.461922854333370E-084
   44.1693000000000        -3.277476145537104E-083
   44.4087000000000        -8.210008174588567E-083
   44.6481000000000        -1.588303573585365E-082
   44.8875000000000        -2.617213497233023E-082
   45.1269000000000        -3.744066945965497E-082
   45.3663000000000        -4.530475100176955E-082
   45.6057000000000        -4.111086393559006E-082
   45.8451000000000        -1.049632910091199E-082
   46.0845000000000         6.715591955605942E-082
   46.3239000000000         2.169403368803273E-081
   46.5633000000000         4.621822616591638E-081
   46.8027000000000         8.109628644168353E-081
   47.0421000000000         1.232572941921234E-080
   47.2815000000000         1.622189542065930E-080
   47.5209000000000         1.755400309372286E-080
   47.7603000000000         1.240877331041714E-080
   47.9997000000000        -5.094547638499560E-081
   48.2391000000000        -4.257728436889370E-080
   48.4785000000000        -1.081104223185019E-079
   48.7179000000000        -2.071468786783356E-079
   48.9573000000000        -3.368984059255383E-079
   49.1967000000000        -4.775767713499919E-079
   49.4361000000000        -5.806019391780792E-079
   49.6755000000000        -5.553136436181328E-079
   49.9149000000000        -2.581544568711391E-079
   50.1543000000000         5.081741909258992E-079
   50.3937000000000         1.973691772102242E-078
   50.6331000000000         4.341995950756778E-078
   50.8725000000000         7.674243420050833E-078
   51.1119000000000         1.169999359122165E-077
   51.3513000000000         1.555062820692563E-077
   51.5907000000000         1.743803516052422E-077
   51.8301000000000         1.434864013656246E-077
   52.0695000000000         1.893703524732195E-078
   52.3089000000000        -2.545208208873100E-077
   52.5483000000000        -7.339487295392850E-077
   52.7877000000000        -1.457499269950303E-076
   53.0271000000000        -2.408675026566959E-076
   53.2665000000000        -3.463475523040064E-076
   53.5059000000000        -4.322803810482268E-076
   53.7453000000000        -4.440720073445640E-076
   53.9847000000000        -2.971825988076285E-076
   54.2241000000000         1.222007862647602E-076
   54.4635000000000         9.446312805169546E-076
   54.7029000000000         2.285472723215895E-075
   54.9423000000000         4.185625605661535E-075
   55.1817000000000         6.519109709107572E-075
   55.4211000000000         8.868179316727532E-075
   55.6605000000000         1.037935610004316E-074
   55.8999000000000         9.634200102059803E-075
   56.1393000000000         4.596919545778831E-075
   56.3787000000000        -7.265583131133623E-075
   56.6181000000000        -2.856399065643997E-074
   56.8575000000000        -6.112337597554632E-074
   57.0969000000000        -1.045517442253350E-073
   57.3363000000000        -1.541974377711605E-073
   57.5757000000000        -1.986282478162196E-073
   57.8151000000000        -2.170614651120686E-073
   58.0545000000000        -1.776007602146910E-073
   58.2939000000000        -3.766560107246062E-074
   58.5333000000000         2.514564266406214E-073
   58.7727000000000         7.336197222493325E-073
   59.0121000000000         1.428135594483099E-072
   59.2515000000000         2.300019440951063E-072
   59.4909000000000         3.220965966084394E-072
   59.7303000000000         3.925730724185386E-072
   59.9697000000000         3.974430933166438E-072
   60.2091000000000         2.738857751165014E-072
   60.4485000000000        -5.607633493554011E-073
   60.6879000000000        -6.735123705280384E-072
   60.9273000000000        -1.638571218150763E-071
   61.1667000000000        -2.951737250571530E-071
   61.4061000000000        -4.499941852432653E-071
   61.6455000000000        -5.991714830442571E-071
   61.8849000000000        -6.892812309488751E-071
   62.1243000000000        -6.383609689229016E-071
   62.3637000000000        -3.371050159379428E-071
   62.6031000000000         3.401203001811337E-071
   62.8425000000000         1.509458706398772E-070
   63.0819000000000         3.232407528586878E-070
   63.3213000000000         5.449055781490553E-070
   63.5607000000000         7.892356563865811E-070
   63.8001000000000         9.994279738834158E-070
   64.0395000000000         1.080636870742955E-069
   64.2789000000000         8.971599860536926E-070
   64.5183000000000         2.799260308562966E-070
   64.7577000000000        -9.494420461697201E-070
   64.9971000000000        -2.931644523606930E-069
   65.2365000000000        -5.695282786563860E-069
   65.4759000000000        -9.055172492825251E-069
   65.7153000000000        -1.249201715307217E-068
   65.9547000000000        -1.503471889358924E-068
   66.1941000000000        -1.518298191432080E-068
   66.4335000000000        -1.092599205054002E-068
   66.6729000000000         7.123372171832712E-071
   66.9123000000000         2.003530808856858E-068
   67.1517000000000         5.033823197476972E-068
   67.3911000000000         9.040963379036888E-068
   67.6305000000000         1.363586387678059E-067
   67.8699000000000         1.794819008464124E-067
   68.1093000000000         2.050050999178016E-067
   68.3487000000000         1.916062370294061E-067
   68.5881000000000         1.124648592316374E-067
   68.8275000000000        -6.128896271026382E-068
   69.0669000000000        -3.538761579018283E-067
   69.3063000000000        -7.743579013305024E-067
   69.5457000000000        -1.302414767071817E-066
   69.7851000000000        -1.871653404862317E-066
   70.0245000000000        -2.353310911201405E-066
   70.2639000000000        -2.545261592934177E-066
   70.5033000000000        -2.173388217678494E-066
   70.7427000000000        -9.141419717637545E-067
   70.9821000000000         1.552302340704487E-066
   71.2215000000000         5.450509841489295E-066
   71.4609000000000         1.077705186770449E-065
   71.7003000000000         1.713311758089267E-065
   71.9397000000000         2.354332644198905E-065
   72.1791000000000         2.830046428694648E-065
   72.4185000000000         2.889734808273376E-065
   72.6579000000000         2.212709340380653E-065
   72.8973000000000         4.445234706812700E-066
   73.1367000000000        -2.731744139848244E-065
   73.3761000000000        -7.483436216931570E-065
   73.6155000000000        -1.367675486416854E-064
   73.8549000000000        -2.069843633375590E-064
   74.0943000000000        -2.727946827824034E-064
   74.3337000000000        -3.136915502655638E-064
   74.5731000000000        -3.012794328946442E-064
   74.8125000000000        -2.012321115934227E-064
   75.0519000000000         2.183421817101189E-065
   75.2913000000000         3.958469410099469E-064
   75.5307000000000         9.288551861919267E-064
   75.7701000000000         1.593271879124759E-063
   76.0095000000000         2.308605614737881E-063
   76.2489000000000         2.926129208350679E-063
   76.4883000000000         3.220742933839903E-063
   76.7277000000000         2.896949796022954E-063
   76.9671000000000         1.616840234613010E-063
   77.2065000000000        -9.424133144437040E-064
   77.4459000000000        -4.996624840210354E-063
   77.6853000000000        -1.052881041594789E-062
   77.9247000000000        -1.713909096479120E-062
   78.1641000000000        -2.389217949010191E-062
   78.4035000000000        -2.919917954439810E-062
   78.6429000000000        -3.078557608043054E-062
   78.8823000000000        -2.580918504164799E-062
   79.1217000000000        -1.119539202990815E-062
   79.3611000000000         1.575390918211949E-062
   79.6005000000000         5.645310152551473E-062
   79.8399000000000         1.098607930818977E-061
   80.0793000000000         1.711626483184086E-061
   80.3187000000000         2.305397658294883E-061
   80.5581000000000         2.723769920857846E-061
   80.7975000000000         2.753797254162715E-061
   81.0369000000000         2.141386387179914E-061
   81.2763000000000         6.266550641675804E-062
   81.5157000000000        -1.997294351023797E-061
   81.7551000000000        -5.801837938639085E-061
   81.9945000000000        -1.062166991561528E-060
   82.2339000000000        -1.594775143395654E-060
   82.4733000000000        -2.083625012778436E-060
   82.7127000000000        -2.386481020216352E-060
   82.9521000000000        -2.317519522789977E-060
   83.1915000000000        -1.664441893622838E-060
   83.4309000000000        -2.221446564675535E-061
   83.6703000000000         2.155020059085618E-060
   83.9097000000000         5.483504473791336E-060
   84.1491000000000         9.569195633251097E-060
   84.3885000000000         1.392642789292576E-059
   84.6279000000000         1.771636642336235E-059
   84.8673000000000         1.973039806319167E-059
   85.1067000000000         1.844875237077357E-059
   85.3461000000000         1.220485346726171E-059
   85.5855000000000        -5.206685849329204E-061
   85.8249000000000        -2.066821408012543E-059
   86.0643000000000        -4.804836698386770E-059
   86.3037000000000        -8.072842754270387E-059
   86.5431000000000        -1.144592585663035E-058
   86.7825000000000        -1.422948836901327E-058
   87.0219000000000        -1.546003129876630E-058
   87.2613000000000        -1.396663020457585E-058
   87.5007000000000        -8.513688041039229E-059
   87.7401000000000         1.961069657109594E-059
   87.9795000000000         1.801281767677847E-058
   88.2189000000000         3.928053305379201E-058
   88.4583000000000         6.405111088182572E-058
   88.6977000000000         8.887802777376826E-058
   88.9371000000000         1.083687347941955E-057
   89.1765000000000         1.152806332440156E-057
   89.4159000000000         1.010744292801617E-057
   89.6553000000000         5.705485348020453E-058
   89.8947000000000        -2.382868964999310E-058
   90.1341000000000        -1.445532352358458E-057
   90.3735000000000        -3.011503170114678E-057
   90.6129000000000        -4.797718266292548E-057
   90.8523000000000        -6.542924407451406E-057
   91.0917000000000        -7.852522379686173E-057
   91.3311000000000        -8.210838563254962E-057
   91.5705000000000        -7.025810830241235E-057
   91.8099000000000        -3.713800873689897E-057
   92.0493000000000         2.172234690855018E-057
   92.2887000000000         1.077549790251167E-056
   92.5281000000000         2.174384270181373E-056
   92.7675000000000         3.404169802332160E-056
   93.0069000000000         4.580681461088937E-056
   93.2463000000000         5.430529406125202E-056
   93.4857000000000         5.604540096963083E-056
   93.7251000000000         4.710862931522104E-056
   93.9645000000000         2.374119075036573E-056
   94.2039000000000        -1.678303289940078E-056
   94.4433000000000        -7.506780127414471E-056
   94.6827000000000        -1.483760894707105E-055
   94.9221000000000        -2.294763320559741E-055
   95.1615000000000        -3.058237372882760E-055
   95.4009000000000        -3.594145039030215E-055
   95.6403000000000        -3.676824898169705E-055
   95.8797000000000        -3.057796113760745E-055
   96.1191000000000        -1.504690662028137E-055
   96.3585000000000         1.143541278645652E-055
   96.5979000000000         4.908244350098349E-055
   96.8373000000000         9.596784379246351E-055
   97.0767000000000         1.473447264741694E-054
   97.3161000000000         1.951946408489615E-054
   97.5555000000000         2.282100271808023E-054
   97.7949000000000         2.324263514697004E-054
   98.0343000000000         1.926952405588454E-054
   98.2737000000000         9.511468540916957E-055
   98.5131000000000        -6.960235411625512E-055
   98.7525000000000        -3.020353881750316E-054
   98.9919000000000        -5.897012648443474E-054
   99.2313000000000        -9.031711993436622E-054
   99.4707000000000        -1.193652757296910E-053
   99.7101000000000        -1.393214062449009E-053
   99.9495000000000        -1.418867284874862E-053
   100.188900000000        -1.181547720156704E-053
   100.428300000000        -6.005556818400896E-054
   100.667700000000         3.767717263217559E-054
   100.907100000000         1.751520784429328E-053
   101.146500000000         3.448545060420128E-053
   101.385900000000         5.294946068562428E-053
   101.625300000000         7.007315962493392E-053
   101.864700000000         8.194285497198306E-053
   102.104100000000         8.380998215576162E-053
   102.343500000000         7.060969964446570E-053
   102.582900000000         3.778049726461454E-053
   102.822300000000        -1.763318874409474E-053
   103.061700000000        -9.567564852938193E-053
   103.301100000000        -1.921273965207377E-052
   103.540500000000        -2.973407167321155E-052
   103.779900000000        -3.955694381422385E-052
   104.019300000000        -4.651439762763746E-052
   104.258700000000        -4.798412624456157E-052
   104.498100000000        -4.117311535604446E-052
   104.737500000000        -2.356295089758179E-052
   104.976900000000         6.495511107223442E-053
   105.216300000000         4.908241295556031E-052
   105.455700000000         1.019877110420097E-051
   105.695100000000         1.600931970349385E-051
   105.934500000000         2.150182809124393E-051
   106.173900000000         2.552119136799708E-051
   106.413300000000         2.666705920489762E-051
   106.652700000000         2.344256123227663E-051
   106.892100000000         1.448635497965312E-051
   107.131500000000        -1.118138686453853E-052
   107.370900000000        -2.347927594031013E-051
   107.610300000000        -5.152235032776833E-051
   107.849700000000        -8.266681832503462E-051
   108.089100000000        -1.126369016004352E-050
   108.328500000000        -1.354975878366159E-050
   108.567900000000        -1.440066193643318E-050
   108.807300000000        -1.303545988232756E-050
   109.046700000000        -8.732600067378287E-051
   109.286100000000        -9.851962651499356E-052
   109.525500000000         1.031570888821807E-050
   109.764900000000         2.469085246879283E-050
   110.004300000000         4.090649041914189E-050
   110.243700000000         5.687201225006492E-050
   110.483100000000         6.964662481983709E-050
   110.722500000000         7.559983185337185E-050
   110.961900000000         7.076183057692639E-050
   111.201300000000         5.138137089431551E-050
   111.440700000000         1.467925897438162E-050
   111.680100000000        -4.025370877545257E-050
   111.919500000000        -1.115121922318247E-049
   112.158900000000        -1.935314948700851E-049
   112.398300000000        -2.765316356599386E-049
   112.637700000000        -3.464666369897890E-049
   112.877100000000        -3.856958814376907E-049
   113.116500000000        -3.745573681877918E-049
   113.355900000000        -2.939394202131712E-049
   113.595300000000        -1.288136784285636E-049
   113.834700000000         1.274890463395297E-049
   114.074100000000         4.686950609946939E-049
   114.313500000000         8.713598857487782E-049
   114.552900000000         1.291866117240132E-048
   114.792300000000         1.665656645177564E-048
   115.031700000000         1.909735417004356E-048
   115.271100000000         1.929323342211456E-048
   115.510500000000         1.629203699392134E-048
   115.749900000000         9.297073876384343E-049
   115.989300000000        -2.135181214004464E-049
   116.228700000000        -1.787791972672711E-048
   116.468100000000        -3.702626315254911E-048
   116.707500000000        -5.773769293516994E-048
   116.946900000000        -7.716653882001070E-048
   117.186300000000        -9.154067321307505E-048
   117.425700000000        -9.642363072248538E-048
   117.665100000000        -8.719130239569568E-048
   117.904500000000        -5.972795825751814E-048
   118.143900000000        -1.131170933008505E-048
   118.383300000000         5.838355604487662E-048
   118.622700000000         1.462903340061880E-047
   118.862100000000         2.451203356115039E-047
   119.101500000000         3.429107361346096E-047
   119.340900000000         4.231632481581388E-047
   119.580300000000         4.657823815316226E-047
   119.819700000000         4.489673730266315E-047
   120.059100000000         3.521153218995873E-047
   120.298500000000         1.596498496387564E-047
   120.537900000000        -1.344939952019993E-047
   120.777300000000        -5.222071671085193E-047
   121.016700000000        -9.770556292770694E-047
   121.256100000000        -1.451508541937736E-046
   121.495500000000        -1.876518346991054E-046
   121.734900000000        -2.164412947285076E-046
   121.974300000000        -2.215888185931981E-046
   122.213700000000        -1.931525675011088E-046
   122.453100000000        -1.227694022680578E-046
   122.692500000000        -5.593599841041865E-048
   122.931900000000         1.575948680263291E-046
   123.171300000000         3.583853547000863E-046
   123.410700000000         5.791928035206710E-046
   123.650100000000         7.925927877233274E-046
   123.889500000000         9.619681108298883E-046
   124.128900000000         1.043852022235749E-045
   124.368300000000         9.922269158956169E-046
   124.607700000000         7.648240533589407E-046
   124.847100000000         3.311713082385857E-046
   125.086500000000        -3.182317886871608E-046
   125.325900000000        -1.162636601734702E-045
   125.565300000000        -2.143080851249788E-045
   125.804700000000        -3.157462823449964E-045
   126.044100000000        -4.060533471899372E-045
   126.283500000000        -4.670601156804679E-045
   126.522900000000        -4.784349515312429E-045
   126.762300000000        -4.200415198960653E-045
   127.001700000000        -2.751247512990913E-045
   127.241100000000        -3.413183969690518E-046
   127.480500000000         3.011923410043401E-045
   127.719900000000         7.139675559885950E-045
   127.959300000000         1.169281026066464E-044
   128.198700000000         1.613012593301738E-044
   128.438100000000         1.973178252266782E-044
   128.677500000000         2.164485232330961E-044
   128.916900000000         2.096546641959258E-044
   129.156300000000         1.685803767429480E-044
   129.395700000000         8.706563882117900E-045
   129.635100000000        -3.713621747364315E-045
   129.874500000000        -2.006247512253438E-044
   130.113900000000        -3.928590585782798E-044
   130.353300000000        -5.952148510289030E-044
   130.592700000000        -7.809270511492868E-044
   130.832100000000        -9.162361569940555E-044
   131.071500000000        -9.629860286314934E-044
   131.310900000000        -8.827885594239181E-044
   131.550300000000        -6.426756857284115E-044
   131.789700000000        -2.219091625134127E-044
   132.029100000000         3.806678053939311E-044
   132.268500000000         1.139645155416298E-043
   132.507900000000         1.997591210757867E-043
   132.747300000000         2.862463193545134E-043
   132.986700000000         3.609247236682539E-043
   133.226100000000         4.087029403789630E-043
   133.465500000000         4.132303684234645E-043
   133.704900000000         3.588675090149876E-043
   133.944300000000         2.332227240543121E-043
   134.183700000000         3.007449604946199E-044
   134.423100000000        -2.476190890302355E-043
   134.662500000000        -5.850345741225860E-043
   134.901900000000        -9.536219220725317E-043
   135.141300000000        -1.310615173811364E-042
   135.380700000000        -1.600444205613334E-042
   135.620100000000        -1.758475638702874E-042
   135.859500000000        -1.717314195988381E-042
   136.098900000000        -1.415600858957050E-042
   136.338300000000        -8.088618929115140E-043
   136.577700000000         1.184797827650309E-043
   136.817100000000         1.341277792758465E-042
   137.056500000000         2.783780052472823E-042
   137.295900000000         4.313744590908388E-042
   137.535300000000         5.742700294906191E-042
   137.774700000000         6.834314854781257E-042
   138.014100000000         7.322307305004861E-042
   138.253500000000         6.938443908629418E-042
   138.492900000000         5.449893238596161E-042
   138.732300000000         2.703653759023579E-042