  -1.79550000000000         0.000000000000000E+000
  -1.55610000000000         0.000000000000000E+000
  -1.31670000000000         0.000000000000000E+000
  -1.07730000000000         0.000000000000000E+000
 -0.837900000000000         0.000000000000000E+000
 -0.598500000000000         0.000000000000000E+000
 -0.359100000000000         0.000000000000000E+000
 -0.119700000000000         0.000000000000000E+000
  0.119700000000000         0.000000000000000E+000
  0.359100000000000         0.000000000000000E+000
  0.598500000000000         0.000000000000000E+000
  0.837900000000000         0.000000000000000E+000
   1.07730000000000         0.000000000000000E+000
   1.31670000000000         0.000000000000000E+000
   1.55610000000000         0.000000000000000E+000
   1.79550000000000         0.000000000000000E+000
   2.03490000000000         0.000000000000000E+000
   2.27430000000000         0.000000000000000E+000
   2.51370000000000         0.000000000000000E+000
   2.75310000000000         0.000000000000000E+000
   2.99250000000000         0.000000000000000E+000
   3.23190000000000         0.000000000000000E+000
   3.47130000000000         0.000000000000000E+000
   3.71070000000000         0.000000000000000E+000
   3.95010000000000         0.000000000000000E+000
   4.18950000000000         0.000000000000000E+000
   4.42890000000000         0.000000000000000E+000
   4.66830000000000         0.000000000000000E+000
   4.90770000000000         0.000000000000000E+000
   5.14710000000000         0.000000000000000E+000
   5.38650000000000         0.000000000000000E+000
   5.62590000000000         0.000000000000000E+000
   5.86530000000000         0.000000000000000E+000
   6.10470000000000         0.000000000000000E+000
   6.34410000000000         0.000000000000000E+000
   6.58350000000000         0.000000000000000E+000
   6.82290000000000         0.000000000000000E+000
   7.06230000000000         0.000000000000000E+000
   7.30170000000000         0.000000000000000E+000
   7.54110000000000         0.000000000000000E+000
   7.78050000000000        -1.959494594574731E-154
   8.01990000000000        -6.279876176599766E-150
   8.25930000000000        -1.167353148653540E-147
   8.49870000000000        -4.203066229426593E-146
   8.73810000000000        -4.713921953266506E-145
   8.97750000000000         8.454330895891022E-144
   9.21690000000000         4.146451719372722E-142
   9.45630000000000         8.054173758465951E-141
   9.69570000000000         9.459808372527020E-140
   9.93510000000000         5.838281621252894E-139
   10.1745000000000        -2.529467784111048E-138
   10.4139000000000        -1.253334425837712E-136
   10.6533000000000        -2.028787485865958E-135
   10.8927000000000        -2.340287531177805E-134
   11.1321000000000        -2.186214559645076E-133
   11.3715000000000        -1.734276843036425E-132
   11.6109000000000        -1.190056303858235E-131
   11.8503000000000        -7.002952152488800E-131
   12.0897000000000        -3.275538773153849E-130
   12.3291000000000        -7.464288600164776E-130
   12.5685000000000         8.023838010469618E-129
   12.8079000000000         1.614651943339726E-127
   13.0473000000000         1.894349256047701E-126
   13.2867000000000         1.814210562104173E-125
   13.5261000000000         1.527633069941585E-124
   13.7655000000000         1.163099777818371E-123
   14.0049000000000         8.121199407968304E-123
   14.2443000000000         5.246519883125404E-122
   14.4837000000000         3.156169749761006E-121
   14.7231000000000         1.777054848239029E-120
   14.9625000000000         9.404500828292339E-120
   15.2019000000000         4.695031351129985E-119
   15.4413000000000         2.218040604208411E-118
   15.6807000000000         9.942873725239369E-118
   15.9201000000000         4.239321100117924E-117
   16.1595000000000         1.722733568815993E-116
   16.3989000000000         6.684213342293015E-116
   16.6383000000000         2.480000418995652E-115
   16.8777000000000         8.809915846928421E-115
   17.1171000000000         2.999510705816937E-114
   17.3565000000000         9.795221537632315E-114
   17.5959000000000         3.069487389138527E-113
   17.8353000000000         9.231344236707388E-113
   18.0747000000000         2.663773411351218E-112
   18.3141000000000         7.369258330816311E-112
   18.5535000000000         1.951627816826889E-111
   18.7929000000000         4.935362429456610E-111
   19.0323000000000         1.186826712545568E-110
   19.2717000000000         2.695285368264444E-110
   19.5111000000000         5.711322556903206E-110
   19.7505000000000         1.103420876720051E-109
   19.9899000000000         1.844328416229726E-109
   20.2293000000000         2.255745480120263E-109
   20.4687000000000         4.601020741274707E-111
   20.7081000000000        -1.211512758230724E-108
   20.9475000000000        -5.460072312255709E-108
   21.1869000000000        -1.789934406061827E-107
   21.4263000000000        -5.067359979318074E-107
   21.6657000000000        -1.306286933759635E-106
   21.9051000000000        -3.137075508945310E-106
   22.1445000000000        -7.097921489800617E-106
   22.3839000000000        -1.521461856986209E-105
   22.6233000000000        -3.095788880851570E-105
   22.8627000000000        -5.973970446961931E-105
   23.1021000000000        -1.088830862186825E-104
   23.3415000000000        -1.858161401410726E-104
   23.5809000000000        -2.918418472997097E-104
   23.8203000000000        -4.064622565682867E-104
   24.0597000000000        -4.536140089245806E-104
   24.2991000000000        -2.362692635582035E-104
   24.5385000000000         6.798529921603008E-104
   24.7779000000000         3.158143323113060E-103
   25.0173000000000         8.787256701288255E-103
   25.2567000000000         2.031435718527946E-102
   25.4961000000000         4.226183321219194E-102
   25.7355000000000         8.182387908112629E-102
   25.9749000000000         1.502779915878671E-101
   26.2143000000000         2.654386226519569E-101
   26.4537000000000         4.561195568027359E-101
   26.6931000000000         7.698176694793958E-101
   26.9325000000000         1.283580111550534E-100
   27.1719000000000         2.111748443683531E-100
   27.4113000000000         3.385155086874554E-100
   27.6507000000000         5.129514272348058E-100
   27.8901000000000         6.872436239966344E-100
   28.1295000000000         6.629409176797952E-100
   28.3689000000000        -1.357185170727888E-100
   28.6083000000000        -3.107752260701486E-099
   28.8477000000000        -1.125142915295599E-098
   29.0871000000000        -3.031757536770964E-098
   29.3265000000000        -7.011699269513227E-098
   29.5659000000000        -1.450467654941559E-097
   29.8053000000000        -2.713920592725386E-097
   30.0447000000000        -4.562436457412866E-097
   30.2841000000000        -6.687367263664287E-097
   30.5235000000000        -7.794033009401687E-097
   30.7629000000000        -4.505159396556029E-097
   31.0023000000000         1.033557669076954E-096
   31.2417000000000         4.977539377108355E-096
   31.4811000000000         1.343269686062223E-095
   31.7205000000000         2.904742500762135E-095
   31.9599000000000         5.408472930566486E-095
   32.1993000000000         8.768561399794949E-095
   32.4387000000000         1.200236196215914E-094
   32.6781000000000         1.218053472638817E-094
   32.9175000000000         2.827124653142317E-095
   33.1569000000000        -2.803588343288441E-094
   33.3963000000000        -9.933020311029308E-094
   33.6357000000000        -2.356759503287469E-093
   33.8751000000000        -4.591702272800571E-093
   34.1145000000000        -7.670770941411525E-093
   34.3539000000000        -1.085641716245766E-092
   34.5933000000000        -1.190067351735550E-092
   34.8327000000000        -5.878491328479790E-093
   35.0721000000000         1.614645565808989E-092
   35.3115000000000         6.792611350271338E-092
   35.5509000000000         1.667096802648924E-091
   35.7903000000000         3.268582123352731E-091
   36.0297000000000         5.438097934712928E-091
   36.2691000000000         7.625685504439728E-091
   36.5085000000000         8.256439213702539E-091
   36.7479000000000         4.011183705096816E-091
   36.9873000000000        -1.093016666007356E-090
   37.2267000000000        -4.520864779730750E-090
   37.4661000000000        -1.091694299629752E-089
   37.7055000000000        -2.105632707788048E-089
   37.9449000000000        -3.444950949713403E-089
   38.1843000000000        -4.745625225350462E-089
   38.4237000000000        -5.028813336560392E-089
   38.6631000000000        -2.302623208010795E-089
   38.9025000000000         6.834937923727287E-089
   39.1419000000000         2.732592915932612E-088
   39.3813000000000         6.498176650231982E-088
   39.6207000000000         1.241155278443118E-087
   39.8601000000000         2.021995520722523E-087
   40.0995000000000         2.800792956683179E-087
   40.3389000000000         3.066927414156567E-087
   40.5783000000000         1.789742108231624E-087
   40.8177000000000        -2.783429224395613E-087
   41.0571000000000        -1.320825117414115E-086
   41.2965000000000        -3.256361576697102E-086
   41.5359000000000        -6.341456661601713E-086
   41.7753000000000        -1.054580191628268E-085
   42.0147000000000        -1.512056970658663E-085
   42.2541000000000        -1.792149030227952E-085
   42.4935000000000        -1.450439179557366E-085
   42.7329000000000         2.834224709795136E-086
   42.9723000000000         4.561361127598461E-085
   43.2117000000000         1.284171198753079E-084
   43.4511000000000         2.653305273552853E-084
   43.6905000000000         4.614307315404374E-084
   43.9299000000000         6.967890102228884E-084
   44.1693000000000         9.008437200133617E-084
   44.4087000000000         9.170585370593994E-084
   44.6481000000000         4.627384100004741E-084
   44.8875000000000        -9.018759790445589E-084
   45.1269000000000        -3.766477189592373E-083
   45.3663000000000        -8.776891526852937E-083
   45.6057000000000        -1.638382806323728E-082
   45.8451000000000        -2.634692523340918E-082
   46.0845000000000        -3.691159179569103E-082
   46.3239000000000        -4.362739412024494E-082
   46.5633000000000        -3.790983375899226E-082
   46.8027000000000        -5.703517231915398E-083
   47.0421000000000         7.298099492725035E-082
   47.2815000000000         2.223071712600649E-081
   47.5209000000000         4.646048586159971E-081
   47.7603000000000         8.075086804467851E-081
   47.9997000000000         1.221530110590075E-080
   48.2391000000000         1.606353485903881E-080
   48.4785000000000         1.747156396260447E-080
   48.7179000000000         1.268352962250010E-080
   48.9573000000000        -3.976581201293354E-081
   49.1967000000000        -3.994513474891740E-080
   49.4361000000000        -1.032847401437899E-079
   49.6755000000000        -1.999000128935345E-079
   49.9149000000000        -3.283416210992333E-079
   50.1543000000000        -4.715786704727351E-079
   50.3937000000000        -5.856910576731834E-079
   50.6331000000000        -5.866865115018697E-079
   50.8725000000000        -3.388319302822414E-079
   51.1119000000000         3.488516525549715E-079
   51.3513000000000         1.707089480089972E-078
   51.5907000000000         3.956570509646450E-078
   51.8301000000000         7.205466488015550E-078
   52.0695000000000         1.127671689540177E-077
   52.3089000000000         1.545649992093070E-077
   52.5483000000000         1.817756405504073E-077
   52.7877000000000         1.669219480826096E-077
   53.0271000000000         6.853553275568282E-078
   53.2665000000000        -1.678977328168591E-077
   53.5059000000000        -6.028309544170615E-077
   53.7453000000000        -1.285514264212995E-076
   53.9847000000000        -2.222705721517473E-076
   54.2241000000000        -3.330219539707933E-076
   54.4635000000000        -4.367697203351503E-076
   54.7029000000000        -4.863784386832586E-076
   54.9423000000000        -4.050013215482372E-076
   55.1817000000000        -8.373612287632422E-077
   55.4211000000000         6.111546383234578E-076
   55.6605000000000         1.814301685068082E-075
   55.8999000000000         3.612314125186576E-075
   56.1393000000000         5.962485309866356E-075
   56.3787000000000         8.576116802444852E-075
   56.6181000000000         1.077334057900189E-074
   56.8575000000000         1.133349464002040E-074
   57.0969000000000         8.390523772713055E-075
   57.3363000000000        -5.445542982646127E-076
   57.5757000000000        -1.831705143386063E-074
   57.8151000000000        -4.747340221446904E-074
   58.0545000000000        -8.907005782570778E-074
   58.2939000000000        -1.408454321426445E-073
   58.5333000000000        -1.947795109478626E-073
   58.7727000000000        -2.343020285051397E-073
   59.0121000000000        -2.317790684377630E-073
   59.2515000000000        -1.474062870505570E-073
   59.4909000000000         6.878603654343518E-074
   59.7303000000000         4.695795211334038E-073
   59.9697000000000         1.095365898250946E-072
   60.2091000000000         1.948936291805260E-072
   60.4485000000000         2.959477086783132E-072
   60.6879000000000         3.937879210807943E-072
   60.9273000000000         4.530275500391188E-072
   61.1667000000000         4.183567954571486E-072
   61.4061000000000         2.145150129450125E-072
   61.6455000000000        -2.472290569928105E-072
   61.8849000000000        -1.052372444310298E-071
   62.1243000000000        -2.252559172121635E-071
   62.3637000000000        -3.818605636541553E-071
   62.6031000000000        -5.577854941273884E-071
   62.8425000000000        -7.142173275133323E-071
   63.0819000000000        -7.841385201130155E-071
   63.3213000000000        -6.688028087676170E-071
   63.5607000000000        -2.411688508133508E-071
   63.8001000000000         6.387946877775556E-071
   64.0395000000000         2.091553984701232E-070
   64.2789000000000         4.163651775277846E-070
   64.5183000000000         6.749933126837500E-070
   64.7577000000000         9.496646692935227E-070
   64.9971000000000         1.169921261554080E-069
   65.2365000000000         1.222158387485648E-069
   65.4759000000000         9.479854160518648E-070
   65.7153000000000         1.548391388471840E-070
   65.9547000000000        -1.354254122560544E-069
   66.1941000000000        -3.725022605696461E-069
   66.4335000000000        -6.965963614179422E-069
   66.6729000000000        -1.083309901242007E-068
   66.9123000000000        -1.469615183795746E-068
   67.1517000000000        -1.741093387361189E-068
   67.3911000000000        -1.724071303656481E-068
   67.6305000000000        -1.188890272025594E-068
   67.8699000000000         1.277942990223381E-069
   68.1093000000000         2.473132001549659E-068
   68.3487000000000         5.993402312909482E-068
   68.5881000000000         1.061181318775677E-067
   68.8275000000000         1.587478671256735E-067
   69.0669000000000         2.078649872789021E-067
   69.3063000000000         2.367006296750442E-067
   69.5457000000000         2.211559932612882E-067
   69.7851000000000         1.309668928477960E-067
   70.0245000000000        -6.649108130039096E-068
   70.2639000000000        -3.988228575832810E-067
   70.5033000000000        -8.770295825745882E-067
   70.7427000000000        -1.479798315517243E-066
   70.9821000000000        -2.134958682236732E-066
   71.2215000000000        -2.701152938376924E-066
   71.4609000000000        -2.954965612298137E-066
   71.7003000000000        -2.591120009838800E-066
   71.9397000000000        -1.245335004661011E-066
   72.1791000000000         1.449773601157575E-066
   72.4185000000000         5.766848604356779E-066
   72.6579000000000         1.174009882391893E-065
   72.8973000000000         1.898150498639367E-065
   73.1367000000000         2.647767804066975E-065
   73.3761000000000         3.240822405923710E-065
   73.6155000000000         3.404983617278626E-065
   73.8549000000000         2.785297730226561E-065
   74.0943000000000         9.793356085772007E-066
   74.3337000000000        -2.390077219643253E-065
   74.5731000000000        -7.557330353641512E-065
   74.8125000000000        -1.445128701950514E-064
   75.0519000000000        -2.249855240768902E-064
   75.2913000000000        -3.042068073865933E-064
   75.5307000000000        -3.607411683082356E-064
   75.7701000000000        -3.640406464109791E-064
   76.0095000000000        -2.760259529994481E-064
   76.2489000000000        -5.569962349803826E-065
   76.4883000000000         3.323300765988806E-064
   76.7277000000000         9.049481551874882E-064
   76.9671000000000         1.643597263387690E-063
   77.2065000000000         2.474911301176517E-063
   77.4459000000000         3.252213407819153E-063
   77.6853000000000         3.743147152834711E-063
   77.9247000000000         3.630649924919715E-063
   78.1641000000000         2.535870945557857E-063
   78.4035000000000         7.177477407466280E-065
   78.6429000000000        -4.065795287161713E-063
   78.8823000000000        -9.967759367527112E-063
   79.1217000000000        -1.734890875230606E-062
   79.3611000000000        -2.537169247544423E-062
   79.6005000000000        -3.249158248412946E-062
   79.8399000000000        -3.637601201506784E-062
   80.0793000000000        -3.396406022301099E-062
   80.3187000000000        -2.174237311197611E-062
   80.5581000000000         3.692092052594108E-063
   80.7975000000000         4.473712544330196E-062
   81.0369000000000         1.015648207937683E-061
   81.2763000000000         1.706653068963501E-061
   81.5157000000000         2.433573010622715E-061
   81.7551000000000         3.046023299410086E-061
   81.9945000000000         3.325956563596517E-061
   82.2339000000000         2.997136857778034E-061
   82.4733000000000         1.754313880586119E-061
   82.7127000000000        -6.826837649794186E-062
   82.9521000000000        -4.487430004183027E-061
   83.1915000000000        -9.620401375358308E-061
   83.4309000000000        -1.570730367659753E-060
   83.6703000000000        -2.192152232307219E-060
   83.9097000000000        -2.690064811521150E-060
   84.1491000000000        -2.873704808271540E-060
   84.3885000000000        -2.508911619978618E-060
   84.6279000000000        -1.345961982772289E-060
   84.8673000000000         8.323544247816928E-061
   85.1067000000000         4.141466509076619E-060
   85.3461000000000         8.507920130796173E-060
   85.5855000000000         1.357386270817868E-059
   85.8249000000000         1.860996454018081E-059
   86.0643000000000         2.246152224626575E-059
   86.3037000000000         2.355931464635911E-059
   86.5431000000000         2.003037034489114E-059
   86.7825000000000         9.941495811138076E-060
   87.0219000000000        -8.302634322821977E-060
   87.2613000000000        -3.540727325084367E-059
   87.5007000000000        -7.051651756158061E-059
   87.7401000000000        -1.105051574116749E-058
   87.9795000000000        -1.493698619600358E-058
   88.2189000000000        -1.779109955953377E-058
   88.4583000000000        -1.839395287169315E-058
   88.6977000000000        -1.532588585859340E-058
   88.9371000000000        -7.164009321633451E-059
   89.1765000000000         7.208735156595964E-059
   89.4159000000000         2.818848478833437E-058
   89.6553000000000         5.496104849777194E-058
   89.8947000000000         8.500356050961427E-058
   90.1341000000000         1.136803940819079E-057
   90.3735000000000         1.340725405972001E-057
   90.6129000000000         1.372050517298169E-057
   90.8523000000000         1.128407072168002E-057
   91.0917000000000         5.097731879451933E-058
   91.3311000000000        -5.589072858102449E-058
   91.5705000000000        -2.098170295204835E-057
   91.8099000000000        -4.040099104194110E-057
   92.0493000000000        -6.194874605824613E-057
   92.2887000000000        -8.225154210848347E-057
   92.5281000000000        -9.637864600904083E-057
   92.7675000000000        -9.804384050250102E-057
   93.0069000000000        -8.019893447472224E-057
   93.2463000000000        -3.610106195261795E-057
   93.4857000000000         3.912045620092977E-057
   93.7251000000000         1.464629163216358E-056
   93.9645000000000         2.808044436665468E-056
   94.2039000000000         4.287526077225941E-056
   94.4433000000000         5.670820195444185E-056
   94.6827000000000         6.623883028559203E-056
   94.9221000000000         6.726567476160464E-056
   95.1615000000000         5.514068908334575E-056
   95.4009000000000         2.548822327707574E-056
   95.6403000000000        -2.476313596610565E-056
   95.8797000000000        -9.608724643137360E-056
   96.1191000000000        -1.849363080644872E-055
   96.3585000000000        -2.824091069886803E-055
   96.5979000000000        -3.733280009692134E-055
   96.8373000000000        -4.361165882336662E-055
   97.0767000000000        -4.439037393795448E-055
   97.3161000000000        -3.672441504475319E-055
   97.5555000000000        -1.787139062514554E-055
   97.7949000000000         1.406088902785808E-055
   98.0343000000000         5.931407140977966E-055
   98.2737000000000         1.156110727888964E-054
   98.5131000000000         1.773593212594703E-054
   98.7525000000000         2.351184945540858E-054
   98.9919000000000         2.755673069488742E-054
   99.2313000000000         2.822189481604481E-054
   99.4707000000000         2.371077164536061E-054
   99.7101000000000         1.235854282055709E-054
   99.9495000000000        -6.978524594660418E-055
   100.188900000000        -3.444745527217500E-054
   100.428300000000        -6.868811477916961E-054
   100.667700000000        -1.063707006299307E-053
   100.907100000000        -1.418939187990143E-053
   101.146500000000        -1.673787579936284E-053
   101.385900000000        -1.730991715903405E-053
   101.625300000000        -1.484729996608491E-053
   101.864700000000        -8.368624622374089E-054
   102.104100000000         2.806389124918818E-054
   102.343500000000         1.878475074111629E-053
   102.582900000000         3.880992088282928E-053
   102.822300000000         6.100038048475086E-053
   103.061700000000         8.218024042542289E-053
   103.301100000000         9.787670315434559E-053
   103.540500000000         1.025618913680090E-052
   103.779900000000         9.020578138166335E-053
   104.019300000000         5.517865335151197E-053
   104.258700000000        -6.506973698822378E-054
   104.498100000000        -9.569343592529438E-053
   104.737500000000        -2.084771822478379E-052
   104.976900000000        -3.347654118154266E-052
   105.216300000000        -4.573309106734035E-052
   105.455700000000        -5.517661203216029E-052
   105.695100000000        -5.877497658616463E-052
   105.934500000000        -5.319802219815159E-052
   106.173900000000        -3.529786268790373E-052
   106.413300000000        -2.770906104540429E-053
   106.652700000000         4.503957145174687E-052
   106.892100000000         1.062855340946970E-051
   107.131500000000         1.758339686544639E-051
   107.370900000000         2.447415715449511E-051
   107.610300000000         3.001926472831344E-051
   107.849700000000         3.261150481210058E-051
   108.089100000000         3.046591444398876E-051
   108.328500000000         2.186483742206820E-051
   108.567900000000         5.498073866923909E-052
   108.807300000000        -1.912204889961195E-051
   109.046700000000        -5.121310136156299E-051
   109.286100000000        -8.830901301149007E-051
   109.525500000000        -1.259695638916064E-050
   109.764900000000        -1.577179385571552E-050
   110.004300000000        -1.753154029687207E-050
   110.243700000000        -1.694683923279020E-050
   110.483100000000        -1.310266892870820E-050
   110.722500000000        -5.266886190166754E-051
   110.961900000000         6.901701327494589E-051
   111.201300000000         2.312581635343976E-050
   111.440700000000         4.229471900537347E-050
   111.680100000000         6.230492463218014E-050
   111.919500000000         8.000809521031293E-050
   112.158900000000         9.132023888286624E-050
   112.398300000000         9.154063585008700E-050
   112.637700000000         7.591235216297655E-050
   112.877100000000         4.042724784871803E-050
   113.116500000000        -1.716299767301483E-050
   113.355900000000        -9.622000992097879E-050
   113.595300000000        -1.921233840383914E-049
   113.834700000000        -2.954093740668260E-049
   114.074100000000        -3.913886659753929E-049
   114.313500000000        -4.605059378180098E-049
   114.552900000000        -4.796835181990342E-049
   114.792300000000        -4.248212025969897E-049
   115.031700000000        -2.744961737101363E-049
   115.271100000000        -1.471970109917895E-050
   115.510500000000         3.556308454570041E-049
   115.749900000000         8.193549009460808E-049
   115.989300000000         1.336362680930151E-048
   116.228700000000         1.841133233473996E-048
   116.468100000000         2.243441208874911E-048
   116.707500000000         2.433542931950465E-048
   116.946900000000         2.292736310719025E-048
   117.186300000000         1.709670044206946E-048
   117.425700000000         6.019625759118528E-049
   117.665100000000        -1.058371476030654E-048
   117.904500000000        -3.218419459150259E-048
   118.143900000000        -5.720782466841847E-048
   118.383300000000        -8.287975550267557E-048
   118.622700000000        -1.052055869548085E-047
   118.862100000000        -1.191471741198585E-047
   119.101500000000        -1.190403363670213E-047
   119.340900000000        -9.928047505697224E-048
   119.580300000000        -5.526812932971475E-048
   119.819700000000         1.543930392954070E-048
   120.059100000000         1.118781168999526E-047
   120.298500000000         2.284974899605898E-047
   120.537900000000         3.542667726776689E-047
   120.777300000000         4.723278871238931E-047
   121.016700000000         5.604600764142134E-047
   121.256100000000         5.925949017393798E-047
   121.495500000000         5.415403469659359E-047
   121.734900000000         3.829380971431354E-047
   121.974300000000         1.002882332968713E-047
   122.213700000000        -3.093594119812726E-047
   122.453100000000        -8.297073520948959E-047
   122.692500000000        -1.420417334006236E-046
   122.931900000000        -2.014333139995434E-046
   123.171300000000        -2.517927607879856E-046
   123.410700000000        -2.816122971091289E-046
   123.650100000000        -2.782369269654861E-046
   123.889500000000        -2.294361936384405E-046
   124.128900000000        -1.255027976349925E-046
   124.368300000000         3.825622125355884E-047
   124.607700000000         2.588821063476096E-046
   124.847100000000         5.233418629244267E-046
   125.086500000000         8.067818287406852E-046
   125.325900000000         1.071983179720261E-045
   125.565300000000         1.270551083232041E-045
   125.804700000000         1.346293965487886E-045
   126.044100000000         1.241075201719551E-045
   126.283500000000         9.031376818176699E-046
   126.522900000000         2.975169870005820E-046
   126.762300000000        -5.823060696039183E-046
   127.001700000000        -1.702864834240721E-045
   127.241100000000        -2.981104086791166E-045
   127.480500000000        -4.278905102183323E-045
   127.719900000000        -5.404085678806647E-045
   127.959300000000        -6.120074599458585E-045
   128.198700000000        -6.165920969039618E-045
   128.438100000000        -5.287311754302220E-045
   128.677500000000        -3.277827516183976E-045
   128.916900000000        -2.782570956537777E-047
   129.156300000000         4.423756456060823E-045
   129.395700000000         9.841512545769776E-045
   129.635100000000         1.575826235905365E-044
   129.874500000000         2.146217574584876E-044
   130.113900000000         2.601626133593014E-044
   130.353300000000         2.831877894656158E-044
   130.592700000000         2.720997977524152E-044
   130.832100000000         2.162550337500084E-044
   131.071500000000         1.078986132729418E-044
   131.310900000000        -5.564880915202359E-045
   131.550300000000        -2.697909272985741E-044
   131.789700000000        -5.207663057088376E-044
   132.029100000000        -7.844598219283687E-044
   132.268500000000        -1.026336367844753E-043
   132.507900000000        -1.202897160341662E-043
   132.747300000000        -1.264971286234780E-043
   132.986700000000        -1.162990891092690E-043
   133.226100000000        -8.541560189928454E-044
   133.465500000000        -3.110838463724236E-044
   133.704900000000         4.688204026281797E-044
   133.944300000000         1.454400090318484E-043
   134.183700000000         2.573645225220603E-043
   134.423100000000         3.710126763566777E-043
   134.662500000000         4.704691958179220E-043
   134.901900000000         5.363960031546062E-043
   135.141300000000         5.476684875895774E-043
   135.380700000000         4.838265233616092E-043
   135.620100000000         3.282593246616156E-043
   135.859500000000         7.190973710505299E-044
   136.098900000000        -2.828631798851067E-043
   136.338300000000        -7.187675229201225E-043
   136.577700000000        -1.201029649951964E-042
   136.817100000000        -1.676501421021253E-042
   137.056500000000        -2.075101396371965E-042
   137.295900000000        -2.314156367194535E-042
   137.535300000000        -2.305980455074911E-042
   137.774700000000        -1.968676836281516E-042
   138.014100000000        -1.239682504177552E-042
   138.253500000000        -9.102945977851806E-044
   138.492900000000         1.455282179751690E-042
   138.732300000000         3.313940062533890E-042