  -1.79550000000000         0.000000000000000E+000
  -1.55610000000000         0.000000000000000E+000
  -1.31670000000000         0.000000000000000E+000
  -1.07730000000000         0.000000000000000E+000
 -0.837900000000000         0.000000000000000E+000
 -0.598500000000000         0.000000000000000E+000
 -0.359100000000000         0.000000000000000E+000
 -0.119700000000000         0.000000000000000E+000
  0.119700000000000         0.000000000000000E+000
  0.359100000000000         0.000000000000000E+000
  0.598500000000000         0.000000000000000E+000
  0.837900000000000         0.000000000000000E+000
   1.07730000000000         0.000000000000000E+000
   1.31670000000000         0.000000000000000E+000
   1.55610000000000         0.000000000000000E+000
   1.79550000000000         0.000000000000000E+000
   2.03490000000000         0.000000000000000E+000
   2.27430000000000         0.000000000000000E+000
   2.51370000000000         0.000000000000000E+000
   2.75310000000000         0.000000000000000E+000
   2.99250000000000         0.000000000000000E+000
   3.23190000000000         0.000000000000000E+000
   3.47130000000000         0.000000000000000E+000
   3.71070000000000         0.000000000000000E+000
   3.95010000000000         0.000000000000000E+000
   4.18950000000000         0.000000000000000E+000
   4.42890000000000         0.000000000000000E+000
   4.66830000000000         0.000000000000000E+000
   4.90770000000000         0.000000000000000E+000
   5.14710000000000         0.000000000000000E+000
   5.38650000000000         0.000000000000000E+000
   5.62590000000000         0.000000000000000E+000
   5.86530000000000         0.000000000000000E+000
   6.10470000000000         0.000000000000000E+000
   6.34410000000000         0.000000000000000E+000
   6.58350000000000         0.000000000000000E+000
   6.82290000000000         0.000000000000000E+000
   7.06230000000000         0.000000000000000E+000
   7.30170000000000         0.000000000000000E+000
   7.54110000000000        -6.037360878246699E-155
   7.78050000000000        -4.283498006681255E-151
   8.01990000000000        -7.855380735237092E-149
   8.25930000000000        -2.407645121587825E-147
   8.49870000000000        -3.337874128886759E-146
   8.73810000000000         5.564142303100810E-147
   8.97750000000000         1.428973548183115E-143
   9.21690000000000         4.540370346680423E-142
   9.45630000000000         8.867516144255632E-141
   9.69570000000000         1.234220945666864E-139
   9.93510000000000         1.248410653230897E-138
   10.1745000000000         8.420601854581297E-138
   10.4139000000000         1.722214271797703E-137
   10.6533000000000        -4.549851046871710E-136
   10.8927000000000        -7.499404706863275E-135
   11.1321000000000        -5.831517006903575E-134
   11.3715000000000        -7.884588685487040E-134
   11.6109000000000         4.003202074210270E-132
   11.8503000000000         4.335416447019606E-131
   12.0897000000000        -1.947838729683854E-130
   12.3291000000000        -1.345584027963518E-128
   12.5685000000000        -2.608594536599223E-127
   12.8079000000000        -3.543744873075082E-126
   13.0473000000000        -3.898394200962654E-125
   13.2867000000000        -3.676102233178408E-124
   13.5261000000000        -3.062812623693571E-123
   13.7655000000000        -2.297842089234144E-122
   14.0049000000000        -1.572864691628319E-121
   14.2443000000000        -9.918810728585331E-121
   14.4837000000000        -5.806367130129128E-120
   14.7231000000000        -3.174371537250077E-119
   14.9625000000000        -1.628858308656642E-118
   15.2019000000000        -7.877576991428269E-118
   15.4413000000000        -3.603482745974877E-117
   15.6807000000000        -1.563826143318769E-116
   15.9201000000000        -6.455416916479189E-116
   16.1595000000000        -2.540442439430813E-115
   16.3989000000000        -9.549692798813071E-115
   16.6383000000000        -3.434718080176671E-114
   16.8777000000000        -1.183673443026700E-113
   17.1171000000000        -3.913142600724684E-113
   17.3565000000000        -1.242178708659910E-112
   17.5959000000000        -3.788902914150498E-112
   17.8353000000000        -1.110979876878740E-111
   18.0747000000000        -3.132019084502555E-111
   18.3141000000000        -8.487372313261349E-111
   18.5535000000000        -2.209314152445008E-110
   18.7929000000000        -5.517098614466695E-110
   19.0323000000000        -1.318796081879123E-109
   19.2717000000000        -3.006815555626879E-109
   19.5111000000000        -6.500753304042762E-109
   19.7505000000000        -1.319585504410166E-108
   19.9899000000000        -2.469418877181713E-108
   20.2293000000000        -4.098968190027922E-108
   20.4687000000000        -5.429046530721281E-108
   20.7081000000000        -3.176650580111535E-108
   20.9475000000000         1.273905586045988E-107
   21.1869000000000         6.902669200558952E-107
   21.4263000000000         2.300175369976715E-106
   21.6657000000000         6.397637737272968E-106
   21.9051000000000         1.601384222981586E-105
   22.1445000000000         3.717164602540472E-105
   22.3839000000000         8.118147789837355E-105
   22.6233000000000         1.680629824820213E-104
   22.8627000000000         3.309674555903743E-104
   23.1021000000000         6.204537060472856E-104
   23.3415000000000         1.105133441977207E-103
   23.5809000000000         1.860488236812116E-103
   23.8203000000000         2.928911708993827E-103
   24.0597000000000         4.218739998085054E-103
   24.2991000000000         5.284400949951617E-103
   24.5385000000000         4.887923512027393E-103
   24.7779000000000         1.744844762357471E-104
   25.0173000000000        -1.481309849251354E-102
   25.2567000000000        -5.172290898157462E-102
   25.4961000000000        -1.322651559852783E-101
   25.7355000000000        -2.953135743203225E-101
   25.9749000000000        -6.077627262147203E-101
   26.2143000000000        -1.179357850308731E-100
   26.4537000000000        -2.178235869461104E-100
   26.6931000000000        -3.833848130849320E-100
   26.9325000000000        -6.389721384537058E-100
   27.1719000000000        -9.917593840887223E-100
   27.4113000000000        -1.380999929958246E-099
   27.6507000000000        -1.561687516890701E-099
   27.8901000000000        -8.697269440776677E-100
   28.1295000000000         2.198186428993544E-099
   28.3689000000000         1.063575150573402E-098
   28.6083000000000         2.973188391621259E-098
   28.8477000000000         6.759733147787319E-098
   29.0871000000000         1.341860248069922E-097
   29.3265000000000         2.360761444807003E-097
   29.5659000000000         3.618448906812369E-097
   29.8053000000000         4.497228370278816E-097
   30.0447000000000         3.267416787005081E-097
   30.2841000000000        -3.892315519214517E-097
   30.5235000000000        -2.417691958890221E-096
   30.7629000000000        -6.922492516447444E-096
   31.0023000000000        -1.544855584516937E-095
   31.2417000000000        -2.935993477957261E-095
   31.4811000000000        -4.817287716684784E-095
   31.7205000000000        -6.583523457056818E-095
   31.9599000000000        -6.376182159681142E-095
   32.1993000000000         2.788736537606301E-097
   32.4387000000000         2.066498184317391E-094
   32.6781000000000         6.863662405109420E-094
   32.9175000000000         1.616770274752359E-093
   33.1569000000000         3.168689530870321E-093
   33.3963000000000         5.348517601444544E-093
   33.6357000000000         7.649630306385800E-093
   33.8751000000000         8.409466689015147E-093
   34.1145000000000         3.797221381174220E-093
   34.3539000000000        -1.349932463305689E-092
   34.5933000000000        -5.545080078642610E-092
   34.8327000000000        -1.385499625873694E-091
   35.0721000000000        -2.799314220391386E-091
   35.3115000000000        -4.855251206089517E-091
   35.5509000000000        -7.240148513914643E-091
   35.7903000000000        -8.792126305375813E-091
   36.0297000000000        -6.754984203735937E-091
   36.2691000000000         4.195224698208429E-091
   36.5085000000000         3.287479210598852E-090
   36.7479000000000         9.173348784424336E-090
   36.9873000000000         1.947230615918514E-089
   37.2267000000000         3.503525510941030E-089
   37.4661000000000         5.462368466762661E-089
   37.7055000000000         7.207764003852727E-089
   37.9449000000000         7.186591438854987E-089
   38.1843000000000         2.318047645361269E-089
   38.4237000000000        -1.260639326489440E-088
   38.6631000000000        -4.516723415216157E-088
   38.9025000000000        -1.044691828300742E-087
   39.1419000000000        -1.979553125444913E-087
   39.3813000000000        -3.240796787423942E-087
   39.6207000000000        -4.586895023715256E-087
   39.8601000000000        -5.333644277302082E-087
   40.0995000000000        -4.059945101133641E-087
   40.3389000000000         1.711600786988123E-087
   40.5783000000000         1.571268927487220E-086
   40.8177000000000         4.270810515715526E-086
   41.0571000000000         8.735040480736175E-086
   41.2965000000000         1.513763766327576E-085
   41.5359000000000         2.282538866462751E-085
   41.7753000000000         2.944904623502474E-085
   42.0147000000000         2.974900808473197E-085
   42.2541000000000         1.415346532494158E-085
   42.4935000000000        -3.233095858527387E-085
   42.7329000000000        -1.299374056757420E-084
   42.9723000000000        -3.009523626089754E-084
   43.2117000000000        -5.610007440071101E-084
   43.4511000000000        -9.016552746275988E-084
   43.6905000000000        -1.261349285027066E-083
   43.9299000000000        -1.483375710052163E-083
   44.1693000000000        -1.264544929689029E-083
   44.4087000000000        -1.073916713623323E-084
   44.6481000000000         2.696006084385541E-083
   44.8875000000000         7.999295286497894E-083
   45.1269000000000         1.658200200284983E-082
   45.3663000000000         2.867893880159743E-082
   45.6057000000000         4.315963286972954E-082
   45.8451000000000         5.629659005547733E-082
   46.0845000000000         6.017475297487600E-082
   46.3239000000000         4.102417206431815E-082
   46.5633000000000        -2.185907763874638E-082
   46.8027000000000        -1.553891159567098E-081
   47.0421000000000        -3.882778193516167E-081
   47.2815000000000        -7.404067947078856E-081
   47.5209000000000        -1.203162111913771E-080
   47.7603000000000        -1.708496709555175E-080
   47.9997000000000        -2.086728220136428E-080
   48.2391000000000        -2.017938250660171E-080
   48.4785000000000        -9.902598529409769E-081
   48.7179000000000         1.709153525078847E-080
   48.9573000000000         6.928684888733161E-080
   49.1967000000000         1.545375958495609E-079
   49.4361000000000         2.760520886236712E-079
   49.6755000000000         4.256876863377054E-079
   49.9149000000000         5.742610768825815E-079
   50.1543000000000         6.594608482783106E-079
   50.3937000000000         5.735721665645123E-079
   50.6331000000000         1.557451020918707E-079
   50.8725000000000        -8.030668832004291E-079
   51.1119000000000        -2.530501186913301E-078
   51.3513000000000        -5.203178925740657E-078
   51.5907000000000        -8.820833363520434E-078
   51.8301000000000        -1.301231507122430E-077
   52.0695000000000        -1.677530172336216E-077
   52.3089000000000        -1.817903875326760E-077
   52.5483000000000        -1.410473087399203E-077
   52.7877000000000        -1.626577110407981E-079
   53.0271000000000         2.899576757125454E-077
   53.2665000000000         7.867353424374109E-077
   53.5059000000000         1.520839566023592E-076
   53.7453000000000         2.469483442493923E-076
   53.9847000000000         3.505930471741593E-076
   54.2241000000000         4.338125137363504E-076
   54.4635000000000         4.444919083061145E-076
   54.7029000000000         3.030818037986823E-076
   54.9423000000000        -9.653896248945562E-077
   55.1817000000000        -8.756680414635732E-076
   55.4211000000000        -2.142353136573861E-075
   55.6605000000000        -3.939074203827768E-075
   55.8999000000000        -6.161416139545449E-075
   56.1393000000000        -8.447904069169942E-075
   56.3787000000000        -1.005160082372729E-074
   56.6181000000000        -9.720938404526845E-075
   56.8575000000000        -5.640863458291271E-075
   57.0969000000000         4.486082764199740E-075
   57.3363000000000         2.311092435569931E-074
   57.5757000000000         5.213613774842025E-074
   57.8151000000000         9.172378347498792E-074
   58.0545000000000         1.385554061795731E-073
   58.2939000000000         1.836184926656459E-073
   58.5333000000000         2.098277970959868E-073
   58.7727000000000         1.901374937215993E-073
   59.0121000000000         8.724958159445978E-074
   59.2515000000000        -1.434832705269434E-073
   59.4909000000000        -5.459534400525644E-073
   59.7303000000000        -1.147876475739127E-072
   59.9697000000000        -1.936437745410784E-072
   60.2091000000000        -2.824897189090416E-072
   60.4485000000000        -3.612953674200389E-072
   60.6879000000000        -3.948294724177771E-072
   60.9273000000000        -3.303100618115638E-072
   61.1667000000000        -9.867760933180515E-073
   61.4061000000000         3.776590245671298E-072
   61.6455000000000         1.167321038378667E-071
   61.8849000000000         2.299674803605332E-071
   62.1243000000000         3.720201529491505E-071
   62.3637000000000         5.233220015593521E-071
   62.6031000000000         6.439226912485308E-071
   62.8425000000000         6.682196220678957E-071
   63.0819000000000         5.032343224670810E-071
   63.3213000000000         3.406484182376332E-072
   63.5607000000000        -8.590050192701036E-071
   63.8001000000000        -2.267099732260316E-070
   64.0395000000000        -4.199579770724406E-070
   64.2789000000000        -6.510886062343293E-070
   64.5183000000000        -8.813245932083727E-070
   64.7577000000000        -1.039040742862138E-069
   64.9971000000000        -1.013995764954959E-069
   65.2365000000000        -6.585927760740853E-070
   65.4759000000000         1.983634570759482E-070
   65.7153000000000         1.719259333422381E-069
   65.9547000000000         4.001099917343236E-069
   66.1941000000000         6.992095911195735E-069
   66.4335000000000         1.038469230208963E-068
   66.6729000000000         1.349809530384465E-068
   66.9123000000000         1.517704672223166E-068
   67.1517000000000         1.375020394923628E-068
   67.3911000000000         7.108339698505390E-069
   67.6305000000000        -7.025164184023164E-069
   67.8699000000000        -3.055864980427222E-068
   68.1093000000000        -6.417930346171112E-068
   68.3487000000000        -1.061834795381059E-067
   68.5881000000000        -1.510837637219992E-067
   68.8275000000000        -1.882241330057820E-067
   69.0669000000000        -2.008111320997106E-067
   69.3063000000000        -1.659624931723003E-067
   69.5457000000000        -5.654186263616954E-068
   69.7851000000000         1.543789017087854E-067
   70.0245000000000         4.857020833543624E-067
   70.2639000000000         9.368106635564827E-067
   70.5033000000000         1.472882351389276E-066
   70.7427000000000         2.008760126203732E-066
   70.9821000000000         2.394838906484662E-066
   71.2215000000000         2.410427580832380E-066
   71.4609000000000         1.771983474809610E-066
   71.7003000000000         1.649042629738388E-067
   71.9397000000000        -2.692630792454059E-066
   72.1791000000000        -6.947968576180138E-066
   72.4185000000000        -1.247487407489952E-065
   72.6579000000000        -1.870804170266421E-065
   72.8973000000000        -2.447741614426088E-065
   73.1367000000000        -2.788729931474749E-065
   73.3761000000000        -2.630507084383593E-065
   73.6155000000000        -1.654061057175940E-065
   73.8549000000000         4.696738457474039E-066
   74.0943000000000         3.999046527365224E-065
   74.3337000000000         9.002804277783087E-065
   74.5731000000000         1.520811513840089E-064
   74.8125000000000         2.183280736359340E-064
   75.0519000000000         2.743527084268840E-064
   75.2913000000000         2.983378577900734E-064
   75.5307000000000         2.616418750159872E-064
   75.7701000000000         1.315543022935123E-064
   76.0095000000000        -1.230038534880874E-064
   76.2489000000000        -5.223196262051892E-064
   76.4883000000000        -1.063303477573864E-063
   76.7277000000000        -1.704426815541645E-063
   76.9671000000000        -2.350397747427177E-063
   77.2065000000000        -2.840329739119739E-063
   77.4459000000000        -2.944745510558734E-063
   77.6853000000000        -2.378020324075084E-063
   77.9247000000000        -8.332707519204372E-064
   78.1641000000000         1.954421677893256E-063
   78.4035000000000         6.113892995890520E-063
   78.6429000000000         1.151644885570026E-062
   78.8823000000000         1.763980457649069E-062
   79.1217000000000         2.344194916831408E-062
   79.3611000000000         2.728267778102149E-062
   79.6005000000000         2.694271792445842E-062
   79.8399000000000         1.979785293162004E-062
   80.0793000000000         3.203424743722799E-063
   80.3187000000000        -2.487234347729356E-062
   80.5581000000000        -6.496471379290838E-062
   80.7975000000000        -1.150372512537557E-061
   81.0369000000000        -1.693570140662747E-061
   81.2763000000000        -2.175618603425562E-061
   81.5157000000000        -2.442640068185959E-061
   81.7551000000000        -2.296156788033556E-061
   81.9945000000000        -1.512914359357943E-061
   82.2339000000000         1.172132760587243E-062
   82.4733000000000         2.733271596071345E-061
   82.7127000000000         6.326851251441402E-061
   82.9521000000000         1.065427051504186E-060
   83.1915000000000         1.515118259521916E-060
   83.4309000000000         1.887117600951278E-060
   83.6703000000000         2.047710385693823E-060
   83.9097000000000         1.831851125407348E-060
   84.1491000000000         1.062805937729866E-060
   84.3885000000000        -4.138591984044796E-061
   84.6279000000000        -2.681403284755666E-060
   84.8673000000000        -5.690743367217886E-060
   85.1067000000000        -9.193938391183546E-060
   85.3461000000000        -1.268451303810432E-059
   85.5855000000000        -1.536225892542656E-059
   85.8249000000000        -1.614466103624806E-059
   86.0643000000000        -1.374910346744503E-059
   86.3037000000000        -6.867637595906025E-060
   86.5431000000000         5.552573403089353E-060
   86.7825000000000         2.392654373283732E-059
   87.0219000000000         4.757491257862229E-059
   87.2613000000000         7.425454307871013E-059
   87.5007000000000         9.977422514464373E-059
   87.7401000000000         1.178288948292525E-058
   87.9795000000000         1.202109640852109E-058
   88.2189000000000         9.756099114855049E-059
   88.4583000000000         4.078944073225655E-059
   88.6977000000000        -5.677508992424217E-059
   88.9371000000000        -1.965859914001219E-058
   89.1765000000000        -3.716861720147993E-058
   89.4159000000000        -5.636087953087646E-058
   89.6553000000000        -7.400991090085280E-058
   89.8947000000000        -8.545977429838581E-058
   90.1341000000000        -8.485464835010135E-058
   90.3735000000000        -6.575312432596631E-058
   90.6129000000000        -2.219856265444534E-058
   90.8523000000000         4.974235912207474E-058
   91.0917000000000         1.500553176823429E-057
   91.3311000000000         2.726770408698627E-057
   91.5705000000000         4.035734335562635E-057
   91.8099000000000         5.195016058385525E-057
   92.0493000000000         5.880773092658383E-057
   92.2887000000000         5.698142447753905E-057
   92.5281000000000         4.227279696472894E-057
   92.7675000000000         1.098596295739669E-057
   93.0069000000000        -3.903596463324243E-057
   93.2463000000000        -1.071622222853618E-056
   93.4857000000000        -1.886666973341759E-056
   93.7251000000000        -2.736046735392521E-056
   93.9645000000000        -3.462023880882117E-056
   94.2039000000000        -3.851466606177971E-056
   94.4433000000000        -3.651694500153841E-056
   94.6827000000000        -2.602513468939390E-056
   94.9221000000000        -4.859452038245206E-057
   95.1615000000000         2.807752460125901E-056
   95.4009000000000         7.203236849448340E-056
   95.6403000000000         1.236280095588722E-055
   95.8797000000000         1.762428277768543E-055
   96.1191000000000         2.197435753593899E-055
   96.3585000000000         2.408007849397020E-055
   96.5979000000000         2.240083002138457E-055
   96.8373000000000         1.539729190239596E-055
   97.0767000000000         1.842376780926257E-056
   97.3161000000000        -1.877915755852421E-055
   97.5555000000000        -4.582006807705906E-055
   97.7949000000000        -7.703501719266872E-055
   98.0343000000000        -1.082547175815230E-054
   98.2737000000000        -1.332878084874493E-054
   98.5131000000000        -1.441790420492394E-054
   98.7525000000000        -1.319422056641974E-054
   98.9919000000000        -8.784757166556970E-055
   99.2313000000000        -5.270916963339742E-056
   99.4707000000000         1.179971401280014E-054
   99.7101000000000         2.772215857680994E-054
   99.9495000000000         4.583693458582755E-054
   100.188900000000         6.364777985844571E-054
   100.428300000000         7.754036954362258E-054
   100.667700000000         8.296447016453491E-054
   100.907100000000         7.488392665226601E-054
   101.146500000000         4.853053677350183E-054
   101.385900000000         4.550469081568648E-056
   101.625300000000        -7.019257367490543E-054
   101.864700000000        -1.602971134126565E-053
   102.104100000000        -2.615520505492292E-053
   102.343500000000        -3.596747035312910E-053
   102.582900000000        -4.344151971718189E-053
   102.822300000000        -4.607180954749169E-053
   103.061700000000        -4.113353226415671E-053
   103.301100000000        -2.610442001200121E-053
   103.540500000000         7.614726137916985E-055
   103.779900000000         3.974948774162882E-053
   104.019300000000         8.897073155606805E-053
   104.258700000000         1.437419952549789E-052
   104.498100000000         1.962189343279310E-052
   104.737500000000         2.354648533812669E-052
   104.976900000000         2.481354114653347E-052
   105.216300000000         2.199224442970724E-052
   105.455700000000         1.378196128227940E-052
   105.695100000000        -6.854932451449516E-054
   105.934500000000        -2.149146018544395E-052
   106.173900000000        -4.756758027298691E-052
   106.413300000000        -7.638876123518695E-052
   106.652700000000        -1.038037557293565E-051
   106.892100000000        -1.240949076921574E-051
   107.131500000000        -1.303555231972847E-051
   107.370900000000        -1.152524160128550E-051
   107.610300000000        -7.219875255625159E-052
   107.849700000000         3.102919676611061E-053
   108.089100000000         1.108732489070165E-051
   108.328500000000         2.454489892880396E-051
   108.567900000000         3.937805498332544E-051
   108.807300000000         5.346406511504601E-051
   109.046700000000         6.389928923829025E-051
   109.286100000000         6.719470428974222E-051
   109.525500000000         5.966186183869342E-051
   109.764900000000         3.799972045637541E-051
   110.004300000000         6.064990924804779E-054
   110.243700000000        -5.426775998342161E-051
   110.483100000000        -1.221760356850931E-050
   110.722500000000        -1.971996025146194E-050
   110.961900000000        -2.688357951075340E-050
   111.201300000000        -3.227268978181332E-050
   111.440700000000        -3.416131440461103E-050
   111.680100000000        -3.072062655121970E-050
   111.919500000000        -2.030319093399215E-050
   112.158900000000        -1.813625063064981E-051
   112.398300000000         2.486450578160912E-050
   112.637700000000         5.843818264670546E-050
   112.877100000000         9.584572320451658E-050
   113.116500000000         1.320619044343713E-049
   113.355900000000         1.601695455902673E-049
   113.595300000000         1.717944797310013E-049
   113.834700000000         1.579764986456264E-049
   114.074100000000         1.105019270805635E-049
   114.313500000000         2.365309813350373E-050
   114.552900000000        -1.037609644451143E-049
   114.792300000000        -2.663323033813066E-049
   115.031700000000        -4.502839432888984E-049
   115.271100000000        -6.324318923320369E-049
   115.510500000000        -7.803554947648646E-049
   115.749900000000        -8.542350407949079E-049
   115.989300000000        -8.107122352410406E-049
   116.228700000000        -6.089236214868040E-049
   116.468100000000        -2.185442166930507E-049
   116.707500000000         3.707303772865923E-049
   116.946900000000         1.139308326728166E-048
   117.186300000000         2.028959426620585E-048
   117.425700000000         2.937146166010652E-048
   117.665100000000         3.716613856712414E-048
   117.904500000000         4.182398797949461E-048
   118.143900000000         4.128011720828557E-048
   118.383300000000         3.351699078191303E-048
   118.622700000000         1.692344866693437E-048
   118.862100000000        -9.272128715833910E-049
   119.101500000000        -4.453788424267649E-048
   119.340900000000        -8.660922623924080E-048
   119.580300000000        -1.311794255578503E-047
   119.819700000000        -1.718084468170483E-047
   120.059100000000        -2.001503819803857E-047
   120.298500000000        -2.065860076263109E-047
   120.537900000000        -1.813135371736688E-047
   120.777300000000        -1.158956143887348E-047
   121.016700000000        -5.184818211130938E-049
   121.256100000000         1.505420450740560E-047
   121.495500000000         3.435099038749759E-047
   121.734900000000         5.567938836999592E-047
   121.974300000000         7.635221179873245E-047
   122.213700000000         9.273905402784102E-047
   122.453100000000         1.004908581314382E-046
   122.692500000000         9.496735235406492E-047
   122.931900000000         7.187562803167716E-047
   123.171300000000         2.809721091612673E-047
   123.410700000000        -3.735792275201285E-047
   123.650100000000        -1.223755347680921E-046
   123.889500000000        -2.208877317212172E-046
   124.128900000000        -3.223336444920277E-046
   124.368300000000        -4.116331685077402E-046
   124.607700000000        -4.698709381442436E-046
   124.847100000000        -4.758483825261659E-046
   125.086500000000        -4.085827612049910E-046
   125.325900000000        -2.507114365993520E-046
   125.565300000000         7.398927187716959E-048
   125.804700000000         3.632239149099898E-046
   126.044100000000         7.979120997826885E-046
   126.283500000000         1.273125965983499E-045
   126.522900000000         1.729761910316078E-045
   126.762300000000         2.089443135618105E-045
   127.001700000000         2.259573554257876E-045
   127.241100000000         2.142473735516970E-045
   127.480500000000         1.648674772561752E-045
   127.719900000000         7.138277594560122E-046
   127.959300000000        -6.820709076583374E-046
   128.198700000000        -2.495267565717078E-045
   128.438100000000        -4.601580539218281E-045
   128.677500000000        -6.786032274530239E-045
   128.916900000000        -8.742658337928465E-045
   129.156300000000        -1.008819570703584E-044
   129.395700000000        -1.039255194163085E-044
   129.635100000000        -9.227426610613553E-045
   129.874500000000        -6.232173276213612E-045
   130.113900000000        -1.193037832687161E-045
   130.353300000000         5.871498028702835E-045
   130.592700000000         1.463004170834519E-044
   130.832100000000         2.437615487538734E-044
   131.071500000000         3.400071434684460E-044
   131.310900000000         4.201512337938048E-044
   131.550300000000         4.663979749605964E-044
   131.789700000000         4.596757217089468E-044
   132.029100000000         3.820379217533132E-044
   132.268500000000         2.197395753010552E-044
   132.507900000000        -3.323478085684279E-045
   132.747300000000        -3.715606516291475E-044
   132.986700000000        -7.753896022074122E-044
   133.226100000000        -1.208212455677351E-043
   133.465500000000        -1.616448146579574E-043
   133.704900000000        -1.931413343850035E-043
   133.944300000000        -2.074199486791624E-043
   134.183700000000        -1.963733843502685E-043
   134.423100000000        -1.527925659429623E-043
   134.662500000000        -7.173107417644209E-044
   134.901900000000         4.799577151774402E-044
   135.141300000000         2.023510335108904E-043
   135.380700000000         3.808820361311067E-043
   135.620100000000         5.660557210418933E-043
   135.859500000000         7.333981773436027E-043
   136.098900000000         8.526875965619496E-043
   136.338300000000         8.903797260074081E-043
   136.577700000000         8.133255139539407E-043
   136.817100000000         5.936732931130401E-043
   137.056500000000         2.146411536456586E-043
   137.295900000000        -3.233837565571459E-043
   137.535300000000        -9.971875063980636E-043
   137.774700000000        -1.756469588805042E-042
   138.014100000000        -2.522048741560969E-042
   138.253500000000        -3.187596189265739E-042
   138.492900000000        -3.625798252095995E-042
   138.732300000000        -3.699510023434058E-042