  -1.79550000000000         0.000000000000000E+000
  -1.55610000000000         0.000000000000000E+000
  -1.31670000000000         0.000000000000000E+000
  -1.07730000000000         0.000000000000000E+000
 -0.837900000000000         0.000000000000000E+000
 -0.598500000000000         0.000000000000000E+000
 -0.359100000000000         0.000000000000000E+000
 -0.119700000000000         0.000000000000000E+000
  0.119700000000000         0.000000000000000E+000
  0.359100000000000         0.000000000000000E+000
  0.598500000000000         0.000000000000000E+000
  0.837900000000000         0.000000000000000E+000
   1.07730000000000         0.000000000000000E+000
   1.31670000000000         0.000000000000000E+000
   1.55610000000000         0.000000000000000E+000
   1.79550000000000         0.000000000000000E+000
   2.03490000000000         0.000000000000000E+000
   2.27430000000000         0.000000000000000E+000
   2.51370000000000         0.000000000000000E+000
   2.75310000000000         0.000000000000000E+000
   2.99250000000000         0.000000000000000E+000
   3.23190000000000         0.000000000000000E+000
   3.47130000000000         0.000000000000000E+000
   3.71070000000000         0.000000000000000E+000
   3.95010000000000         0.000000000000000E+000
   4.18950000000000         0.000000000000000E+000
   4.42890000000000         0.000000000000000E+000
   4.66830000000000         0.000000000000000E+000
   4.90770000000000         0.000000000000000E+000
   5.14710000000000         0.000000000000000E+000
   5.38650000000000         0.000000000000000E+000
   5.62590000000000         0.000000000000000E+000
   5.86530000000000         0.000000000000000E+000
   6.10470000000000         0.000000000000000E+000
   6.34410000000000         0.000000000000000E+000
   6.58350000000000         0.000000000000000E+000
   6.82290000000000         0.000000000000000E+000
   7.06230000000000         0.000000000000000E+000
   7.30170000000000         0.000000000000000E+000
   7.54110000000000         3.172423284447539E-153
   7.78050000000000         1.195692409443580E-148
   8.01990000000000         2.772898596660132E-146
   8.25930000000000         1.055865965348605E-144
   8.49870000000000         1.348735733217770E-143
   8.73810000000000        -1.626429890391476E-142
   8.97750000000000        -9.956918738767604E-141
   9.21690000000000        -2.142750193050392E-139
   9.45630000000000        -2.942300442641154E-138
   9.69570000000000        -2.752235936788952E-137
   9.93510000000000        -1.460318551955029E-136
   10.1745000000000         4.236384116351787E-136
   10.4139000000000         2.112067069519256E-134
   10.6533000000000         2.962662923159939E-133
   10.8927000000000         2.699273846388442E-132
   11.1321000000000         1.432031802423604E-131
   11.3715000000000        -4.219981221108663E-131
   11.6109000000000        -2.288862291519846E-129
   11.8503000000000        -3.648014997144561E-128
   12.0897000000000        -4.221194525958598E-127
   12.3291000000000        -4.035935735284334E-126
   12.5685000000000        -3.341429029240449E-125
   12.8079000000000        -2.451996226582416E-124
   13.0473000000000        -1.616791776845692E-123
   13.2867000000000        -9.662900673082005E-123
   13.5261000000000        -5.262968428859754E-122
   13.7655000000000        -2.619330215895088E-121
   14.0049000000000        -1.190905394671838E-120
   14.2443000000000        -4.925226194179323E-120
   14.4837000000000        -1.832087418539687E-119
   14.7231000000000        -5.971095845050299E-119
   14.9625000000000        -1.591924750930437E-118
   15.2019000000000        -2.641120121312493E-118
   15.4413000000000         4.284740783785163E-118
   15.6807000000000         6.824079053200260E-117
   15.9201000000000         4.217579554358306E-116
   16.1595000000000         2.021933956039247E-115
   16.3989000000000         8.433632713868469E-115
   16.6383000000000         3.191533515821642E-114
   16.8777000000000         1.118268025875166E-113
   17.1171000000000         3.670040561235750E-113
   17.3565000000000         1.136412363585846E-112
   17.5959000000000         3.336481895482988E-112
   17.8353000000000         9.321457172304277E-112
   18.0747000000000         2.484995004116931E-111
   18.3141000000000         6.336295432347453E-111
   18.5535000000000         1.548798004340719E-110
   18.7929000000000         3.638276103821644E-110
   19.0323000000000         8.239935950990538E-110
   19.2717000000000         1.807116035918667E-109
   19.5111000000000         3.861570558619039E-109
   19.7505000000000         8.107931579361559E-109
   19.9899000000000         1.690392185560434E-108
   20.2293000000000         3.538942948731784E-108
   20.4687000000000         7.507593617978921E-108
   20.7081000000000         1.619385341167816E-107
   20.9475000000000         3.536943544877768E-107
   21.1869000000000         7.739666315787678E-107
   21.4263000000000         1.672969615539026E-106
   21.6657000000000         3.518535910879775E-106
   21.9051000000000         7.090013392558253E-106
   22.1445000000000         1.345101161240911E-105
   22.3839000000000         2.343738841597403E-105
   22.6233000000000         3.578186138853858E-105
   22.8627000000000         4.201769192110861E-105
   23.1021000000000         1.466620496987448E-105
   23.3415000000000        -1.171178168367210E-104
   23.5809000000000        -5.127940335733530E-104
   23.8203000000000        -1.495980224819366E-103
   24.0597000000000        -3.665654868867125E-103
   24.2991000000000        -8.033395846595002E-103
   24.5385000000000        -1.614487315761487E-102
   24.7779000000000        -3.009524550552128E-102
   25.0173000000000        -5.230891052684103E-102
   25.2567000000000        -8.500899723511530E-102
   25.4961000000000        -1.296440277124144E-101
   25.7355000000000        -1.875124532080917E-101
   25.9749000000000        -2.648936352805826E-101
   26.2143000000000        -3.894787384199613E-101
   26.4537000000000        -6.492227641901945E-101
   26.6931000000000        -1.266835045907878E-100
   26.9325000000000        -2.714721842469513E-100
   27.1719000000000        -5.839453723887740E-100
   27.4113000000000        -1.187441678247526E-099
   27.6507000000000        -2.204142736006501E-099
   27.8901000000000        -3.616119675551820E-099
   28.1295000000000        -4.936671122463252E-099
   28.3689000000000        -4.588059068128842E-099
   28.6083000000000         1.055166900326192E-099
   28.8477000000000         1.875402453202571E-098
   29.0871000000000         5.884952806842477E-098
   29.3265000000000         1.332678481817078E-097
   29.5659000000000         2.479140999646031E-097
   29.8053000000000         3.852717011278179E-097
   30.0447000000000         4.744030345389666E-097
   30.2841000000000         3.534900671967021E-097
   30.5235000000000        -2.486178417076116E-097
   30.7629000000000        -1.642376339680825E-096
   31.0023000000000        -3.880580399376836E-096
   31.2417000000000        -6.014582173135660E-096
   31.4811000000000        -4.648579981782577E-096
   31.7205000000000         8.305009566796320E-096
   31.9599000000000         4.812536094787232E-095
   32.1993000000000         1.379048788322026E-094
   32.4387000000000         3.020322726231397E-094
   32.6781000000000         5.421839888769493E-094
   32.9175000000000         7.788742138665685E-094
   33.1569000000000         7.363165873916568E-094
   33.3963000000000        -2.481116889123568E-094
   33.6357000000000        -3.480686004492130E-093
   33.8751000000000        -1.114688079209544E-092
   34.1145000000000        -2.627200001898844E-092
   34.3539000000000        -5.186055493098404E-092
   34.5933000000000        -8.823501773221763E-092
   34.8327000000000        -1.270907730141032E-091
   35.0721000000000        -1.404646886061280E-091
   35.3115000000000        -6.327107715312971E-092
   35.5509000000000         2.296057958801526E-091
   35.7903000000000         9.447231388256780E-091
   36.0297000000000         2.371234343487120E-090
   36.2691000000000         4.823224094755376E-090
   36.5085000000000         8.456608307632024E-090
   36.7479000000000         1.286255854542054E-089
   36.9873000000000         1.632003365029573E-089
   37.2267000000000         1.461601792099731E-089
   37.4661000000000        -5.273803463163262E-091
   37.7055000000000        -4.305556767199067E-089
   37.9449000000000        -1.332210911094293E-088
   38.1843000000000        -2.952329271792945E-088
   38.4237000000000        -5.484380695477342E-088
   38.6631000000000        -8.869175743560198E-088
   38.9025000000000        -1.241235965463208E-087
   39.1419000000000        -1.416886980253258E-087
   39.3813000000000        -1.009250772729231E-087
   39.6207000000000         6.916354454238410E-088
   39.8601000000000         4.766821168897878E-087
   40.0995000000000         1.262143751710593E-086
   40.3389000000000         2.567972743633902E-086
   40.5783000000000         4.460384494992045E-086
   40.8177000000000         6.775772490766146E-086
   41.0571000000000         8.864026719498112E-086
   41.2965000000000         9.216730902286235E-086
   41.5359000000000         5.012308186451615E-086
   41.7753000000000        -8.299970890314508E-086
   42.0147000000000        -3.710238464807387E-085
   42.2541000000000        -8.889821184660835E-085
   42.4935000000000        -1.700079122359116E-084
   42.7329000000000        -2.806189186045373E-084
   42.9723000000000        -4.060186061194290E-084
   43.2117000000000        -5.031457141960313E-084
   43.4511000000000        -4.827404693991011E-084
   43.6905000000000        -1.899167740537552E-084
   43.9299000000000         6.094593927960121E-084
   44.1693000000000         2.222159132325441E-083
   44.4087000000000         4.976910953258746E-083
   44.6481000000000         9.095416151737784E-083
   44.8875000000000         1.444305167349198E-082
   45.1269000000000         2.011913563374553E-082
   45.3663000000000         2.386967028338334E-082
   45.6057000000000         2.136600512167577E-082
   45.8451000000000         5.510618709447502E-083
   46.0845000000000        -3.387540048699092E-082
   46.3239000000000        -1.093525758634434E-081
   46.5633000000000        -2.331834218703184E-081
   46.8027000000000        -4.113837343671929E-081
   47.0421000000000        -6.330726289547052E-081
   47.2815000000000        -8.540099444651032E-081
   47.5209000000000        -9.744216656506287E-081
   47.7603000000000        -8.138711436527526E-081
   47.9997000000000        -9.062407257735121E-082
   48.2391000000000         1.579917539925775E-080
   48.4785000000000         4.643750946853394E-080
   48.7179000000000         9.489549325724359E-080
   48.9573000000000         1.621070822296822E-079
   49.1967000000000         2.420732450204124E-079
   49.4361000000000         3.160730792481604E-079
   49.6755000000000         3.453845551202425E-079
   49.9149000000000         2.638429560639787E-079
   50.1543000000000        -2.680678475877640E-080
   50.3937000000000        -6.535323737555259E-079
   50.6331000000000        -1.752668427618015E-078
   50.8725000000000        -3.424149332220497E-078
   51.1119000000000        -5.647833947907824E-078
   51.3513000000000        -8.152987311573064E-078
   51.5907000000000        -1.024111720212466E-077
   51.8301000000000        -1.058171242452160E-077
   52.0695000000000        -7.033484134221763E-078
   52.3089000000000         3.407776225285077E-078
   52.5483000000000         2.437224360789871E-077
   52.7877000000000         5.936397280615695E-077
   53.0271000000000         1.102250348425778E-076
   53.2665000000000         1.745653850794811E-076
   53.5059000000000         2.420452984170646E-076
   53.7453000000000         2.897273410576157E-076
   53.9847000000000         2.773136346514722E-076
   54.2241000000000         1.440021359732056E-076
   54.4635000000000        -1.900882899574765E-076
   54.7029000000000        -8.136191604023367E-076
   54.9423000000000        -1.799439346927785E-075
   55.1817000000000        -3.160077504231374E-075
   55.4211000000000        -4.779438359481258E-075
   55.6605000000000        -6.321825398247214E-075
   55.8999000000000        -7.129119725269040E-075
   56.1393000000000        -6.132470778814292E-075
   56.3787000000000        -1.826251272718457E-075
   56.6181000000000         7.622791625275738E-075
   56.8575000000000         2.403486034374653E-074
   57.0969000000000         4.853736604103684E-074
   57.3363000000000         8.045568767787199E-074
   57.5757000000000         1.157509350549413E-073
   57.8151000000000         1.451222552922609E-073
   58.0545000000000         1.521271968799293E-073
   58.2939000000000         1.120111947509094E-073
   58.5333000000000        -7.647087310606654E-075
   58.7727000000000        -2.429476061308500E-073
   59.0121000000000        -6.245309260125474E-073
   59.2515000000000        -1.161574256080899E-072
   59.4909000000000        -1.817983669933071E-072
   59.7303000000000        -2.481679537470266E-072
   59.9697000000000        -2.931106661153486E-072
   60.2091000000000        -2.807907820520036E-072
   60.4485000000000        -1.610868825861250E-072
   60.6879000000000         1.267094288734820E-072
   60.9273000000000         6.431802567118175E-072
   61.1667000000000         1.428244005104539E-071
   61.4061000000000         2.468742631688078E-071
   61.6455000000000         3.654230440828381E-071
   61.8849000000000         4.725045823432837E-071
   62.1243000000000         5.222956126358835E-071
   62.3637000000000         4.462962871296911E-071
   62.6031000000000         1.554333555398571E-071
   62.8425000000000        -4.492493114176016E-071
   63.0819000000000        -1.453238074779538E-070
   63.3213000000000        -2.889017566052646E-070
   63.5607000000000        -4.679017569775707E-070
   63.8001000000000        -6.564170803142688E-070
   64.0395000000000        -8.028504677079464E-070
   64.2789000000000        -8.240353019918107E-070
   64.5183000000000        -6.042995562363155E-070
   64.7577000000000        -3.967156431536270E-072
   64.9971000000000         1.117392251787858E-069
   65.2365000000000         2.857820813104694E-069
   65.4759000000000         5.206701740187534E-069
   65.7153000000000         7.956613292211063E-069
   65.9547000000000         1.060234812067664E-068
   66.1941000000000         1.224751048873982E-068
   66.4335000000000         1.155347373071893E-068
   66.6729000000000         6.780875773774375E-069
   66.9123000000000        -4.013607065367261E-069
   67.1517000000000        -2.255880362727901E-068
   67.3911000000000        -4.967591396946591E-068
   67.6305000000000        -8.429766580322387E-068
   67.8699000000000        -1.222622056139100E-067
   68.1093000000000        -1.550605255568802E-067
   68.3487000000000        -1.688708666093735E-067
   68.5881000000000        -1.443905418507060E-067
   68.8275000000000        -5.814024216336321E-068
   69.0669000000000         1.139896182152842E-067
   69.3063000000000         3.902378913867196E-067
   69.5457000000000         7.731117737725020E-067
   69.7851000000000         1.236419909222253E-066
   70.0245000000000         1.710540645368917E-066
   70.2639000000000         2.068792144978412E-066
   70.5033000000000         2.119627709736165E-066
   70.7427000000000         1.611286036271808E-066
   70.9821000000000         2.569785224233381E-067
   71.2215000000000        -2.211052227545158E-066
   71.4609000000000        -5.952172828167418E-066
   71.7003000000000        -1.089137857663029E-065
   71.9397000000000        -1.656460471917257E-065
   72.1791000000000        -2.195703121495141E-065
   72.4185000000000        -2.537391071509318E-065
   72.6579000000000        -2.440331180087906E-065
   72.8973000000000        -1.604806669284738E-065
   73.1367000000000         2.886166527158629E-066
   73.3761000000000         3.506700285313864E-065
   73.6155000000000         8.152984509429918E-065
   73.8549000000000         1.402155947253411E-064
   74.0943000000000         2.042901315366906E-064
   74.3337000000000         2.605409612866782E-064
   74.5731000000000         2.883343542667724E-064
   74.8125000000000         2.598067972766067E-064
   75.0519000000000         1.421087581881925E-064
   75.2913000000000        -9.745362105938803E-065
   75.5307000000000        -4.827097683950440E-064
   75.7701000000000        -1.016153814588737E-063
   76.0095000000000        -1.663367209225509E-063
   76.2489000000000        -2.336251522313222E-063
   76.4883000000000        -2.878609500158258E-063
   76.7277000000000        -3.059416528030098E-063
   76.9671000000000        -2.580767739439881E-063
   77.2065000000000        -1.108436643863911E-063
   77.4459000000000         1.667467304096331E-063
   77.6853000000000         5.936918321066023E-063
   77.9247000000000         1.164031457808399E-062
   78.1641000000000         1.831479645251695E-062
   78.4035000000000         2.493935889849493E-062
   78.6429000000000         2.981697953307083E-062
   78.8823000000000         3.054788692640110E-062
   79.1217000000000         2.416082792015256E-062
   79.3611000000000         7.473519715500057E-063
   79.6005000000000        -2.225711855263768E-062
   79.8399000000000        -6.636684225296403E-062
   80.0793000000000        -1.235303273770685E-061
   80.3187000000000        -1.883452436067852E-061
   80.5581000000000        -2.499968276293172E-061
   80.7975000000000        -2.913814207448114E-061
   81.0369000000000        -2.891970965334717E-061
   81.2763000000000        -2.155975877094137E-061
   81.5157000000000        -4.200472515302035E-062
   81.7551000000000         2.544709806572901E-061
   81.9945000000000         6.818971991798349E-061
   82.2339000000000         1.222155544142446E-060
   82.4733000000000         1.818662834493370E-060
   82.7127000000000         2.365533050247875E-060
   82.9521000000000         2.701654959783242E-060
   83.1915000000000         2.614145129679771E-060
   83.4309000000000         1.856170052415263E-060
   83.6703000000000         1.838139871579474E-061
   83.9097000000000        -2.584941002774508E-060
   84.1491000000000        -6.489363528848438E-060
   84.3885000000000        -1.132874411937759E-059
   84.6279000000000        -1.656142739442424E-059
   84.8673000000000        -2.122124858043434E-059
   85.1067000000000        -2.388122535563562E-059
   85.3461000000000        -2.270137433826473E-059
   85.5855000000000        -1.560023274884660E-059
   85.8249000000000        -5.849031833531776E-061
   86.0643000000000         2.374110628365011E-059
   86.3037000000000         5.750208129387497E-059
   86.5431000000000         9.876014784335801E-059
   86.7825000000000         1.427225008380373E-058
   87.0219000000000         1.811230853505469E-058
   87.2613000000000         2.020203418768353E-058
   87.5007000000000         1.902999773706226E-058
   87.7401000000000         1.291816897523197E-058
   87.9795000000000         2.977688946200590E-060
   88.2189000000000        -1.987847808408768E-058
   88.4583000000000        -4.760029183522969E-058
   88.6977000000000        -8.118720505602244E-058
   88.9371000000000        -1.166904545695015E-057
   89.1765000000000        -1.474491912313898E-057
   89.4159000000000        -1.639863151238556E-057
   89.6553000000000        -1.544598120913100E-057
   89.8947000000000        -1.058860661739527E-057
   90.1341000000000        -6.305426507566901E-059
   90.3735000000000         1.520486251226420E-057
   90.6129000000000         3.686981445506788E-057
   90.8523000000000         6.303665550063094E-057
   91.0917000000000         9.066196714362277E-057
   91.3311000000000         1.146744362655468E-056
   91.5705000000000         1.279217644735132E-056
   91.8099000000000         1.215310430953218E-056
   92.0493000000000         8.583373249173225E-057
   92.2887000000000         1.196923337500516E-057
   92.5281000000000        -1.058003796231068E-056
   92.7675000000000        -2.671641781934972E-056
   93.0069000000000        -4.625070205619974E-056
   93.2463000000000        -6.698285914207080E-056
   93.4857000000000        -8.525747688886945E-056
   93.7251000000000        -9.593245727012627E-056
   93.9645000000000        -9.263940981736074E-056
   94.2039000000000        -6.843792552885931E-056
   94.4433000000000        -1.693870447857735E-056
   94.6827000000000         6.608651563931258E-056
   94.9221000000000         1.806809553374367E-055
   95.1615000000000         3.204606476911066E-055
   95.4009000000000         4.704974672609127E-055
   95.6403000000000         6.058245824549951E-055
   95.8797000000000         6.911940515804908E-055
   96.1191000000000         6.827893053406803E-055
   96.3585000000000         5.325635257775444E-055
   96.5979000000000         1.956912990572525E-055
   96.8373000000000        -3.587549887984081E-055
   97.0767000000000        -1.134382784311459E-054
   97.3161000000000        -2.092584478592093E-054
   97.5555000000000        -3.138386738803486E-054
   97.7949000000000        -4.110239191142993E-054
   98.0343000000000        -4.777773901584711E-054
   98.2737000000000        -4.852024199364255E-054
   98.5131000000000        -4.012389651486268E-054
   98.7525000000000        -1.953485777186463E-054
   98.9919000000000         1.547320414666541E-054
   99.2313000000000         6.544542970403026E-054
   99.4707000000000         1.282913650522236E-053
   99.7101000000000         1.983655146999610E-053
   99.9495000000000         2.657787902642403E-053
   100.188900000000         3.161885317116054E-053
   100.428300000000         3.313438300477848E-053
   100.667700000000         2.906526316419626E-053
   100.907100000000         1.739705389743838E-053
   101.146500000000        -3.432598220800225E-054
   101.385900000000        -3.401347178056949E-053
   101.625300000000        -7.337337619082099E-053
   101.864700000000        -1.183985670442196E-052
   102.104100000000        -1.633786445765715E-052
   102.343500000000        -1.998219555619994E-052
   102.582900000000        -2.167061377311556E-052
   102.822300000000        -2.013248201210427E-052
   103.061700000000        -1.408558547654973E-052
   103.301100000000        -2.470050918546281E-053
   103.540500000000         1.524777884378667E-052
   103.779900000000         3.872505907988730E-052
   104.019300000000         6.638895767041587E-052
   104.258700000000         9.514396590937475E-052
   104.498100000000         1.202225610080996E-051
   104.737500000000         1.352736535142306E-051
   104.976900000000         1.327831946380612E-051
   105.216300000000         1.049038820391600E-051
   105.455700000000         4.473137506442092E-052
   105.695100000000        -5.199997868507848E-052
   105.934500000000        -1.849176898911075E-051
   106.173900000000        -3.469317167102443E-051
   106.413300000000        -5.224150604371973E-051
   106.652700000000        -6.860913522263931E-051
   106.892100000000        -8.031508098798981E-051
   107.131500000000        -8.311297521828032E-051
   107.370900000000        -7.240126756796805E-051
   107.610300000000        -4.388235309611559E-051
   107.849700000000         5.535259710127144E-052
   108.089100000000         7.664351837205923E-051
   108.328500000000         1.667588529272391E-050
   108.567900000000         2.686350822983696E-050
   108.807300000000         3.696964913361135E-050
   109.046700000000         4.518675877289528E-050
   109.286100000000         4.922922916098842E-050
   109.525500000000         4.652071952540824E-050
   109.764900000000         3.451468657521500E-050
   110.004300000000         1.115039511742692E-050
   110.243700000000        -2.457591907357900E-050
   110.483100000000        -7.197383964000319E-050
   110.722500000000        -1.280372009233048E-049
   110.961900000000        -1.869522055931029E-049
   111.201300000000        -2.398757202724235E-049
   111.440700000000        -2.751377201415535E-049
   111.680100000000        -2.790145891605754E-049
   111.919500000000        -2.371845138785754E-049
   112.158900000000        -1.369068019778714E-049
   112.398300000000         3.013870117011067E-050
   112.637700000000         2.645549225594869E-049
   112.877100000000         5.558389773347481E-049
   113.116500000000         8.794353739705057E-049
   113.355900000000         1.194912660825043E-048
   113.595300000000         1.446039473002361E-048
   113.834700000000         1.563538703288215E-048
   114.074100000000         1.471171837667105E-048
   114.313500000000         1.095517786275179E-048
   114.552900000000         3.793443884462957E-049
   114.792300000000        -7.021684857096532E-049
   115.031700000000        -2.123871366416539E-048
   115.271100000000        -3.794109525406627E-048
   115.510500000000        -5.542354531436627E-048
   115.749900000000        -7.114736442334074E-048
   115.989300000000        -8.181420128754506E-048
   116.228700000000        -8.359415915691089E-048
   116.468100000000        -7.253331879226352E-048
   116.707500000000        -4.514650555571832E-048
   116.946900000000         8.267223014873031E-050
   117.186300000000         6.556019956800429E-048
   117.425700000000         1.462706995541072E-047
   117.665100000000         2.364761758805375E-047
   117.904500000000         3.255534810448345E-047
   118.143900000000         3.987854423768452E-047
   118.383300000000         4.380831866329972E-047
   118.622700000000         4.235342012821130E-047
   118.862100000000         3.358533181830871E-047
   119.101500000000         1.596997015184289E-047
   119.340900000000        -1.123294715265888E-047
   119.580300000000        -4.753990473912517E-047
   119.819700000000        -9.083920520798551E-047
   120.059100000000        -1.370860935635337E-046
   120.298500000000        -1.801840161014688E-046
   120.537900000000        -2.121425533585384E-046
   120.777300000000        -2.235937051713456E-046
   121.016700000000        -2.047231306944794E-046
   121.256100000000        -1.466294794022086E-046
   121.495500000000        -4.306298474019188E-047
   121.734900000000         1.075832165304593E-046
   121.974300000000         3.002427874366265E-046
   122.213700000000         5.214073330107540E-046
   122.453100000000         7.479918387231377E-046
   122.692500000000         9.472489394846549E-046
   122.931900000000         1.078139605815024E-045
   123.171300000000         1.094495356567710E-045
   123.410700000000         9.501561204176317E-046
   123.650100000000         6.060327501325250E-046
   123.889500000000         3.872922546677132E-047
   124.128900000000        -7.500139136446185E-046
   124.368300000000        -1.724190903443166E-045
   124.607700000000        -2.806222428524091E-045
   124.847100000000        -3.873248228316068E-045
   125.086500000000        -4.758905587744097E-045
   125.325900000000        -5.262334776723194E-045
   125.565300000000        -5.165692718639999E-045
   125.804700000000        -4.260636522208575E-045
   126.044100000000        -2.383053836962183E-045
   126.283500000000         5.461845409153727E-046
   126.522900000000         4.478379684962513E-045
   126.762300000000         9.197722246210388E-045
   127.001700000000         1.429272114896277E-044
   127.241100000000         1.914644695063516E-044
   127.480500000000         2.295377816534018E-044
   127.719900000000         2.477273320774533E-044
   127.959300000000         2.361442103690137E-044
   128.198700000000         1.857202300175161E-044
   128.438100000000         8.983589176238776E-045
   128.677500000000        -5.383397336108586E-045
   128.916900000000        -2.414517231699650E-044
   129.156300000000        -4.613920075674229E-044
   129.395700000000        -6.931841393273164E-044
   129.635100000000        -9.073749868584517E-044
   129.874500000000        -1.066653641268807E-043
   130.113900000000        -1.128513012171839E-043
   130.353300000000        -1.049594452659536E-043
   130.592700000000        -7.916668469401185E-044
   130.832100000000        -3.289373474231219E-044
   131.071500000000         3.439061075539761E-044
   131.310900000000         1.203831556780775E-043
   131.550300000000         2.192975064481641E-043
   131.789700000000         3.214932606500920E-043
   132.029100000000         4.135312622575947E-043
   132.268500000000         4.787918649852188E-043
   132.507900000000         4.987585571497162E-043
   132.747300000000         4.550084141636506E-043
   132.986700000000         3.318636462093683E-043
   133.226100000000         1.195487640819256E-043
   133.465500000000        -1.824261617519594E-043
   133.704900000000        -5.620610211985885E-043
   133.944300000000        -9.923540247445250E-043
   134.183700000000        -1.430069128476640E-042
   134.423100000000        -1.816381484107500E-042
   134.662500000000        -2.079931938641607E-042
   134.901900000000        -2.142656317674951E-042
   135.141300000000        -1.928484297518693E-042
   135.380700000000        -1.374630100421492E-042
   135.620100000000        -4.447426835953134E-043
   135.859500000000         8.573159294464356E-043
   136.098900000000         2.474783179276164E-042
   136.338300000000         4.288522571927940E-042
   136.577700000000         6.113124974585068E-042
   136.817100000000         7.700929382878069E-042
   137.056500000000         8.755960377949879E-042
   137.295900000000         8.959043292722629E-042
   137.535300000000         8.004212589769596E-042
   137.774700000000         5.645003930435837E-042
   138.014100000000         1.747407814208966E-042
   138.253500000000        -3.655676897995096E-042
   138.492900000000        -1.031548945292469E-041
   138.732300000000        -1.773240495819747E-041