  -1.79550000000000         0.000000000000000E+000
  -1.55610000000000         0.000000000000000E+000
  -1.31670000000000         0.000000000000000E+000
  -1.07730000000000         0.000000000000000E+000
 -0.837900000000000         0.000000000000000E+000
 -0.598500000000000         0.000000000000000E+000
 -0.359100000000000         0.000000000000000E+000
 -0.119700000000000         0.000000000000000E+000
  0.119700000000000         0.000000000000000E+000
  0.359100000000000         0.000000000000000E+000
  0.598500000000000         0.000000000000000E+000
  0.837900000000000         0.000000000000000E+000
   1.07730000000000         0.000000000000000E+000
   1.31670000000000         0.000000000000000E+000
   1.55610000000000         0.000000000000000E+000
   1.79550000000000         0.000000000000000E+000
   2.03490000000000         0.000000000000000E+000
   2.27430000000000         0.000000000000000E+000
   2.51370000000000         0.000000000000000E+000
   2.75310000000000         0.000000000000000E+000
   2.99250000000000         0.000000000000000E+000
   3.23190000000000         0.000000000000000E+000
   3.47130000000000         0.000000000000000E+000
   3.71070000000000         0.000000000000000E+000
   3.95010000000000         0.000000000000000E+000
   4.18950000000000         0.000000000000000E+000
   4.42890000000000         0.000000000000000E+000
   4.66830000000000         0.000000000000000E+000
   4.90770000000000         0.000000000000000E+000
   5.14710000000000         0.000000000000000E+000
   5.38650000000000         0.000000000000000E+000
   5.62590000000000         0.000000000000000E+000
   5.86530000000000         0.000000000000000E+000
   6.10470000000000         0.000000000000000E+000
   6.34410000000000         0.000000000000000E+000
   6.58350000000000         0.000000000000000E+000
   6.82290000000000         0.000000000000000E+000
   7.06230000000000         0.000000000000000E+000
   7.30170000000000         0.000000000000000E+000
   7.54110000000000         0.000000000000000E+000
   7.78050000000000         0.000000000000000E+000
   8.01990000000000         0.000000000000000E+000
   8.25930000000000         0.000000000000000E+000
   8.49870000000000         0.000000000000000E+000
   8.73810000000000         0.000000000000000E+000
   8.97750000000000         0.000000000000000E+000
   9.21690000000000         0.000000000000000E+000
   9.45630000000000         0.000000000000000E+000
   9.69570000000000        -3.043470181692030E-203
   9.93510000000000        -1.218992256003187E-191
   10.1745000000000         7.196769344680627E-182
   10.4139000000000        -7.514194169703036E-177
   10.6533000000000         1.784912724090541E-174
   10.8927000000000         1.976781785127261E-172
   11.1321000000000         9.724396473687407E-171
   11.3715000000000         3.121515710533041E-169
   11.6109000000000         7.479078585745528E-168
   11.8503000000000         1.433901613107467E-166
   12.0897000000000         2.295630025501196E-165
   12.3291000000000         3.158567284597019E-164
   12.5685000000000         3.812652214801174E-163
   12.8079000000000         4.099733343374935E-162
   13.0473000000000         3.972880650064182E-161
   13.2867000000000         3.500153331199772E-160
   13.5261000000000         2.821653321061328E-159
   13.7655000000000         2.090414580369041E-158
   14.0049000000000         1.426173445619855E-157
   14.2443000000000         8.953744442131114E-157
   14.4837000000000         5.147515868386524E-156
   14.7231000000000         2.676487599796485E-155
   14.9625000000000         1.222684673014807E-154
   15.2019000000000         4.538324138886398E-154
   15.4413000000000         9.722578151736346E-154
   15.6807000000000        -3.812044074169858E-153
   15.9201000000000        -6.967690274843429E-152
   16.1595000000000        -6.126038489860321E-151
   16.3989000000000        -4.302516178655936E-150
   16.6383000000000        -2.667429401635553E-149
   16.8777000000000        -1.516545769385092E-148
   17.1171000000000        -8.058420339880621E-148
   17.3565000000000        -4.046209199394291E-147
   17.5959000000000        -1.933334938975903E-146
   17.8353000000000        -8.833413882106851E-146
   18.0747000000000        -3.872910062073481E-145
   18.3141000000000        -1.633744678083489E-144
   18.5535000000000        -6.644519694448089E-144
   18.7929000000000        -2.609676496448611E-143
   19.0323000000000        -9.911212016990192E-143
   19.2717000000000        -3.643757834901783E-142
   19.5111000000000        -1.297874333660908E-141
   19.7505000000000        -4.482073700200903E-141
   19.9899000000000        -1.501496883288512E-140
   20.2293000000000        -4.881373926306903E-140
   20.4687000000000        -1.540433978502570E-139
   20.7081000000000        -4.719264152134691E-139
   20.9475000000000        -1.403498952269327E-138
   21.1869000000000        -4.050904413820128E-138
   21.4263000000000        -1.134205713507578E-137
   21.6657000000000        -3.078264934430130E-137
   21.9051000000000        -8.089199260838253E-137
   22.1445000000000        -2.054825742264259E-136
   22.3839000000000        -5.033487105089300E-136
   22.6233000000000        -1.184769656462205E-135
   22.8627000000000        -2.664903525544707E-135
   23.1021000000000        -5.677213338917634E-135
   23.3415000000000        -1.127621026029303E-134
   23.5809000000000        -2.023326400682571E-134
   23.8203000000000        -3.030190463460625E-134
   24.0597000000000        -2.717770341049300E-134
   24.2991000000000         4.144845740963970E-134
   24.5385000000000         3.341630999259047E-133
   24.7779000000000         1.284636520295802E-132
   25.0173000000000         3.999242971362154E-132
   25.2567000000000         1.115715725600848E-131
   25.4961000000000         2.898052308130831E-131
   25.7355000000000         7.142235565650454E-131
   25.9749000000000         1.688350658576885E-130
   26.2143000000000         3.854545165771884E-130
   26.4537000000000         8.536846604536265E-130
   26.6931000000000         1.839010825056405E-129
   26.9325000000000         3.856938383185694E-129
   27.1719000000000         7.867388072791580E-129
   27.4113000000000         1.555164895342577E-128
   27.6507000000000         2.956784237481363E-128
   27.8901000000000         5.330786101900995E-128
   28.1295000000000         8.860851027863470E-128
   28.3689000000000         1.271083773952228E-127
   28.6083000000000         1.243694878297825E-127
   28.8477000000000        -6.870358354476775E-128
   29.0871000000000        -8.728824573759063E-127
   29.3265000000000        -3.360357533190345E-126
   29.5659000000000        -1.006603060985556E-125
   29.8053000000000        -2.661768641534121E-125
   30.0447000000000        -6.480501296874841E-125
   30.2841000000000        -1.479396740904082E-124
   30.5235000000000        -3.193598284037095E-124
   30.7629000000000        -6.541162140048691E-124
   31.0023000000000        -1.270995047189579E-123
   31.2417000000000        -2.334774725168897E-123
   31.4811000000000        -4.023275737035008E-123
   31.7205000000000        -6.405481514377995E-123
   31.9599000000000        -9.131618312711058E-123
   32.1993000000000        -1.077554684989527E-122
   32.4387000000000        -7.614012717196726E-123
   32.6781000000000         8.365079060167106E-123
   32.9175000000000         5.223501896704171E-122
   33.1569000000000         1.490811649304628E-121
   33.3963000000000         3.351941090007029E-121
   33.6357000000000         6.532473904308126E-121
   33.8751000000000         1.134073496504809E-120
   34.1145000000000         1.755250994114057E-120
   34.3539000000000         2.369609497694263E-120
   34.5933000000000         2.615075725167315E-120
   34.8327000000000         1.869457628480648E-120
   35.0721000000000        -5.729077828491067E-121
   35.3115000000000        -4.722665925021652E-120
   35.5509000000000        -7.840191027611314E-120
   35.7903000000000        -1.337964777738255E-121
   36.0297000000000         4.273158400160442E-119
   36.2691000000000         1.701301052709047E-118
   36.5085000000000         4.660042711652437E-118
   36.7479000000000         1.044367706946953E-117
   36.9873000000000         1.999582957933540E-117
   37.2267000000000         3.249150573294034E-117
   37.4661000000000         4.161954411571510E-117
   37.7055000000000         2.816128400687087E-117
   37.9449000000000        -5.287477637422350E-117
   38.1843000000000        -2.913501569963618E-116
   38.4237000000000        -8.443962645035352E-116
   38.6631000000000        -1.949954753933179E-115
   38.9025000000000        -3.900608042989506E-115
   39.1419000000000        -6.914313262268495E-115
   39.3813000000000        -1.078993571774100E-114
   39.6207000000000        -1.417609972375352E-114
   39.8601000000000        -1.323613328516253E-114
   40.0995000000000         4.795597934067010E-116
   40.3389000000000         4.291872932755942E-114
   40.5783000000000         1.405113293231012E-113
   40.8177000000000         3.312717951841546E-113
   41.0571000000000         6.596695006179151E-113
   41.2965000000000         1.157247174510934E-112
   41.5359000000000         1.796180248895153E-112
   41.7753000000000         2.398321063295165E-112
   42.0147000000000         2.481086485262309E-112
   42.2541000000000         1.030553896620594E-112
   42.4935000000000        -3.777193645865672E-112
   42.7329000000000        -1.481632224601285E-111
   42.9723000000000        -3.599526574117328E-111
   43.2117000000000        -7.156395455833774E-111
   43.4511000000000        -1.240491570969118E-110
   43.6905000000000        -1.898283896211975E-110
   43.9299000000000        -2.511839801547418E-110
   44.1693000000000        -2.639326089350771E-110
   44.4087000000000        -1.409075278842952E-110
   44.6481000000000         2.655840203617621E-110
   44.8875000000000         1.173811110062196E-109
   45.1269000000000         2.857961313164191E-109
   45.3663000000000         5.579548399479306E-109
   45.6057000000000         9.422164712901983E-109
   45.8451000000000         1.397716709979177E-108
   46.0845000000000         1.783277640605888E-108
   46.3239000000000         1.785670532087890E-108
   46.5633000000000         8.358925452928213E-109
   46.8027000000000        -1.959223554087541E-108
   47.0421000000000        -7.812385230927492E-108
   47.2815000000000        -1.807815211620208E-107
   47.5209000000000        -3.375320258967158E-107
   47.7603000000000        -5.446609067960436E-107
   47.9997000000000        -7.677038356895610E-107
   48.2391000000000        -9.165319395920371E-107
   48.4785000000000        -8.144174135082426E-107
   48.7179000000000        -1.682515542290543E-107
   48.9573000000000         1.444113578284264E-106
   49.1967000000000         4.540964687300149E-106
   49.4361000000000         9.614917355439099E-106
   49.6755000000000         1.686526789177732E-105
   49.9149000000000         2.572304806893859E-105
   50.1543000000000         3.412467014910594E-105
   50.3937000000000         3.754760665776717E-105
   50.6331000000000         2.794175718087124E-105
   50.8725000000000        -7.104891131575094E-106
   51.1119000000000        -8.432505236858932E-105
   51.3513000000000        -2.228240684024545E-104
   51.5907000000000        -4.387691195774206E-104
   51.8301000000000        -7.349195108898482E-104
   52.0695000000000        -1.083153535748997E-103
   52.3089000000000        -1.398706965004209E-103
   52.5483000000000        -1.506437580535070E-103
   52.7877000000000        -1.102611271963498E-103
   53.0271000000000         2.789027544168468E-104
   53.2665000000000         3.278860565546763E-103
   53.5059000000000         8.674305704622076E-103
   53.7453000000000         1.724481385843372E-102
   53.9847000000000         2.947857736766980E-102
   54.2241000000000         4.503098301994564E-102
   54.4635000000000         6.182740901700009E-102
   54.7029000000000         7.469360022116509E-102
   54.9423000000000         7.342446592794253E-102
   55.1817000000000         4.031008913797624E-102
   55.4211000000000        -5.259673977077381E-102
   55.6605000000000        -2.456444756904322E-101
   55.8999000000000        -5.913694402929232E-101
   56.1393000000000        -1.148497569234997E-100
   56.3787000000000        -1.964424838865085E-100
   56.6181000000000        -3.037502406783848E-100
   56.8575000000000        -4.247562970346758E-100
   57.0969000000000        -5.241929624691043E-100
   57.3363000000000        -5.267867041973237E-100
   57.5757000000000        -2.956438656166165E-100
   57.8151000000000         3.905198028212505E-100
   58.0545000000000         1.851636490149688E-099
   58.2939000000000         4.492758011186378E-099
   58.5333000000000         8.729982589309194E-099
   58.7727000000000         1.480708722975942E-098
   59.0121000000000         2.244014647694099E-098
   59.2515000000000         3.022511538412095E-098
   59.4909000000000         3.476955378938753E-098
   59.7303000000000         2.958966389838835E-098
   59.9697000000000         3.980194607070742E-099
   60.2091000000000        -5.764869050753364E-098
   60.4485000000000        -1.750462169704517E-097
   60.6879000000000        -3.685370356368966E-097
   60.9273000000000        -6.505361823041774E-097
   61.1667000000000        -1.009758989455521E-096
   61.4061000000000        -1.385996311649125E-096
   61.6455000000000        -1.634897448192726E-096
   61.8849000000000        -1.485959990777123E-096
   62.1243000000000        -5.038572730685382E-097
   62.3637000000000         1.925880381968557E-096
   62.6031000000000         6.550993944479607E-096
   62.8425000000000         1.409358645398732E-095
   63.0819000000000         2.491085766045781E-095
   63.3213000000000         3.840537150281653E-095
   63.5607000000000         5.213837157395608E-095
   63.8001000000000         6.067021864067073E-095
   64.0395000000000         5.429376557491393E-095
   64.2789000000000         1.806152552603511E-095
   64.5183000000000        -6.815569044980043E-095
   64.7577000000000        -2.274261511447436E-094
   64.9971000000000        -4.797671058501715E-094
   65.2365000000000        -8.306071548986635E-094
   65.4759000000000        -1.252126112640027E-093
   65.7153000000000        -1.656999466433236E-093
   65.9547000000000        -1.866569993159883E-093
   66.1941000000000        -1.579879351947515E-093
   66.4335000000000        -3.566445190474228E-094
   66.6729000000000         2.364043140755541E-093
   66.9123000000000         7.177990780228983E-093
   67.1517000000000         1.452427880850806E-092
   67.3911000000000         2.434823536793882E-092
   67.6305000000000         3.559330121627211E-092
   67.8699000000000         4.553405565424899E-092
   68.1093000000000         4.903550823213596E-092
   68.3487000000000         3.793992885862217E-092
   68.5881000000000         9.428913772409473E-094
   68.8275000000000        -7.548981626123021E-092
   69.0669000000000        -2.044336124672093E-091
   69.3063000000000        -3.932227130393299E-091
   69.5457000000000        -6.348697866682006E-091
   69.7851000000000        -8.959770650846694E-091
   70.0245000000000        -1.101991058794439E-090
   70.2639000000000        -1.122463793685478E-090
   70.5033000000000        -7.616268618142458E-091
   70.7427000000000         2.370706086456673E-091
   70.9821000000000         2.160271345152814E-090
   71.2215000000000         5.253016000985704E-090
   71.4609000000000         9.591195454523720E-090
   71.7003000000000         1.488852173326873E-089
   71.9397000000000         2.024200712873234E-089
   72.1791000000000         2.384520713826073E-089
   72.4185000000000         2.273768363294130E-089
   72.6579000000000         1.271190055249798E-089
   72.8973000000000        -1.144032266799091E-089
   73.1367000000000        -5.510382905143436E-089
   73.3761000000000        -1.221736345267315E-088
   73.6155000000000        -2.123187280486450E-088
   73.8549000000000        -3.170986397706542E-088
   74.0943000000000        -4.151694657580150E-088
   74.3337000000000        -4.673402592258702E-088
   74.5731000000000        -4.129916304527014E-088
   74.8125000000000        -1.703024817699571E-088
   75.0519000000000         3.562954021310349E-088
   75.2913000000000         1.257286940470123E-087
   75.5307000000000         2.583696417125106E-087
   75.7701000000000         4.294312144900050E-087
   76.0095000000000         6.185091520780151E-087
   76.2489000000000         7.807622412370328E-087
   76.4883000000000         8.393181896336237E-087
   76.7277000000000         6.811819616507970E-087
   76.9671000000000         1.610694576614316E-087
   77.2065000000000        -8.810440240140891E-087
   77.4459000000000        -2.582151165262627E-086
   77.6853000000000        -4.992420861260041E-086
   77.9247000000000        -7.982752750623311E-086
   78.1641000000000        -1.112775865342155E-085
   78.4035000000000        -1.357946270155713E-085
   78.6429000000000        -1.396305846086068E-085
   78.8823000000000        -1.034606920300952E-085
   79.1217000000000        -3.533931276014155E-087
   79.3611000000000         1.848257721795142E-085
   79.6005000000000         4.804413056999482E-085
   79.8399000000000         8.855203907075263E-085
   80.0793000000000         1.370821515560717E-084
   80.3187000000000         1.857819745588733E-084
   80.5581000000000         2.200744179390917E-084
   80.7975000000000         2.173783211525137E-084
   81.0369000000000         1.471588653316442E-084
   81.2763000000000        -2.660553627679474E-085
   81.5157000000000        -3.392792000830596E-084
   81.7551000000000        -8.145447366756657E-084
   81.9945000000000        -1.447753825293819E-083
   82.2339000000000        -2.183957126178120E-083
   82.4733000000000        -2.892720493997513E-083
   82.7127000000000        -3.344469610686730E-083
   82.9521000000000        -3.196467895482988E-083
   83.1915000000000        -2.000226698535362E-083
   83.4309000000000         7.546307525153324E-084
   83.6703000000000         5.543575259507519E-083
   83.9097000000000         1.264308374808957E-082
   84.1491000000000         2.189275529213399E-082
   84.3885000000000         3.239297491537900E-082
   84.6279000000000         4.217300065721723E-082
   84.8673000000000         4.789984429981088E-082
   85.1067000000000         4.474146817144991E-082
   85.3461000000000         2.654242571035575E-082
   85.5855000000000        -1.349518463356706E-082
   85.8249000000000        -8.142483888986722E-082
   86.0643000000000        -1.803039970425026E-081
   86.3037000000000        -3.070362807744619E-081
   86.5431000000000        -4.484830762928045E-081
   86.7825000000000        -5.773527115284428E-081
   87.0219000000000        -6.488185668614995E-081
   87.2613000000000        -5.993333562940857E-081
   87.5007000000000        -3.496096369599338E-081
   87.7401000000000         1.859187325271827E-081
   87.9795000000000         1.080861658725468E-080
   88.2189000000000         2.368223465435043E-080
   88.4583000000000         4.001264409652097E-080
   88.6977000000000         5.806527680430510E-080
   88.9371000000000         7.435698586565310E-080
   89.1765000000000         8.328124664336165E-080
   89.4159000000000         7.701607504565156E-080
   89.6553000000000         4.594409595296456E-080
   89.8947000000000        -2.015408857482414E-080
   90.1341000000000        -1.298855657660399E-079
   90.3735000000000        -2.868493323086545E-079
   90.6129000000000        -4.850889461995510E-079
   90.8523000000000        -7.037405623451633E-079
   91.0917000000000        -9.016745513050618E-079
   91.3311000000000        -1.013492683395992E-078
   91.5705000000000        -9.488539352825652E-079
   91.8099000000000        -5.976381577631702E-079
   92.0493000000000         1.562689871508954E-079
   92.2887000000000         1.410023334240096E-078
   92.5281000000000         3.204193785122905E-078
   92.7675000000000         5.473077393954683E-078
   93.0069000000000         7.987003129793272E-078
   93.2463000000000         1.029542279038525E-077
   93.4857000000000         1.168538759426696E-077
   93.7251000000000         1.117612901352667E-077
   93.9645000000000         7.575612542338302E-078
   94.2039000000000        -3.727954799307261E-079
   94.4433000000000        -1.372848380148829E-077
   94.6827000000000        -3.296272832585043E-077
   94.9221000000000        -5.744696709644014E-077
   95.1615000000000        -8.486297457674642E-077
   95.4009000000000        -1.106247671977749E-076
   95.6403000000000        -1.274584849289742E-076
   95.8797000000000        -1.253448199788226E-076
   96.1191000000000        -9.207613402080972E-077
   96.3585000000000        -1.469896480242267E-077
   96.5979000000000         1.179208956131324E-076
   96.8373000000000         3.112846442622302E-076
   97.0767000000000         5.602839661102476E-076
   97.3161000000000         8.434752559657080E-076
   97.5555000000000         1.117457723659517E-075
   97.7949000000000         1.312728790140643E-075
   98.0343000000000         1.332920834747158E-075
   98.2737000000000         1.059748035839159E-075
   98.5131000000000         3.661464491996538E-076
   98.7525000000000        -8.602293389534276E-076
   98.9919000000000        -2.682004695128265E-075
   99.2313000000000        -5.066338504736408E-075
   99.4707000000000        -7.832108734135307E-075
   99.7101000000000        -1.059758927034228E-074
   99.9495000000000        -1.274073641005291E-074
   100.188900000000        -1.338882225922819E-074
   100.428300000000        -1.145782745559986E-074
   100.667700000000        -5.763340745842203E-075
   100.907100000000         4.778002584986421E-075
   101.146500000000         2.084610725694907E-074
   101.385900000000         4.231968080804711E-074
   101.625300000000         6.781330888467367E-074
   101.864700000000         9.421194518539785E-074
   102.104100000000         1.163034421242552E-073
   102.343500000000         1.266482595066170E-073
   102.582900000000         1.158563386615722E-073
   102.822300000000         7.345308792885111E-074
   103.061700000000        -1.050415363075647E-074
   103.301100000000        -1.429654080779395E-073
   103.540500000000        -3.246166226948329E-073
   103.779900000000        -5.460250402458381E-073
   104.019300000000        -7.836863789609741E-073
   104.258700000000        -9.967609569502761E-073
   104.498100000000        -1.125593623369291E-072
   104.737500000000        -1.093363241633346E-072
   104.976900000000        -8.123158439659514E-073
   105.216300000000        -1.958977395708452E-073
   105.455700000000         8.223890238158867E-073
   105.695100000000         2.263532529519306E-072
   105.934500000000         4.072534763055426E-072
   106.173900000000         6.086428096189906E-072
   106.413300000000         8.006587937680576E-072
   106.652700000000         9.383501395011782E-072
   106.892100000000         9.624123583372695E-072
   107.131500000000         8.032919765414636E-072
   107.370900000000         3.896900971594368E-072
   107.610300000000        -3.378385566883384E-072
   107.849700000000        -1.408155812563124E-071
   108.089100000000        -2.796673011560606E-071
   108.328500000000        -4.400726346249521E-071
   108.567900000000        -6.017227548001393E-071
   108.807300000000        -7.328351410883551E-071
   109.046700000000        -7.902515092810387E-071
   109.286100000000        -7.218734893531802E-071
   109.525500000000        -4.722093694869280E-071
   109.764900000000         8.404091757161566E-073
   110.004300000000         7.507742948402535E-071
   110.243700000000         1.750578613306945E-070
   110.483100000000         2.950344008159256E-070
   110.722500000000         4.222320517645529E-070
   110.961900000000         5.356102781036582E-070
   111.201300000000         6.055940971032443E-070
   111.440700000000         5.953362367344084E-070
   111.680100000000         4.640652739720981E-070
   111.919500000000         1.729549255415646E-070
   112.158900000000        -3.063169886773086E-070
   112.398300000000        -9.805880819017152E-070
   112.637700000000        -1.822686035773143E-069
   112.877100000000        -2.758984198293841E-069
   113.116500000000        -3.659480241579979E-069
   113.355900000000        -4.333599137547180E-069
   113.595300000000        -4.535448521805821E-069
   113.834700000000        -3.982330798157808E-069
   114.074100000000        -2.389701729340182E-069
   114.313500000000         4.757675549430091E-070
   114.552900000000         4.725983479238261E-069
   114.792300000000         1.026877269429851E-068
   115.031700000000         1.672217122453185E-068
   115.271100000000         2.334030837309067E-068
   115.510500000000         2.897061123884168E-068
   115.749900000000         3.206591516353723E-068
   115.989300000000         3.077638413532289E-068
   116.228700000000         2.314343670999678E-068
   116.468100000000         7.409687887841624E-069
   116.707500000000        -1.755586714072111E-068
   116.946900000000        -5.174001454097154E-068
   117.186300000000        -9.342558135752793E-068
   117.425700000000        -1.386728816766176E-067
   117.665100000000        -1.809579468385448E-067
   117.904500000000        -2.111098868080635E-067
   118.143900000000        -2.177030388923017E-067
   118.383300000000        -1.880505919417415E-067
   118.622700000000        -1.099062239255159E-067
   118.862100000000         2.609840898428035E-068
   119.101500000000         2.233735010714494E-067
   119.340900000000         4.759025053186237E-067
   119.580300000000         7.648299830100281E-067
   119.819700000000         1.055749984832738E-066
   120.059100000000         1.297514766227575E-066
   120.298500000000         1.423493069430541E-066
   120.537900000000         1.356199826981631E-066
   120.777300000000         1.016042257152950E-066
   121.016700000000         3.345345796450063E-067
   121.256100000000        -7.283037659349613E-067
   121.495500000000        -2.163531409387101E-066
   121.734900000000        -3.892090801625318E-066
   121.974300000000        -5.746246617041248E-066
   122.213700000000        -7.458163414305585E-066
   122.453100000000        -8.660924388322372E-066
   122.692500000000        -8.907509081149611E-066
   122.931900000000        -7.712584330130577E-066
   123.171300000000        -4.620139956825367E-066
   123.410700000000         7.031810195800289E-067
   123.650100000000         8.353797481476378E-066
   123.889500000000         1.806651028606444E-065
   124.128900000000         2.909656323710326E-065
   124.368300000000         4.013209586425576E-065
   124.607700000000         4.926592251762753E-065
   124.847100000000         5.405815181652934E-065
   125.086500000000         5.171938554857329E-065
   125.325900000000         3.943648934883989E-065
   125.565300000000         1.484792190715125E-065
   125.804700000000        -2.334724209658617E-065
   126.044100000000        -7.469263646098834E-065
   126.283500000000        -1.362717949222721E-064
   126.522900000000        -2.021176830020999E-064
   126.762300000000        -2.628857216734985E-064
   127.001700000000        -3.059623427575281E-064
   127.241100000000        -3.161814757520191E-064
   127.480500000000        -2.772922135521578E-064
   127.719900000000        -1.742544586551964E-064
   127.959300000000         3.669108038400066E-066
   128.198700000000         2.592063954669572E-064
   128.438100000000         5.831200012822126E-064
   128.677500000000         9.505679497467740E-064
   128.916900000000         1.318537179585009E-063
   129.156300000000         1.625248862716787E-063
   129.395700000000         1.792485758607258E-063
   129.635100000000         1.731703137224094E-063
   129.874500000000         1.354511826558390E-063
   130.113900000000         5.876326419039266E-064
   130.353300000000        -6.082929455253144E-064
   130.592700000000        -2.217564775585593E-063
   130.832100000000        -4.148530044466459E-063
   131.071500000000        -6.216554199688357E-063
   131.310900000000        -8.135358948101237E-063
   131.550300000000        -9.521723750970317E-063
   131.789700000000        -9.918407792101295E-063
   132.029100000000        -8.839134366299809E-063
   132.268500000000        -5.837393346023583E-063
   132.507900000000        -5.975632031441608E-064
   132.747300000000         6.957508266532306E-063
   132.986700000000         1.655352492071711E-062
   133.226100000000         2.746293819830458E-062
   133.465500000000         3.843592399790520E-062
   133.704900000000         4.768925848540662E-062
   133.944300000000         5.297898687208547E-062
   134.183700000000         5.177956180332569E-062
   134.423100000000         4.158381039967992E-062
   134.662500000000         2.032396218996585E-062
   134.901900000000        -1.310599612718899E-062
   135.141300000000        -5.827124877183874E-062
   135.380700000000        -1.126326300787043E-061
   135.620100000000        -1.710979106538699E-061
   135.859500000000        -2.258087182918948E-061
   136.098900000000        -2.662943092701960E-061
   136.338300000000        -2.801163619548637E-061
   136.577700000000        -2.540986069061167E-061
   136.817100000000        -1.761770397346869E-061
   137.056500000000        -3.781909916429082E-062
   137.295900000000         1.631538550475152E-061
   137.535300000000         4.196391072522467E-061
   137.774700000000         7.126555080716429E-061
   138.014100000000         1.009632578781771E-060
   138.253500000000         1.264219375410595E-060
   138.492900000000         1.418251967798788E-060
   138.732300000000         1.406421591913491E-060