  -1.79550000000000         0.000000000000000E+000
  -1.55610000000000         0.000000000000000E+000
  -1.31670000000000         0.000000000000000E+000
  -1.07730000000000         0.000000000000000E+000
 -0.837900000000000         0.000000000000000E+000
 -0.598500000000000         0.000000000000000E+000
 -0.359100000000000         0.000000000000000E+000
 -0.119700000000000         0.000000000000000E+000
  0.119700000000000         0.000000000000000E+000
  0.359100000000000         0.000000000000000E+000
  0.598500000000000         0.000000000000000E+000
  0.837900000000000         0.000000000000000E+000
   1.07730000000000         0.000000000000000E+000
   1.31670000000000         0.000000000000000E+000
   1.55610000000000         0.000000000000000E+000
   1.79550000000000         0.000000000000000E+000
   2.03490000000000         0.000000000000000E+000
   2.27430000000000         0.000000000000000E+000
   2.51370000000000         0.000000000000000E+000
   2.75310000000000         0.000000000000000E+000
   2.99250000000000         0.000000000000000E+000
   3.23190000000000         0.000000000000000E+000
   3.47130000000000         0.000000000000000E+000
   3.71070000000000         0.000000000000000E+000
   3.95010000000000         0.000000000000000E+000
   4.18950000000000         0.000000000000000E+000
   4.42890000000000         0.000000000000000E+000
   4.66830000000000         0.000000000000000E+000
   4.90770000000000         0.000000000000000E+000
   5.14710000000000         0.000000000000000E+000
   5.38650000000000         0.000000000000000E+000
   5.62590000000000         0.000000000000000E+000
   5.86530000000000         0.000000000000000E+000
   6.10470000000000         0.000000000000000E+000
   6.34410000000000         0.000000000000000E+000
   6.58350000000000         0.000000000000000E+000
   6.82290000000000         0.000000000000000E+000
   7.06230000000000         0.000000000000000E+000
   7.30170000000000         0.000000000000000E+000
   7.54110000000000         0.000000000000000E+000
   7.78050000000000         0.000000000000000E+000
   8.01990000000000         0.000000000000000E+000
   8.25930000000000         0.000000000000000E+000
   8.49870000000000         0.000000000000000E+000
   8.73810000000000         0.000000000000000E+000
   8.97750000000000         0.000000000000000E+000
   9.21690000000000         0.000000000000000E+000
   9.45630000000000         0.000000000000000E+000
   9.69570000000000        -1.392665393235620E-190
   9.93510000000000        -7.602235149639472E-179
   10.1745000000000        -3.966629891517431E-177
   10.4139000000000        -1.139239307578269E-174
   10.6533000000000        -1.599797384237734E-172
   10.8927000000000        -8.983350496315295E-171
   11.1321000000000        -2.888239176665532E-169
   11.3715000000000        -6.031666520051707E-168
   11.6109000000000        -8.095584255573577E-167
   11.8503000000000        -4.516554806091688E-166
   12.0897000000000         9.515578493008104E-165
   12.3291000000000         3.568853786980923E-163
   12.5685000000000         7.043401956288561E-162
   12.8079000000000         1.058137712251026E-160
   13.0473000000000         1.329289946451535E-159
   13.2867000000000         1.456538005582529E-158
   13.5261000000000         1.426171487559790E-157
   13.7655000000000         1.268029766430841E-156
   14.0049000000000         1.035669703803799E-155
   14.2443000000000         7.839659866659034E-155
   14.4837000000000         5.538996088748939E-154
   14.7231000000000         3.674115322522559E-153
   14.9625000000000         2.299290652746166E-152
   15.2019000000000         1.363274627191096E-151
   15.4413000000000         7.686245967130996E-151
   15.6807000000000         4.134200044254916E-150
   15.9201000000000         2.127486908974302E-149
   16.1595000000000         1.050186098836558E-148
   16.3989000000000         4.984365553319706E-148
   16.6383000000000         2.279443567744773E-147
   16.8777000000000         1.006417031118619E-146
   17.1171000000000         4.297801004818544E-146
   17.3565000000000         1.778138149292930E-145
   17.5959000000000         7.138662176922713E-145
   17.8353000000000         2.785074486456912E-144
   18.0747000000000         1.057357525524359E-143
   18.3141000000000         3.911397894440530E-143
   18.5535000000000         1.411542007871158E-142
   18.7929000000000         4.975108911052816E-142
   19.0323000000000         1.714445937888625E-141
   19.2717000000000         5.782207211805629E-141
   19.5111000000000         1.910376886941459E-140
   19.7505000000000         6.188374908370075E-140
   19.9899000000000         1.967029692776312E-139
   20.2293000000000         6.139485918906473E-139
   20.4687000000000         1.882835066174011E-138
   20.7081000000000         5.676528416618001E-138
   20.9475000000000         1.683175952240977E-137
   21.1869000000000         4.910086664669002E-137
   21.4263000000000         1.409436981526789E-136
   21.6657000000000         3.981316855974232E-136
   21.9051000000000         1.106626151466567E-135
   22.1445000000000         3.026041553382246E-135
   22.3839000000000         8.137493458156534E-135
   22.6233000000000         2.150909634571463E-134
   22.8627000000000         5.584318201913484E-134
   23.1021000000000         1.422833252518990E-133
   23.3415000000000         3.553845569993210E-133
   23.5809000000000         8.689861389568379E-133
   23.8203000000000         2.076615318875825E-132
   24.0597000000000         4.839296826237568E-132
   24.2991000000000         1.096603132418659E-131
   24.5385000000000         2.406932219668448E-131
   24.7779000000000         5.088598572781596E-131
   25.0173000000000         1.027407892007780E-130
   25.2567000000000         1.953055003847144E-130
   25.4961000000000         3.402801787171738E-130
   25.7355000000000         5.107006529033664E-130
   25.9749000000000         5.326912808707046E-130
   26.2143000000000        -2.088303044865321E-130
   26.4537000000000        -3.501565690450589E-129
   26.6931000000000        -1.400107887309137E-128
   26.9325000000000        -4.292683767548792E-128
   27.1719000000000        -1.156598548399618E-127
   27.4113000000000        -2.864278560239875E-127
   27.6507000000000        -6.647633315762307E-127
   27.8901000000000        -1.459102760279325E-126
   28.1295000000000        -3.039734445263127E-126
   28.3689000000000        -6.009050146233178E-126
   28.6083000000000        -1.122652766562982E-125
   28.8477000000000        -1.964071753268753E-125
   29.0871000000000        -3.158397867161295E-125
   29.3265000000000        -4.482278225876097E-125
   29.5659000000000        -5.006258736559485E-125
   29.8053000000000        -2.178247220523967E-125
   30.0447000000000         9.855415805553905E-125
   30.2841000000000         4.299296963132770E-124
   30.5235000000000         1.190285824508092E-123
   30.7629000000000         2.737583823621063E-123
   31.0023000000000         5.583024870577165E-123
   31.2417000000000         1.030212336959019E-122
   31.4811000000000         1.719399796080624E-122
   31.7205000000000         2.543180670451261E-122
   31.9599000000000         3.133622618262546E-122
   32.1993000000000         2.538611766213401E-122
   32.4387000000000        -1.211777866322626E-122
   32.6781000000000        -1.157724700067415E-121
   32.9175000000000        -3.367602448894927E-121
   33.1569000000000        -7.334831394067310E-121
   33.3963000000000        -1.336091963080053E-120
   33.6357000000000        -2.062038458077143E-120
   33.8751000000000        -2.557573798214218E-120
   34.1145000000000        -1.959361281181785E-120
   34.3539000000000         1.357736702824225E-120
   34.5933000000000         9.805608358613006E-120
   34.8327000000000         2.579860980566587E-119
   35.0721000000000         4.903371177663455E-119
   35.3115000000000         7.005013156599969E-119
   35.5509000000000         5.794373109400784E-119
   35.7903000000000        -5.874497262567324E-119
   36.0297000000000        -4.138497330011995E-118
   36.2691000000000        -1.210491964984556E-117
   36.5085000000000        -2.666908130989906E-117
   36.7479000000000        -4.803600860572325E-117
   36.9873000000000        -6.895874382932337E-117
   37.2267000000000        -6.322037758921876E-117
   37.4661000000000         3.520366514984235E-117
   37.7055000000000         3.644736882641030E-116
   37.9449000000000         1.175337317962100E-115
   38.1843000000000         2.861513333054244E-115
   38.4237000000000         5.930356295791349E-115
   38.6631000000000         1.080704521160621E-114
   38.9025000000000         1.727591134136599E-114
   39.1419000000000         2.324521565389347E-114
   39.3813000000000         2.241253669527737E-114
   39.6207000000000         4.066563493133404E-116
   39.8601000000000        -7.070001182501081E-114
   40.0995000000000        -2.385972835662214E-113
   40.3389000000000        -5.744471368653960E-113
   40.5783000000000        -1.166534957650987E-112
   40.8177000000000        -2.089189789383860E-112
   41.0571000000000        -3.322328704274452E-112
   41.2965000000000        -4.585806441308042E-112
   41.5359000000000        -5.045762484323914E-112
   41.7753000000000        -2.859323536517437E-112
   42.0147000000000         5.428700869372524E-112
   42.2541000000000         2.550346949808831E-111
   42.4935000000000         6.553931422122611E-111
   42.7329000000000         1.353211572291615E-110
   42.9723000000000         2.428514187445633E-110
   43.2117000000000         3.863333674073319E-110
   43.4511000000000         5.387821357858859E-110
   43.6905000000000         6.225005293254157E-110
   43.9299000000000         4.722665118086749E-110
   44.1693000000000        -2.090929049491536E-110
   44.4087000000000        -1.888848488089553E-109
   44.6481000000000        -5.204364856030426E-109
   44.8875000000000        -1.086583008855696E-108
   45.1269000000000        -1.936760195149096E-108
   45.3663000000000        -3.037943126200856E-108
   45.6057000000000        -4.167452456711215E-108
   45.8451000000000        -4.749532890461481E-108
   46.0845000000000        -3.642098867794004E-108
   46.3239000000000         1.083365070519135E-108
   46.5633000000000         1.225953182458596E-107
   46.8027000000000         3.342682603298636E-107
   47.0421000000000         6.797561332612690E-107
   47.2815000000000         1.171368610009559E-106
   47.5209000000000         1.762463328671683E-106
   47.7603000000000         2.288064579921231E-106
   47.9997000000000         2.383569838523961E-106
   48.2391000000000         1.393240388182982E-106
   48.4785000000000        -1.698265014029371E-106
   48.7179000000000        -8.243909563851449E-106
   48.9573000000000        -1.970796917553463E-105
   49.1967000000000        -3.706949262593297E-105
   49.4361000000000        -5.965071911722308E-105
   49.6755000000000        -8.317685118570449E-105
   49.9149000000000        -9.699634844040368E-105
   50.1543000000000        -8.071332511485639E-105
   50.3937000000000        -1.112901418951022E-106
   50.6331000000000         1.887033736316702E-104
   50.8725000000000         5.445746339682297E-104
   51.1119000000000         1.115732669385113E-103
   51.3513000000000         1.911563232836451E-103
   51.5907000000000         2.843148984862799E-103
   51.8301000000000         3.634111768162680E-103
   52.0695000000000         3.702506676998423E-103
   52.3089000000000         2.031267190570575E-103
   52.5483000000000        -2.927340233491494E-103
   52.7877000000000        -1.322469077365133E-102
   53.0271000000000        -3.111944718250242E-102
   53.2665000000000        -5.829849576312358E-102
   53.5059000000000        -9.434527794496101E-102
   53.7453000000000        -1.341762744125072E-101
   53.9847000000000        -1.642667730074082E-101
   54.2241000000000        -1.577901028906944E-101
   54.4635000000000        -6.942191003654679E-102
   54.7029000000000         1.683522854067702E-101
   54.9423000000000         6.439333149079346E-101
   55.1817000000000         1.454586471614523E-100
   55.4211000000000         2.675399486058834E-100
   55.6605000000000         4.298626578766284E-100
   55.8999000000000         6.132121665563412E-100
   56.1393000000000         7.648682525854882E-100
   56.3787000000000         7.788457523753059E-100
   56.6181000000000         4.738675187365427E-100
   56.8575000000000        -4.245840221565832E-100
   57.0969000000000        -2.285680875595447E-099
   57.3363000000000        -5.537205845196140E-099
   57.5757000000000        -1.056089401459940E-098
   57.8151000000000        -1.747803520680680E-098
   58.0545000000000        -2.577891074825822E-098
   58.2939000000000        -3.375682602267100E-098
   58.5333000000000        -3.773937863750852E-098
   58.7727000000000        -3.118302377050508E-098
   59.0121000000000        -3.832165785032045E-099
   59.2515000000000         5.863979287421724E-098
   59.4909000000000         1.737834135742629E-097
   59.7303000000000         3.592154296920143E-097
   59.9697000000000         6.256563608450687E-097
   60.2091000000000         9.644194936799873E-097
   60.4485000000000         1.327760773419310E-096
   60.6879000000000         1.601469919564255E-096
   60.9273000000000         1.571439324573867E-096
   61.1667000000000         8.903632027764151E-097
   61.4061000000000        -9.421733073038356E-097
   61.6455000000000        -4.562869593545490E-096
   61.8849000000000        -1.065530585544078E-095
   62.1243000000000        -1.973937185409150E-095
   62.3637000000000        -3.178266855727490E-095
   62.6031000000000        -4.558151390544134E-095
   62.8425000000000        -5.788903604326799E-095
   63.0819000000000        -6.233983681467864E-095
   63.3213000000000        -4.835393386100438E-095
   63.5607000000000        -4.136531489140300E-097
   63.8001000000000         1.015993720035183E-094
   64.0395000000000         2.799654554781779E-094
   64.2789000000000         5.531972699485550E-094
   64.5183000000000         9.250285384559192E-094
   64.7577000000000         1.366906315106840E-093
   64.9971000000000         1.793464317907891E-093
   65.2365000000000         2.032491718897631E-093
   65.4759000000000         1.794548815929778E-093
   65.7153000000000         6.529588028051407E-094
   65.9547000000000        -1.947594953931131E-093
   66.1941000000000        -6.626955199718454E-093
   66.4335000000000        -1.391502126076171E-092
   66.6729000000000        -2.396855088917716E-092
   66.9123000000000        -3.612748646375089E-092
   67.1517000000000        -4.830379574973878E-092
   67.3911000000000        -5.624815190635158E-092
   67.6305000000000        -5.282887508064563E-092
   67.8699000000000        -2.758869143229743E-092
   68.1093000000000         3.298629634116785E-092
   68.3487000000000         1.438663395839080E-091
   68.5881000000000         3.177756810689280E-091
   68.8275000000000         5.585836376065858E-091
   69.0669000000000         8.511958116125858E-091
   69.3063000000000         1.147972902574187E-090
   69.5457000000000         1.352917609671489E-090
   69.7851000000000         1.306830037172877E-090
   70.0245000000000         7.793862288091374E-091
   70.2639000000000        -5.225344150555094E-091
   70.5033000000000        -2.917512540414727E-090
   70.7427000000000        -6.668079819233246E-090
   70.9821000000000        -1.184027614204677E-089
   71.2215000000000        -1.809520548910844E-089
   71.4609000000000        -2.441753982315112E-089
   71.7003000000000        -2.881132875135349E-089
   71.9397000000000        -2.803239729201512E-089
   72.1791000000000        -1.747867466869283E-089
   72.4185000000000         8.580040728045983E-090
   72.6579000000000         5.619536033210862E-089
   72.8973000000000         1.300892074349565E-088
   73.1367000000000         2.309203949047853E-088
   73.3761000000000         3.513636558582909E-088
   73.6155000000000         4.711816636374715E-088
   73.8549000000000         5.519542957515146E-088
   74.0943000000000         5.328324669225929E-088
   74.3337000000000         3.295766310596753E-088
   74.5731000000000        -1.598934169310537E-088
   74.8125000000000        -1.039411291302378E-087
   75.0519000000000        -2.383678669572273E-087
   75.2913000000000        -4.189217784708128E-087
   75.5307000000000        -6.306526842377554E-087
   75.7701000000000        -8.358099136749791E-087
   76.0095000000000        -9.655394413910988E-087
   76.2489000000000        -9.139488801474451E-087
   76.4883000000000        -5.384129152865652E-087
   76.7277000000000         3.286017919391351E-087
   76.9671000000000         1.849926419804382E-086
   77.2065000000000         4.130118758786304E-086
   77.4459000000000         7.133803087593662E-086
   77.6853000000000         1.057682257760908E-085
   77.9247000000000         1.380009028477476E-085
   78.1641000000000         1.564955362453598E-085
   78.4035000000000         1.440346835884883E-085
   78.6429000000000         7.808401611287067E-086
   78.8823000000000        -6.695981963455426E-086
   79.1217000000000        -3.147311615135667E-085
   79.3611000000000        -6.782471549756567E-085
   79.6005000000000        -1.147222344763071E-084
   79.8399000000000        -1.671759401743821E-084
   80.0793000000000        -2.144233734654365E-084
   80.3187000000000        -2.383202694389783E-084
   80.5581000000000        -2.125694130847994E-084
   80.7975000000000        -1.036939587118957E-084
   81.0369000000000         1.251123654482170E-084
   81.2763000000000         5.060465237807688E-084
   81.5157000000000         1.053664404890612E-083
   81.7551000000000         1.746412730906140E-083
   81.9945000000000         2.503666295245932E-083
   82.2339000000000         3.161245394096295E-083
   82.4733000000000         3.451178662191181E-083
   82.7127000000000         2.994824779722100E-083
   82.9521000000000         1.321860728646866E-083
   83.1915000000000        -2.069837065149609E-083
   83.4309000000000        -7.598136094484107E-083
   83.6703000000000        -1.541295922365447E-082
   83.9097000000000        -2.514349238090000E-082
   84.1491000000000        -3.559290828546376E-082
   84.3885000000000        -4.442460943380174E-082
   84.6279000000000        -4.792018484962517E-082
   84.8673000000000        -4.093099862882516E-082
   85.1067000000000        -1.718532132351964E-082
   85.3461000000000         2.986106670072284E-082
   85.5855000000000         1.054484276165249E-081
   85.8249000000000         2.110876843246788E-081
   86.0643000000000         3.413000944054806E-081
   86.3037000000000         4.797717615825354E-081
   86.5431000000000         5.955170854532077E-081
   86.7825000000000         6.400860563347834E-081
   87.0219000000000         5.473409712030586E-081
   87.2613000000000         2.377747367670867E-081
   87.5007000000000        -3.704051880268514E-081
   87.7401000000000        -1.341354392586306E-080
   87.9795000000000        -2.691565087642382E-080
   88.2189000000000        -4.350196209614903E-080
   88.4583000000000        -6.113076859542403E-080
   88.6977000000000        -7.597754035173001E-080
   88.9371000000000        -8.212012740135093E-080
   89.1765000000000        -7.153763810633030E-080
   89.4159000000000        -3.464954273015903E-080
   89.6553000000000         3.835517191026433E-080
   89.8947000000000         1.551731290541670E-079
   90.1341000000000         3.178990865634200E-079
   90.3735000000000         5.184695571097057E-079
   90.6129000000000         7.334338470892206E-079
   90.8523000000000         9.188969484370918E-079
   91.0917000000000         1.007026547051380E-078
   91.3311000000000         9.060954757392701E-079
   91.5705000000000         5.065180582316077E-079
   91.8099000000000        -3.044503465821715E-079
   92.0493000000000        -1.616987697095315E-078
   92.2887000000000        -3.460690561352124E-078
   92.5281000000000        -5.755167932084762E-078
   92.7675000000000        -8.253548287713324E-078
   93.0069000000000        -1.048786372183402E-077
   93.2463000000000        -1.173088943143784E-077
   93.4857000000000        -1.099486051424530E-077
   93.7251000000000        -7.092298009893318E-078
   93.9645000000000         1.213894407306369E-078
   94.2039000000000         1.494722075904863E-077
   94.4433000000000         3.452865591074448E-077
   94.6827000000000         5.927101062268556E-077
   94.9221000000000         8.679934006186046E-077
   95.1615000000000         1.124857779041162E-076
   95.4009000000000         1.290416904369117E-076
   95.6403000000000         1.264663125341240E-076
   95.8797000000000         9.259695853934271E-077
   96.1191000000000         1.452410469603104E-077
   96.3585000000000        -1.188968638345366E-076
   96.5979000000000        -3.133109979476483E-076
   96.8373000000000        -5.639820988518532E-076
   97.0767000000000        -8.501529280772647E-076
   97.3161000000000        -1.129457994409980E-075
   97.5555000000000        -1.333701457408622E-075
   97.7949000000000        -1.367829887653301E-075
   98.0343000000000        -1.114353733911103E-075
   98.2737000000000        -4.456481237270570E-076
   98.5131000000000         7.537000088624731E-076
   98.7525000000000         2.553247396655649E-075
   98.9919000000000         4.932263931170452E-075
   99.2313000000000         7.727758923995227E-075
   99.4707000000000         1.058188642237869E-074
   99.7101000000000         1.290003466346005E-074
   99.9495000000000         1.383544175894947E-074
   100.188900000000         1.231995815555607E-074
   100.428300000000         7.162305708109428E-075
   100.667700000000        -2.766743997799360E-075
   100.907100000000        -1.825019023918934E-074
   101.146500000000        -3.934390443066940E-074
   101.385900000000        -6.492370248121314E-074
   101.625300000000        -9.221540149489928E-074
   101.864700000000        -1.163991844977675E-073
   102.104100000000        -1.304175485975375E-073
   102.343500000000        -1.251484808639251E-073
   102.582900000000        -9.012209088457637E-074
   102.822300000000        -1.494703601205308E-074
   103.061700000000         1.084411841625852E-073
   103.301100000000         2.827074104707538E-073
   103.540500000000         5.013897746116881E-073
   103.779900000000         7.449248068858464E-073
   104.019300000000         9.771164146379203E-073
   104.258700000000         1.143042830548389E-072
   104.498100000000         1.169661256198232E-072
   104.737500000000         9.705225473265536E-073
   104.976900000000         4.559527470860101E-073
   105.216300000000        -4.503100864268614E-073
   105.455700000000        -1.787814101426360E-072
   105.695100000000        -3.530472906585900E-072
   105.934500000000        -5.554808750271709E-072
   106.173900000000        -7.610268374477683E-072
   106.413300000000        -9.298812492082728E-072
   106.652700000000        -1.007306063560735E-071
   106.892100000000        -9.263603289099044E-072
   107.131500000000        -6.145995280351692E-072
   107.370900000000        -5.566657093497383E-074
   107.610300000000         9.446184367794864E-072
   107.849700000000         2.236122314441067E-071
   108.089100000000         3.801471849368492E-071
   108.328500000000         5.482098159962581E-071
   108.567900000000         7.010261387441021E-071
   108.807300000000         8.002818809676795E-071
   109.046700000000         7.974389613228940E-071
   109.286100000000         6.377641382635675E-071
   109.525500000000         2.677161206730263E-071
   109.764900000000        -3.539820328696484E-071
   110.004300000000        -1.241808656033186E-070
   110.243700000000        -2.366463355042066E-070
   110.483100000000        -3.637461812040406E-070
   110.722500000000        -4.888456300171699E-070
   110.961900000000        -5.869532110516413E-070
   111.201300000000        -6.251569863626916E-070
   111.440700000000        -5.648049152894534E-070
   111.680100000000        -3.659064076894120E-070
   111.919500000000         5.950719442437828E-072
   112.158900000000         5.702053071844841E-070
   112.398300000000         1.319978869976648E-069
   112.637700000000         2.209948786379441E-069
   112.877100000000         3.145339055264726E-069
   113.116500000000         3.974668443440885E-069
   113.355900000000         4.489502820870083E-069
   113.595300000000         4.434752742552670E-069
   113.834700000000         3.532829638863809E-069
   114.074100000000         1.524011585592301E-069
   114.313500000000        -1.776505162119541E-069
   114.552900000000        -6.407272133067291E-069
   114.792300000000        -1.218120781427507E-068
   115.031700000000        -1.860893630269084E-068
   115.271100000000        -2.484033272258809E-068
   115.510500000000        -2.964388819954288E-068
   115.749900000000        -3.144598705690866E-068
   115.989300000000        -2.845177911751743E-068
   116.228700000000        -1.886473189676994E-068
   116.468100000000        -1.212022561382976E-069
   116.707500000000         2.523301499317720E-068
   116.946900000000         5.996204749517439E-068
   117.186300000000         1.007337492400602E-067
   117.425700000000         1.431525481640394E-067
   117.665100000000         1.804364412804422E-067
   117.904500000000         2.035046086602146E-067
   118.143900000000         2.015188379067360E-067
   118.383300000000         1.629933473680229E-067
   118.622700000000         7.753850386669637E-068
   118.862100000000        -6.177961368569314E-068
   119.101500000000        -2.556005933540699E-067
   119.340900000000        -4.952374678828263E-067
   119.580300000000        -7.599018860073112E-067
   119.819700000000        -1.014798068493869E-066
   120.059100000000        -1.210821137756382E-066
   120.298500000000        -1.286644820570539E-066
   120.537900000000        -1.173915562434133E-066
   120.777300000000        -8.060440134300650E-067
   121.016700000000        -1.306698475527620E-067
   121.256100000000         8.747389636321669E-067
   121.495500000000         2.185486241429392E-066
   121.734900000000         3.712695394752998E-066
   121.974300000000         5.289978770461211E-066
   122.213700000000         6.667680259852405E-066
   122.453100000000         7.519070375649291E-066
   122.692500000000         7.462719988409179E-066
   122.931900000000         6.104316211369129E-066
   123.171300000000         3.099224405181018E-066
   123.410700000000        -1.765949829001893E-066
   123.650100000000        -8.478628565698736E-066
   123.889500000000        -1.670304338446901E-065
   124.128900000000        -2.569632624839855E-065
   124.368300000000        -3.425829086819674E-065
   124.607700000000        -4.073831763629493E-065
   124.847100000000        -4.312302741112510E-065
   125.086500000000        -3.922469757849193E-065
   125.325900000000        -2.698155397591652E-065
   125.565300000000        -4.866499848738238E-066
   125.804700000000         2.761943054832558E-065
   126.044100000000         6.941751422748964E-065
   126.283500000000         1.174215088829730E-064
   126.522900000000         1.661291596659122E-064
   126.762300000000         2.075559126361037E-064
   127.001700000000         2.315383067755847E-064
   127.241100000000         2.265418950866095E-064
   127.480500000000         1.810506581751396E-064
   127.719900000000         8.554747723202206E-065
   127.959300000000        -6.500261545990778E-065
   128.198700000000        -2.683790645424467E-064
   128.438100000000        -5.123956650223156E-064
   128.677500000000        -7.727467465589189E-064
   128.916900000000        -1.012016870734956E-063
   129.156300000000        -1.180519256667018E-063
   129.395700000000        -1.219596197008021E-063
   129.635100000000        -1.067860135304124E-063
   129.874500000000        -6.705514806521072E-064
   130.113900000000         8.271960926639392E-066
   130.353300000000         9.716066195412020E-064
   130.592700000000         2.175039859391986E-063
   130.832100000000         3.514292370789163E-063
   131.071500000000         4.817752917222491E-063
   131.310900000000         5.847398322077974E-063
   131.550300000000         6.311487098814476E-063
   131.789700000000         5.891827586131627E-063
   132.029100000000         4.287105985200934E-063
   132.268500000000         1.271635321295934E-063
   132.507900000000        -3.234023390333075E-063
   132.747300000000        -9.087643770762825E-063
   132.986700000000        -1.585599749594078E-062
   133.226100000000        -2.276601564623475E-062
   133.465500000000        -2.869343062922479E-062
   133.704900000000        -3.220662626986664E-062
   133.944300000000        -3.168145914012387E-062
   134.183700000000        -2.549734178877483E-062
   134.423100000000        -1.231536384305110E-062
   134.662500000000         8.574399831420626E-063
   134.901900000000         3.686638423031023E-062
   135.141300000000         7.086303091115585E-062
   135.380700000000         1.071763672800250E-061
   135.620100000000         1.405909758868845E-061
   135.859500000000         1.641791402023420E-061
   136.098900000000         1.697542111672078E-061
   136.338300000000         1.487270162152775E-061
   136.577700000000         9.338919087748904E-062
   136.817100000000        -1.414601762561947E-063
   137.056500000000        -1.363447328741339E-061
   137.295900000000        -3.055687767218987E-061
   137.535300000000        -4.950194956818975E-061
   137.774700000000        -6.813064164222197E-061
   138.014100000000        -8.317338110666913E-061
   138.253500000000        -9.058800493998161E-061
   138.492900000000        -8.591206135893439E-061
   138.732300000000        -6.483111628721733E-061