  -1.79550000000000         0.000000000000000E+000
  -1.55610000000000         0.000000000000000E+000
  -1.31670000000000         0.000000000000000E+000
  -1.07730000000000         0.000000000000000E+000
 -0.837900000000000         0.000000000000000E+000
 -0.598500000000000         0.000000000000000E+000
 -0.359100000000000         0.000000000000000E+000
 -0.119700000000000         0.000000000000000E+000
  0.119700000000000         0.000000000000000E+000
  0.359100000000000         0.000000000000000E+000
  0.598500000000000         0.000000000000000E+000
  0.837900000000000         0.000000000000000E+000
   1.07730000000000         0.000000000000000E+000
   1.31670000000000         0.000000000000000E+000
   1.55610000000000         0.000000000000000E+000
   1.79550000000000         0.000000000000000E+000
   2.03490000000000         0.000000000000000E+000
   2.27430000000000         0.000000000000000E+000
   2.51370000000000         0.000000000000000E+000
   2.75310000000000         0.000000000000000E+000
   2.99250000000000         0.000000000000000E+000
   3.23190000000000         0.000000000000000E+000
   3.47130000000000         0.000000000000000E+000
   3.71070000000000         0.000000000000000E+000
   3.95010000000000         0.000000000000000E+000
   4.18950000000000         0.000000000000000E+000
   4.42890000000000         0.000000000000000E+000
   4.66830000000000         0.000000000000000E+000
   4.90770000000000         0.000000000000000E+000
   5.14710000000000         0.000000000000000E+000
   5.38650000000000         0.000000000000000E+000
   5.62590000000000         0.000000000000000E+000
   5.86530000000000         0.000000000000000E+000
   6.10470000000000         0.000000000000000E+000
   6.34410000000000         0.000000000000000E+000
   6.58350000000000         0.000000000000000E+000
   6.82290000000000         0.000000000000000E+000
   7.06230000000000         0.000000000000000E+000
   7.30170000000000         0.000000000000000E+000
   7.54110000000000         0.000000000000000E+000
   7.78050000000000         0.000000000000000E+000
   8.01990000000000         0.000000000000000E+000
   8.25930000000000         0.000000000000000E+000
   8.49870000000000         0.000000000000000E+000
   8.73810000000000         0.000000000000000E+000
   8.97750000000000         0.000000000000000E+000
   9.21690000000000         0.000000000000000E+000
   9.45630000000000        -4.457926324288058E-191
   9.69570000000000         1.525783259177231E-178
   9.93510000000000        -2.931903842968408E-176
   10.1745000000000        -1.505410790038634E-175
   10.4139000000000         6.044329842659275E-172
   10.6533000000000         5.026511105670670E-170
   10.8927000000000         2.159397950055516E-168
   11.1321000000000         6.308337295879538E-167
   11.3715000000000         1.402842038605213E-165
   11.6109000000000         2.528323780464618E-164
   11.8503000000000         3.845101018232137E-163
   12.0897000000000         5.076612696329605E-162
   12.3291000000000         5.943865873164088E-161
   12.5685000000000         6.274943582593515E-160
   12.8079000000000         6.053419898946129E-159
   13.0473000000000         5.394975732578279E-158
   13.2867000000000         4.482103030303949E-157
   13.5261000000000         3.496857662991566E-156
   13.7655000000000         2.577313282186747E-155
   14.0049000000000         1.803045429550947E-154
   14.2443000000000         1.201701938528162E-153
   14.4837000000000         7.651721352445369E-153
   14.7231000000000         4.664610492609633E-152
   14.9625000000000         2.726853270784570E-151
   15.2019000000000         1.530506602140755E-150
   15.4413000000000         8.255942765744171E-150
   15.6807000000000         4.283719741828377E-149
   15.9201000000000         2.139558498457750E-148
   16.1595000000000         1.029387970698128E-147
   16.3989000000000         4.773909105470804E-147
   16.6383000000000         2.135428210103131E-146
   16.8777000000000         9.218759520404974E-146
   17.1171000000000         3.843067257400254E-145
   17.3565000000000         1.547804869425946E-144
   17.5959000000000         6.025130374140117E-144
   17.8353000000000         2.267574119348831E-143
   18.0747000000000         8.252272223055286E-143
   18.3141000000000         2.903993637993063E-142
   18.5535000000000         9.879070795983453E-142
   18.7929000000000         3.246993322622585E-141
   19.0323000000000         1.030008247777843E-140
   19.2717000000000         3.148167579546961E-140
   19.5111000000000         9.246233632268223E-140
   19.7505000000000         2.598377495968698E-139
   19.9899000000000         6.937772488069382E-139
   20.2293000000000         1.738657845282306E-138
   20.4687000000000         3.994812874011690E-138
   20.7081000000000         7.976712143715818E-138
   20.9475000000000         1.164091094660838E-137
   21.1869000000000        -4.949306898531431E-139
   21.4263000000000        -9.744005695150133E-137
   21.6657000000000        -5.353334184156425E-136
   21.9051000000000        -2.173005130450452E-135
   22.1445000000000        -7.697325477452214E-135
   22.3839000000000        -2.507873791525111E-134
   22.6233000000000        -7.694039967272947E-134
   22.8627000000000        -2.250611225362805E-133
   23.1021000000000        -6.323033980919543E-133
   23.3415000000000        -1.714000666721517E-132
   23.5809000000000        -4.495922588421572E-132
   23.8203000000000        -1.143236596463119E-131
   24.0597000000000        -2.821012630232749E-131
   24.2991000000000        -6.757557184864120E-131
   24.5385000000000        -1.571097387714623E-130
   24.7779000000000        -3.542433455917927E-130
   25.0173000000000        -7.734774317599025E-130
   25.2567000000000        -1.631647295456908E-129
   25.4961000000000        -3.313534484667806E-129
   25.7355000000000        -6.442815779355139E-129
   25.9749000000000        -1.189089526833412E-128
   26.2143000000000        -2.052502670427515E-128
   26.4537000000000        -3.220759621872726E-128
   26.6931000000000        -4.298327618240112E-128
   26.9325000000000        -3.836762379751454E-128
   27.1719000000000         2.092738772977185E-128
   27.4113000000000         2.263944658041553E-127
   27.6507000000000         7.687693775181781E-127
   27.8901000000000         2.007448474818879E-126
   28.1295000000000         4.547673038838375E-126
   28.3689000000000         9.261998524494527E-126
   28.6083000000000         1.708079224163504E-125
   28.8477000000000         2.815598941186520E-125
   29.0871000000000         3.962560943727302E-125
   29.3265000000000         4.067353107720147E-125
   29.5659000000000         3.063551608879826E-126
   29.8053000000000        -1.345570245231274E-124
   30.0447000000000        -4.880095616708460E-124
   30.2841000000000        -1.246416843365904E-123
   30.5235000000000        -2.661869617605560E-123
   30.7629000000000        -4.945842646996840E-123
   31.0023000000000        -7.943368396976289E-123
   31.2417000000000        -1.036245880428650E-122
   31.4811000000000        -8.239309942664617E-123
   31.7205000000000         7.691851502876743E-123
   31.9599000000000         5.576919687640197E-122
   32.1993000000000         1.673630847608611E-121
   32.4387000000000         3.877128553646790E-121
   32.6781000000000         7.658083552461116E-121
   32.9175000000000         1.318395385512789E-120
   33.1569000000000         1.944885137785059E-120
   33.3963000000000         2.266454727485568E-120
   33.6357000000000         1.379614913553173E-120
   33.8751000000000        -2.415701595290097E-120
   34.1145000000000        -1.167553220928782E-119
   34.3539000000000        -2.905816982536383E-119
   34.5933000000000        -5.454036012314407E-119
   34.8327000000000        -7.854299058323023E-119
   35.0721000000000        -6.815988117122550E-119
   35.3115000000000         5.596262544341311E-119
   35.5509000000000         4.508098040980433E-118
   35.7903000000000         1.377512929356664E-117
   36.0297000000000         3.184359394366428E-117
   36.2691000000000         6.157696701933675E-117
   36.5085000000000         1.007120665185700E-116
   36.7479000000000         1.315599417316892E-116
   36.9873000000000         1.011568193352240E-116
   37.2267000000000        -1.116995833094534E-116
   37.4661000000000        -7.423607596200560E-116
   37.7055000000000        -2.187405272658519E-115
   37.9449000000000        -5.014805795541126E-115
   38.1843000000000        -9.849366037835980E-115
   38.4237000000000        -1.696477756253773E-114
   38.6631000000000        -2.530334875895491E-114
   38.9025000000000        -3.053232421020728E-114
   39.1419000000000        -2.171427815674457E-114
   39.3813000000000         2.360198126258195E-114
   39.6207000000000         1.452481321326702E-113
   39.8601000000000         4.047309996377220E-113
   40.0995000000000         8.817741473264786E-113
   40.3389000000000         1.650933445064602E-112
   40.5783000000000         2.717752510523239E-112
   40.8177000000000         3.884757945412173E-112
   41.0571000000000         4.512496685449429E-112
   41.2965000000000         3.150402721466462E-112
   41.5359000000000        -2.944356595847410E-112
   41.7753000000000        -1.827542434729509E-111
   42.0147000000000        -4.923135499003127E-111
   42.2541000000000        -1.031902086470735E-110
   42.4935000000000        -1.854436601121745E-110
   42.7329000000000        -2.922239179439300E-110
   42.9723000000000        -3.977263049615321E-110
   43.2117000000000        -4.333060849802716E-110
   43.4511000000000        -2.588999844868479E-110
   43.6905000000000         3.684369213881200E-110
   43.9299000000000         1.814422839293008E-109
   44.1693000000000         4.545461679854309E-109
   44.4087000000000         9.011395347365508E-109
   44.6481000000000         1.535322629265392E-108
   44.8875000000000         2.283492849691045E-108
   45.1269000000000         2.890387295887834E-108
   45.3663000000000         2.785280900291830E-108
   45.6057000000000         9.242802390816706E-109
   45.8451000000000        -4.337940886702515E-108
   46.0845000000000        -1.523080738508967E-107
   46.3239000000000        -3.419831285112227E-107
   46.5633000000000        -6.286234212740549E-107
   46.8027000000000        -9.991095018851666E-107
   47.0421000000000        -1.374984259222516E-106
   47.2815000000000        -1.559535327287890E-106
   47.5209000000000        -1.172079522774160E-106
   47.7603000000000         4.137763844215868E-107
   47.9997000000000         4.089553621742518E-106
   48.2391000000000         1.091902839036464E-105
   48.4785000000000         2.182386740070499E-105
   48.7179000000000         3.690133765994448E-105
   48.9573000000000         5.421391000079373E-105
   49.1967000000000         6.793880224566917E-105
   49.4361000000000         6.593469828850870E-105
   49.6755000000000         2.715075569959116E-105
   49.9149000000000        -8.004688317727998E-105
   50.1543000000000        -2.965662101244608E-104
   50.3937000000000        -6.649332268482285E-104
   50.6331000000000        -1.210525274431284E-103
   50.8725000000000        -1.905961525925941E-103
   51.1119000000000        -2.613378973635880E-103
   51.3513000000000        -3.002824155779620E-103
   51.5907000000000        -2.453798387667118E-103
   51.8301000000000         3.616799876485503E-105
   52.0695000000000         5.884607313893217E-103
   52.3089000000000         1.680845254137815E-102
   52.5483000000000         3.442103362150592E-102
   52.7877000000000         5.935567449048836E-102
   53.0271000000000         8.970444478863722E-102
   53.2665000000000         1.185954120508408E-101
   53.5059000000000         1.308858419561916E-101
   53.7453000000000         9.930324841293452E-102
   53.9847000000000        -1.898299546781768E-102
   54.2241000000000        -2.833399563198840E-101
   54.4635000000000        -7.647179349223561E-101
   54.7029000000000        -1.529485845867300E-100
   54.9423000000000        -2.604974151799649E-100
   55.1817000000000        -3.918581343990673E-100
   55.4211000000000        -5.203314476966603E-100
   55.6605000000000        -5.867845881451234E-100
   55.8999000000000        -4.841561630151232E-100
   56.1393000000000        -4.283364525427840E-101
   56.3787000000000         9.759380712372607E-100
   56.6181000000000         2.865986742843659E-099
   56.8575000000000         5.921881132444163E-099
   57.0969000000000         1.031730938384910E-098
   57.3363000000000         1.588376104964621E-098
   57.5757000000000         2.175851497162342E-098
   57.8151000000000         2.588686075432480E-098
   58.0545000000000         2.440509268020450E-098
   58.2939000000000         1.101225847574046E-098
   58.5333000000000        -2.342523798377293E-098
   58.7727000000000        -9.059113339208617E-098
   59.0121000000000        -2.030525625449210E-097
   59.2515000000000        -3.702161236903144E-097
   59.4909000000000        -5.906896797007288E-097
   59.7303000000000        -8.398386923811414E-097
   59.9697000000000        -1.051834599402226E-096
   60.2091000000000        -1.096894779810584E-096
   60.4485000000000        -7.571949290100655E-097
   60.6879000000000         2.904114290165103E-097
   60.9273000000000         2.469898234841956E-096
   61.1667000000000         6.256039263620001E-096
   61.4061000000000         1.204562018220424E-095
   61.6455000000000         1.990953859922044E-095
   61.8849000000000         2.918621662830293E-095
   62.1243000000000         3.789415768743729E-095
   62.3637000000000         4.198752052088737E-095
   62.6031000000000         3.456743138421316E-095
   62.8425000000000         5.306555560808481E-096
   63.0819000000000        -5.944901126001425E-095
   63.3213000000000        -1.751801687976094E-094
   63.5607000000000        -3.553156931870178E-094
   63.8001000000000        -6.038204185570015E-094
   64.0395000000000        -9.031809701603785E-094
   64.2789000000000        -1.197302190345816E-093
   64.5183000000000        -1.370227211726227E-093
   64.7577000000000        -1.224157465687710E-093
   64.9971000000000        -4.642510711275565E-094
   65.2365000000000         1.296855858058913E-093
   65.4759000000000         4.495426910251604E-093
   65.7153000000000         9.508498922390414E-093
   65.9547000000000         1.645288645984491E-092
   66.1941000000000         2.486732350338474E-092
   66.4335000000000         3.327142074369547E-092
   66.6729000000000         3.863330253437101E-092
   66.9123000000000         3.584357922722984E-092
   67.1517000000000         1.739099168011643E-092
   67.3911000000000        -2.643824677796370E-092
   67.6305000000000        -1.063758399747811E-091
   67.8699000000000        -2.314243563387560E-091
   68.1093000000000        -4.039436309115037E-091
   68.3487000000000        -6.121254262034607E-091
   68.5881000000000        -8.198829486141742E-091
   68.8275000000000        -9.551079393918196E-091
   69.0669000000000        -8.987489562296653E-091
   69.3063000000000        -4.792776238162716E-091
   69.5457000000000         5.203026379876356E-091
   69.7851000000000         2.333120763224039E-090
   70.0245000000000         5.145175293690962E-090
   70.2639000000000         8.986935902169351E-090
   70.5033000000000         1.357315036791539E-089
   70.7427000000000         1.809528687695877E-089
   70.9821000000000         2.099107085142661E-089
   71.2215000000000         1.974618613214454E-089
   71.4609000000000         1.082403401018253E-089
   71.7003000000000        -1.013361433700392E-089
   71.9397000000000        -4.764904039770999E-089
   72.1791000000000        -1.050862163616963E-088
   72.4185000000000        -1.824819491096108E-088
   72.6579000000000        -2.734579383996757E-088
   72.8973000000000        -3.613727345607388E-088
   73.1367000000000        -4.152618262777748E-088
   73.3761000000000        -3.866767594567655E-088
   73.6155000000000        -2.092443203181816E-088
   73.8549000000000         1.964716951841489E-088
   74.0943000000000         9.096078451566554E-088
   74.3337000000000         1.983792834767583E-087
   74.5731000000000         3.407529616248713E-087
   74.8125000000000         5.049874722657281E-087
   75.0519000000000         6.595466678189427E-087
   75.2913000000000         7.479811874435119E-087
   75.5307000000000         6.845135383108289E-087
   75.7701000000000         3.548313433514174E-087
   76.0095000000000        -3.736493063473373E-087
   76.2489000000000        -1.627039975593270E-086
   76.4883000000000        -3.480895270589371E-086
   76.7277000000000        -5.893690190497104E-086
   76.9671000000000        -8.618958965019462E-086
   77.2065000000000        -1.110459327050011E-085
   77.4459000000000        -1.239883459593163E-085
   77.6853000000000        -1.109687178412295E-085
   77.9247000000000        -5.378119214366901E-086
   78.1641000000000         6.801161023546548E-086
   78.4035000000000         2.728787232059191E-085
   78.6429000000000         5.702070672055832E-085
   78.8823000000000         9.499687967722263E-085
   79.1217000000000         1.369564222111219E-084
   79.3611000000000         1.739387864594916E-084
   79.6005000000000         1.910300233586290E-084
   79.8399000000000         1.668214684300284E-084
   80.0793000000000         7.431506032247864E-085
   80.3187000000000        -1.158169349976045E-084
   80.5581000000000        -4.286620379441228E-084
   80.7975000000000        -8.744212839686048E-084
   81.0369000000000        -1.433480786983570E-083
   81.2763000000000        -2.038058387404905E-083
   81.5157000000000        -2.552939175282669E-083
   81.7551000000000        -2.760056293589508E-083
   81.9945000000000        -2.354322306760884E-083
   82.2339000000000        -9.607374284732936E-084
   82.4733000000000         1.815367184574097E-083
   82.7127000000000         6.293174416475845E-083
   82.9521000000000         1.256798174387165E-082
   83.1915000000000         2.030964580445556E-082
   83.4309000000000         2.852281376386653E-082
   83.6703000000000         3.530594415512475E-082
   83.9097000000000         3.767474579826572E-082
   84.1491000000000         3.154792210989537E-082
   84.3885000000000         1.202286659118381E-082
   84.6279000000000        -2.591381805665629E-082
   84.8673000000000        -8.610548806749421E-082
   85.1067000000000        -1.692920956807452E-081
   85.3461000000000        -2.705573730059485E-081
   85.5855000000000        -3.763816784570686E-081
   85.8249000000000        -4.617992197464320E-081
   86.0643000000000        -4.884999356335697E-081
   86.3037000000000        -4.050841333124955E-081
   86.5431000000000        -1.509929789760889E-081
   86.7825000000000         3.342221254361936E-081
   87.0219000000000         1.094827375783653E-080
   87.2613000000000         2.135298112580172E-080
   87.5007000000000         3.389892082705371E-080
   87.7401000000000         4.688430772220427E-080
   87.9795000000000         5.724488178667015E-080
   88.2189000000000         6.036011502175150E-080
   88.4583000000000         5.012342871079229E-080
   88.6977000000000         1.944736768289057E-080
   88.9371000000000        -3.861610989850516E-080
   89.1765000000000        -1.289907539065169E-079
   89.4159000000000        -2.518676993603501E-079
   89.6553000000000        -3.992839819256149E-079
   89.8947000000000        -5.513572219821900E-079
   90.1341000000000        -6.728911113597576E-079
   90.3735000000000        -7.114698401749716E-079
   90.6129000000000        -5.985593139467430E-079
   90.8523000000000        -2.554256114874233E-079
   91.0917000000000         3.942800049528664E-079
   91.3311000000000         1.403817449888910E-078
   91.5705000000000         2.774113291131126E-078
   91.8099000000000         4.417386618807207E-078
   92.0493000000000         6.117780102049062E-078
   92.2887000000000         7.496668194419967E-078
   92.5281000000000         7.994337388920873E-078
   92.7675000000000         6.883577365412162E-078
   93.0069000000000         3.333326626661592E-078
   93.2463000000000        -3.459573698849497E-078
   93.4857000000000        -1.405700284289671E-077
   93.7251000000000        -2.848185297364667E-077
   93.9645000000000        -4.585185001227541E-077
   94.2039000000000        -6.398766810040791E-077
   94.4433000000000        -7.907230388163850E-077
   94.6827000000000        -8.547670004461591E-077
   94.9221000000000        -7.590183777166403E-077
   95.1615000000000        -4.200977021943352E-077
   95.4009000000000         2.428825283684829E-077
   95.6403000000000         1.287652581814427E-076
   95.8797000000000         2.720176625807669E-076
   96.1191000000000         4.459702505099808E-076
   96.3585000000000         6.301576793678787E-076
   96.5979000000000         7.885060691393259E-076
   96.8373000000000         8.676798339696636E-076
   97.0767000000000         7.983677928827750E-076
   97.3161000000000         5.010668276432948E-076
   97.5555000000000        -1.021389673850238E-076
   97.7949000000000        -1.068747923276636E-075
   98.0343000000000        -2.409861456489265E-075
   98.2737000000000        -4.058529116569104E-075
   98.5131000000000        -5.836092397322431E-075
   98.7525000000000        -7.422915907093225E-075
   98.9919000000000        -8.342818096537491E-075
   99.2313000000000        -7.973112322404431E-075
   99.4707000000000        -5.593660554993592E-075
   99.7101000000000        -4.877256343749066E-076
   99.9495000000000         7.896441013879145E-075
   100.188900000000         1.972249042259543E-074
   100.428300000000         3.449375619355715E-074
   100.667700000000         5.076263353966252E-074
   100.907100000000         6.587463060358587E-074
   101.146500000000         7.582404479679378E-074
   101.385900000000         7.531924166168362E-074
   101.625300000000         5.816739773600306E-074
   101.864700000000         1.808338549648055E-074
   102.104100000000        -5.000354653629311E-074
   102.343500000000        -1.481367028340332E-073
   102.582900000000        -2.731084625833686E-073
   102.822300000000        -4.140665360965496E-073
   103.061700000000        -5.503653661103203E-073
   103.301100000000        -6.502644741682528E-073
   103.540500000000        -6.712393735095821E-073
   103.779900000000        -5.627640730336625E-073
   104.019300000000        -2.723875025396419E-073
   104.258700000000         2.443059584132636E-073
   104.498100000000         1.009749529678592E-072
   104.737500000000         2.007141465245317E-072
   104.976900000000         3.161645087465767E-072
   105.216300000000         4.323107736247774E-072
   105.455700000000         5.254756649199158E-072
   105.695100000000         5.633559790325836E-072
   105.934500000000         5.068662415093642E-072
   106.173900000000         3.144097790006429E-072
   106.413300000000        -5.096426384360897E-073
   106.652700000000        -6.114035049366209E-072
   106.892100000000        -1.361534754439907E-071
   107.131500000000        -2.254391281113021E-071
   107.370900000000        -3.188120508083311E-071
   107.610300000000        -3.996602452188153E-071
   107.849700000000        -4.447999090684149E-071
   108.089100000000        -4.255802778019668E-071
   108.328500000000        -3.106865209504326E-071
   108.567900000000        -7.098494796052412E-072
   108.807300000000         3.134735014634413E-071
   109.046700000000         8.445474365331008E-071
   109.286100000000         1.495968757486462E-070
   109.525500000000         2.203579419508334E-070
   109.764900000000         2.857925633794777E-070
   110.004300000000         3.301914018411957E-070
   110.243700000000         3.336638689047855E-070
   110.483100000000         2.738486003487619E-070
   110.722500000000         1.290006632060024E-070
   110.961900000000        -1.174379393895884E-070
   111.201300000000        -4.709140450565829E-070
   111.440700000000        -9.189460472960259E-070
   111.680100000000        -1.424283372194221E-069
   111.919500000000        -1.919359214728507E-069
   112.158900000000        -2.303769012251060E-069
   112.398300000000        -2.446796191397129E-069
   112.637700000000        -2.197049480809540E-069
   112.877100000000        -1.400941758050747E-069
   113.116500000000         6.909345318334195E-071
   113.355900000000         2.277171484266573E-069
   113.595300000000         5.179857413154573E-069
   113.834700000000         8.580475893874039E-069
   114.074100000000         1.208971618127920E-068
   114.313500000000         1.510310363367390E-068
   114.552900000000         1.680789985204346E-068
   114.792300000000         1.623257641530763E-068
   115.031700000000         1.235039132013692E-068
   115.271100000000         4.244028619354316E-069
   115.510500000000        -8.669817455886500E-069
   115.749900000000        -2.636878569129970E-068
   115.989300000000        -4.793396855986106E-068
   116.228700000000        -7.128459921387771E-068
   116.468100000000        -9.299976424418905E-068
   116.707500000000        -1.083017765608460E-067
   116.946900000000        -1.112814292427485E-067
   117.186300000000        -9.543874864162173E-068
   117.425700000000        -5.458958156897442E-068
   117.665100000000         1.585511501984322E-068
   117.904500000000         1.172954718806445E-067
   118.143900000000         2.461773262475266E-067
   118.383300000000         3.922962270914768E-067
   118.622700000000         5.375113450168188E-067
   118.862100000000         6.552934350529681E-067
   119.101500000000         7.115761889349783E-067
   119.340900000000         6.673612575138619E-067
   119.580300000000         4.834180370177172E-067
   119.819700000000         1.271986771826825E-067
   120.059100000000        -4.182541512076591E-067
   120.298500000000        -1.144088086640117E-066
   120.537900000000        -2.005336727077547E-066
   120.777300000000        -2.912328259360584E-066
   121.016700000000        -3.726114125970821E-066
   121.256100000000        -4.260551567554715E-066
   121.495500000000        -4.293678907361597E-066
   121.734900000000        -3.590561324445131E-066
   121.974300000000        -1.938732026810390E-066
   122.213700000000         8.043669721597864E-067
   122.453100000000         4.654920381083953E-066
   122.692500000000         9.443138180238677E-066
   122.931900000000         1.475956661714629E-065
   123.171300000000         1.991933037612904E-065
   123.410700000000         2.395849460186081E-065
   123.650100000000         2.567737604875975E-065
   123.889500000000         2.374396398823172E-065
   124.128900000000         1.686591883000212E-065
   124.368300000000         4.031402989235247E-066
   124.607700000000        -1.519283358145193E-065
   124.847100000000        -4.033265211303301E-065
   125.086500000000        -6.969039350870402E-065
   125.325900000000        -1.001014281814085E-064
   125.565300000000        -1.268368332607649E-064
   125.804700000000        -1.437321946346138E-064
   126.044100000000        -1.436181194827186E-064
   126.283500000000        -1.191087399744707E-064
   126.522900000000        -6.376725273629755E-065
   126.762300000000         2.638887278562732E-065
   127.001700000000         1.511544482955478E-064
   127.241100000000         3.043728343541489E-064
   127.480500000000         4.724293193835563E-064
   127.719900000000         6.333673258430738E-064
   127.959300000000         7.570422763123938E-064
   128.198700000000         8.067271783679983E-064
   128.438100000000         7.425124567595893E-064
   128.677500000000         5.266827205204230E-064
   128.916900000000         1.309951372244932E-064
   129.156300000000        -4.545693877888841E-064
   129.395700000000        -1.212439888478010E-063
   129.635100000000        -2.088794536197694E-063
   129.874500000000        -2.987358981403422E-063
   130.113900000000        -3.767734614307833E-063
   130.353300000000        -4.250427156266206E-063
   130.592700000000        -4.230521097234453E-063
   130.832100000000        -3.501299682161638E-063
   131.071500000000        -1.887978370863382E-063
   131.310900000000         7.099078610173975E-064
   131.550300000000         4.270976558212128E-063
   131.789700000000         8.605151595618280E-063
   132.029100000000         1.331560296643144E-062
   132.268500000000         1.777943646972587E-062
   132.507900000000         2.115804998061900E-062
   132.747300000000         2.244758839476697E-062
   132.986700000000         2.057750227391430E-062
   133.226100000000         1.456046111674692E-062
   133.465500000000         3.689640651007515E-063
   133.704900000000        -1.223010142413557E-062
   133.944300000000        -3.264175770742541E-062
   134.183700000000        -5.602251838328427E-062
   134.423100000000        -7.974319076293170E-062
   134.662500000000        -1.000534966688067E-061
   134.901900000000        -1.122464585868894E-061
   135.141300000000        -1.110468123850123E-061
   135.380700000000        -9.124932965352305E-062
   135.620100000000        -4.860195007973458E-062
   135.859500000000         1.911390221556448E-062
   136.098900000000         1.109050548344103E-061
   136.338300000000         2.214453558276870E-061
   136.577700000000         3.402187277971930E-061
   136.817100000000         4.511725208418791E-061
   137.056500000000         5.331406572983243E-061
   137.295900000000         5.612720397167138E-061
   137.535300000000         5.096273556028711E-061
   137.774700000000         3.549796966634986E-061
   138.014100000000         8.167065402059598E-062
   138.253500000000        -3.128578954883311E-061
   138.492900000000        -8.124957348729659E-061
   138.732300000000        -1.377755477474602E-060