  -1.79550000000000         0.000000000000000E+000
  -1.55610000000000         0.000000000000000E+000
  -1.31670000000000         0.000000000000000E+000
  -1.07730000000000         0.000000000000000E+000
 -0.837900000000000         0.000000000000000E+000
 -0.598500000000000         0.000000000000000E+000
 -0.359100000000000         0.000000000000000E+000
 -0.119700000000000         0.000000000000000E+000
  0.119700000000000         0.000000000000000E+000
  0.359100000000000         0.000000000000000E+000
  0.598500000000000         0.000000000000000E+000
  0.837900000000000         0.000000000000000E+000
   1.07730000000000         0.000000000000000E+000
   1.31670000000000         0.000000000000000E+000
   1.55610000000000         0.000000000000000E+000
   1.79550000000000         0.000000000000000E+000
   2.03490000000000         0.000000000000000E+000
   2.27430000000000         0.000000000000000E+000
   2.51370000000000         0.000000000000000E+000
   2.75310000000000         0.000000000000000E+000
   2.99250000000000         0.000000000000000E+000
   3.23190000000000         0.000000000000000E+000
   3.47130000000000         0.000000000000000E+000
   3.71070000000000         0.000000000000000E+000
   3.95010000000000         0.000000000000000E+000
   4.18950000000000         0.000000000000000E+000
   4.42890000000000         0.000000000000000E+000
   4.66830000000000         0.000000000000000E+000
   4.90770000000000         0.000000000000000E+000
   5.14710000000000         0.000000000000000E+000
   5.38650000000000         0.000000000000000E+000
   5.62590000000000         0.000000000000000E+000
   5.86530000000000         0.000000000000000E+000
   6.10470000000000         0.000000000000000E+000
   6.34410000000000         0.000000000000000E+000
   6.58350000000000         0.000000000000000E+000
   6.82290000000000         0.000000000000000E+000
   7.06230000000000         0.000000000000000E+000
   7.30170000000000         0.000000000000000E+000
   7.54110000000000         0.000000000000000E+000
   7.78050000000000         0.000000000000000E+000
   8.01990000000000         0.000000000000000E+000
   8.25930000000000         0.000000000000000E+000
   8.49870000000000         0.000000000000000E+000
   8.73810000000000         0.000000000000000E+000
   8.97750000000000         0.000000000000000E+000
   9.21690000000000         0.000000000000000E+000
   9.45630000000000        -2.429956458320020E-189
   9.69570000000000        -1.326456483315574E-177
   9.93510000000000        -6.655781036629412E-176
   10.1745000000000        -1.974062959799126E-173
   10.4139000000000        -2.751679156791107E-171
   10.6533000000000        -1.511808318271194E-169
   10.8927000000000        -4.728773974974095E-168
   11.1321000000000        -9.531978852755174E-167
   11.3715000000000        -1.207092735900230E-165
   11.6109000000000        -5.160762216348253E-165
   11.8503000000000         1.803787806272627E-163
   12.0897000000000         5.887082057543378E-162
   12.3291000000000         1.106069751339046E-160
   12.5685000000000         1.606701463545098E-159
   12.8079000000000         1.962414051624498E-158
   13.0473000000000         2.095990103033155E-157
   13.2867000000000         2.003331891947565E-156
   13.5261000000000         1.740219472683917E-155
   13.7655000000000         1.389448044703148E-154
   14.0049000000000         1.028595478478730E-153
   14.2443000000000         7.109515444482680E-153
   14.4837000000000         4.614559064465957E-152
   14.7231000000000         2.826366858962262E-151
   14.9625000000000         1.640409939264563E-150
   15.2019000000000         9.054985308620029E-150
   15.4413000000000         4.769090495571682E-149
   15.6807000000000         2.403511842462305E-148
   15.9201000000000         1.162106598793431E-147
   16.1595000000000         5.403270859102678E-147
   16.3989000000000         2.421099160747328E-146
   16.6383000000000         1.047543624277314E-145
   16.8777000000000         4.384588768209480E-145
   17.1171000000000         1.778359242999386E-144
   17.3565000000000         7.000524806200107E-144
   17.5959000000000         2.678577301653017E-143
   17.8353000000000         9.975671042026606E-143
   18.0747000000000         3.620842505940258E-142
   18.3141000000000         1.282442707882712E-141
   18.5535000000000         4.437375611045421E-141
   18.7929000000000         1.501558052163927E-140
   19.0323000000000         4.974190954854519E-140
   19.2717000000000         1.614625603219263E-139
   19.5111000000000         5.139976535022673E-139
   19.7505000000000         1.605923050100264E-138
   19.9899000000000         4.927844576965346E-138
   20.2293000000000         1.485963676369892E-137
   20.4687000000000         4.405344460009370E-137
   20.7081000000000         1.284459016405497E-136
   20.9475000000000         3.684000452692661E-136
   21.1869000000000         1.039456835867668E-135
   21.4263000000000         2.884982505322679E-135
   21.6657000000000         7.874505227570458E-135
   21.9051000000000         2.112844308010583E-134
   22.1445000000000         5.569542944765509E-134
   22.3839000000000         1.441251238438586E-133
   22.6233000000000         3.657584993160658E-133
   22.8627000000000         9.091591684471537E-133
   23.1021000000000         2.210013486002981E-132
   23.3415000000000         5.243203214980064E-132
   23.5809000000000         1.210956236946918E-131
   23.8203000000000         2.713293131608530E-131
   24.0597000000000         5.869681497302302E-131
   24.2991000000000         1.217286528516511E-130
   24.5385000000000         2.392742622818817E-130
   24.7779000000000         4.368715568828526E-130
   25.0173000000000         7.103163734833872E-130
   25.2567000000000         9.144618568930528E-130
   25.4961000000000         4.439844364066160E-130
   25.7355000000000        -2.589840066241461E-129
   25.9749000000000        -1.332194684226185E-128
   26.2143000000000        -4.451419904200107E-128
   26.4537000000000        -1.257456122322781E-127
   26.6931000000000        -3.215056162362842E-127
   26.9325000000000        -7.643597011548181E-127
   27.1719000000000        -1.710538250729019E-126
   27.4113000000000        -3.621687788955428E-126
   27.6507000000000        -7.258538178341482E-126
   27.8901000000000        -1.371941857359753E-125
   28.1295000000000        -2.423009654437973E-125
   28.3689000000000        -3.922647433165536E-125
   28.6083000000000        -5.577701472528911E-125
   28.8477000000000        -6.157609408978627E-125
   29.0871000000000        -2.260493981093432E-125
   29.3265000000000         1.395684714486392E-124
   29.5659000000000         5.848637234130484E-124
   29.8053000000000         1.606224470610241E-123
   30.0447000000000         3.682258207426099E-123
   30.2841000000000         7.484957693891464E-123
   30.5235000000000         1.373075320782734E-122
   30.7629000000000         2.265031570577675E-122
   31.0023000000000         3.269203103932416E-122
   31.2417000000000         3.791112584097095E-122
   31.4811000000000         2.348418652608826E-122
   31.7205000000000        -4.071354356361400E-122
   31.9599000000000        -2.068406884414511E-121
   32.1993000000000        -5.505581658977022E-121
   32.4387000000000        -1.154215164375624E-120
   32.6781000000000        -2.047256185912358E-120
   32.9175000000000        -3.066269119514308E-120
   33.1569000000000        -3.592347779014568E-120
   33.3963000000000        -2.152025694348812E-120
   33.6357000000000         4.020269883494867E-120
   33.8751000000000         1.908397869446499E-119
   34.1145000000000         4.743977506725559E-119
   34.3539000000000         8.952298721921010E-119
   34.5933000000000         1.316492601467482E-118
   34.8327000000000         1.263619317703165E-118
   35.0721000000000        -3.871210645667937E-119
   35.3115000000000        -5.779350259064010E-118
   35.5509000000000        -1.824777469427000E-117
   35.7903000000000        -4.159941357428749E-117
   36.0297000000000        -7.704053220070324E-117
   36.2691000000000        -1.151189610795986E-116
   36.5085000000000        -1.186963097623391E-116
   36.7479000000000         7.750371337422899E-118
   36.9873000000000         4.651893843440531E-116
   37.2267000000000         1.617202231751694E-115
   37.4661000000000         4.027856824866391E-115
   37.7055000000000         8.402962407825049E-115
   37.9449000000000         1.527266344282713E-114
   38.1843000000000         2.412510927215280E-114
   38.4237000000000         3.154373599477944E-114
   38.6631000000000         2.778069536736784E-114
   38.9025000000000        -8.716476118455098E-115
   39.1419000000000        -1.186826588739946E-113
   39.3813000000000        -3.694351687375626E-113
   39.6207000000000        -8.567224910710381E-113
   39.8601000000000        -1.688825997863051E-112
   40.0995000000000        -2.930477501850632E-112
   40.3389000000000        -4.470902393243209E-112
   40.5783000000000        -5.767813626018571E-112
   40.8177000000000        -5.417401816252552E-112
   41.0571000000000        -5.293591494573948E-113
   41.2965000000000         1.402004199474103E-111
   41.5359000000000         4.617494360417805E-111
   41.7753000000000         1.064619474417645E-110
   42.0147000000000         2.056579806315047E-110
   42.2541000000000         3.482857117456343E-110
   42.4935000000000         5.190154145597495E-110
   42.7329000000000         6.586435894014186E-110
   42.9723000000000         6.272937835288403E-110
   43.2117000000000         1.564552518127910E-110
   43.4511000000000        -1.199224300639935E-109
   43.6905000000000        -4.082058583109657E-109
   43.9299000000000        -9.267205176005451E-109
   44.1693000000000        -1.742025919683940E-108
   44.4087000000000        -2.854115211449106E-108
   44.6481000000000        -4.093268650227729E-108
   44.8875000000000        -4.955836106570162E-108
   45.1269000000000        -4.379609298210012E-108
   45.3663000000000        -4.942459088859648E-109
   45.6057000000000         9.551672566966256E-108
   45.8451000000000         2.947905925384581E-107
   46.0845000000000         6.312826614792449E-107
   46.3239000000000         1.125534320302581E-106
   46.5633000000000         1.743276224244400E-106
   46.8027000000000         2.334835467382631E-106
   47.0421000000000         2.549617636001803E-106
   47.2815000000000         1.735790358551528E-106
   47.5209000000000        -1.142745952401495E-106
   47.7603000000000        -7.504419511721672E-106
   47.9997000000000        -1.894590815914243E-105
   48.2391000000000        -3.666182917387060E-105
   48.4785000000000        -6.026866015654780E-105
   48.7179000000000        -8.581770253154996E-105
   48.9573000000000        -1.029003837691409E-104
   49.1967000000000        -9.107464848580245E-105
   49.4361000000000        -1.648694238365516E-105
   49.6755000000000         1.693637256218765E-104
   49.9149000000000         5.252361023040492E-104
   50.1543000000000         1.104777405264031E-103
   50.3937000000000         1.923072987305283E-103
   50.6331000000000         2.897367780456751E-103
   50.8725000000000         3.756376025700630E-103
   51.1119000000000         3.920140926572464E-103
   51.3513000000000         2.368689556232039E-103
   51.5907000000000        -2.453623768528624E-103
   51.8301000000000        -1.260754005705117E-102
   52.0695000000000        -3.035356413980491E-102
   52.3089000000000        -5.735879551346728E-102
   52.5483000000000        -9.315168867758667E-102
   52.7877000000000        -1.325613858632108E-101
   53.0271000000000        -1.619945884582323E-101
   53.2665000000000        -1.547263731805198E-101
   53.5059000000000        -6.602789146544806E-102
   53.7453000000000         1.699545765109832E-101
   53.9847000000000         6.380328555937153E-101
   54.2241000000000         1.428863210962412E-100
   54.4635000000000         2.606872280066104E-100
   54.7029000000000         4.149311493329663E-100
   54.9423000000000         5.846419990477168E-100
   55.1817000000000         7.156568979845238E-100
   55.4211000000000         7.021418735210661E-100
   55.6605000000000         3.668807114027034E-100
   55.8999000000000        -5.529945486552238E-100
   56.1393000000000        -2.402249466595501E-099
   56.3787000000000        -5.565217231127475E-099
   56.6181000000000        -1.035506664276890E-098
   56.8575000000000        -1.679646960177069E-098
   57.0969000000000        -2.426052802854093E-098
   57.3363000000000        -3.092113463487750E-098
   57.5757000000000        -3.303742897350836E-098
   57.8151000000000        -2.414373355492622E-098
   58.0545000000000         5.635089307762338E-099
   58.2939000000000         6.971205965999800E-098
   58.5333000000000         1.838854216061064E-097
   58.7727000000000         3.628275492139842E-097
   59.0121000000000         6.128015086758993E-097
   59.2515000000000         9.190279730375155E-097
   59.4909000000000         1.226409022725737E-096
   59.7303000000000         1.413463257058392E-096
   59.9697000000000         1.261895369198970E-096
   60.2091000000000         4.288454864605914E-097
   60.4485000000000        -1.563923272299014E-096
   60.6879000000000        -5.299724895909567E-096
   60.9273000000000        -1.135960073546202E-095
   61.1667000000000        -2.009096097740171E-095
   61.4061000000000        -3.120024679076911E-095
   61.6455000000000        -4.312752041014595E-095
   61.8849000000000        -5.219868343853646E-095
   62.1243000000000        -5.163337724240755E-095
   62.3637000000000        -3.063123984046455E-095
   62.6031000000000         2.602097017710987E-095
   62.8425000000000         1.370859857527417E-094
   63.0819000000000         3.216880918022728E-094
   63.3213000000000         5.924442434130455E-094
   63.5607000000000         9.434743995944677E-094
   63.8001000000000         1.332226736470585E-093
   64.0395000000000         1.655240352966048E-093
   64.2789000000000         1.720387260915225E-093
   64.5183000000000         1.222188514721031E-093
   64.7577000000000        -2.673031410653891E-094
   64.9971000000000        -3.272079562092910E-093
   65.2365000000000        -8.322293898865677E-093
   65.4759000000000        -1.576705461364326E-092
   65.7153000000000        -2.545635432935645E-092
   65.9547000000000        -3.627152134462880E-092
   66.1941000000000        -4.551733370002440E-092
   66.4335000000000        -4.825248109434336E-092
   66.6729000000000        -3.673563514324428E-092
   66.9123000000000        -3.031407433612339E-094
   67.1517000000000         7.384014773384179E-092
   67.3911000000000         1.982754327743392E-091
   67.6305000000000         3.807364907437462E-091
   67.8699000000000         6.165302584838082E-091
   68.1093000000000         8.777348458390982E-091
   68.3487000000000         1.099750529244999E-090
   68.5881000000000         1.167263310263925E-090
   68.8275000000000         9.038925891089144E-091
   69.0669000000000         7.267048426553767E-092
   69.3063000000000        -1.602313774276591E-090
   69.5457000000000        -4.380072284510940E-090
   69.7851000000000        -8.398820705780195E-090
   70.0245000000000        -1.351326023742360E-089
   70.2639000000000        -1.907193285173688E-089
   70.5033000000000        -2.365264933182478E-089
   70.7427000000000        -2.480492940781016E-089
   70.9821000000000        -1.889178921000894E-089
   71.2215000000000        -1.176098610858419E-090
   71.4609000000000         3.364972940985721E-089
   71.7003000000000         9.025488372038312E-089
   71.9397000000000         1.705529342009980E-088
   72.1791000000000         2.705348859027359E-088
   72.4185000000000         3.761248744131954E-088
   72.6579000000000         4.585141407330850E-088
   72.8973000000000         4.700092679307041E-088
   73.1367000000000         3.421962292894019E-088
   73.3761000000000        -1.090956949469641E-089
   73.6155000000000        -6.812732134069746E-088
   73.8549000000000        -1.742982856454781E-087
   74.0943000000000        -3.212814950108424E-087
   74.3337000000000        -4.993935202246277E-087
   74.5731000000000        -6.805649363952121E-087
   74.8125000000000        -8.109062406408867E-087
   75.0519000000000        -8.048381481166687E-087
   75.2913000000000        -5.439837803461111E-087
   75.5307000000000         1.146991038184269E-087
   75.7701000000000         1.316080889377160E-086
   76.0095000000000         3.163717022990734E-086
   76.2489000000000         5.652278210445814E-086
   76.4883000000000         8.575440661749412E-086
   76.7277000000000         1.141655867319975E-085
   76.9671000000000         1.324090843784265E-085
   77.2065000000000         1.262366424669012E-085
   77.4459000000000         7.665626772445952E-086
   77.6853000000000        -3.834282567490345E-086
   77.9247000000000        -2.397047281606397E-085
   78.1641000000000        -5.401188514045425E-085
   78.4035000000000        -9.333033017440936E-085
   78.6429000000000        -1.380036841473764E-084
   78.8823000000000        -1.792414518117690E-084
   79.1217000000000        -2.019540838713980E-084
   79.3611000000000        -1.840077713172575E-084
   79.6005000000000        -9.694569756565082E-085
   79.8399000000000         9.084030751866951E-085
   80.0793000000000         4.074258557405857E-084
   80.3187000000000         8.662660607192026E-084
   80.5581000000000         1.450378208447963E-083
   80.7975000000000         2.092582992345964E-083
   81.0369000000000         2.654363459687215E-083
   81.2763000000000         2.908338145162608E-083
   81.5157000000000         2.532271309464199E-083
   81.7551000000000         1.125503090856240E-083
   81.9945000000000        -1.739144322261889E-083
   82.2339000000000        -6.414773894417847E-083
   82.4733000000000        -1.302139975677091E-082
   82.7127000000000        -2.122771019385962E-082
   82.9521000000000        -2.998888446961950E-082
   83.1915000000000        -3.727993814140655E-082
   83.4309000000000        -3.989582875030564E-082
   83.6703000000000        -3.342577461607174E-082
   83.9097000000000        -1.254324106210641E-082
   84.1491000000000         2.822628061775467E-082
   84.3885000000000         9.310601993207993E-082
   84.6279000000000         1.829406717263684E-081
   84.8673000000000         2.923713328940827E-081
   85.1067000000000         4.065564691270255E-081
   85.3461000000000         4.979898383448098E-081
   85.5855000000000         5.243527886890696E-081
   85.8249000000000         4.287583581036956E-081
   86.0643000000000         1.441095270942079E-081
   86.3037000000000        -3.965347667829880E-081
   86.5431000000000        -1.241902322450105E-080
   86.7825000000000        -2.395889054530301E-080
   87.0219000000000        -3.783148160436028E-080
   87.2613000000000        -5.210284314901118E-080
   87.5007000000000        -6.329686646397332E-080
   87.7401000000000        -6.617446751392214E-080
   87.9795000000000        -5.381394640116817E-080
   88.2189000000000        -1.818971125163517E-080
   88.4583000000000         4.854161899752506E-080
   88.6977000000000         1.518727322812228E-079
   88.9371000000000         2.918232008704853E-079
   89.1765000000000         4.589866144257648E-079
   89.4159000000000         6.301715592282728E-079
   89.6553000000000         7.644641139097974E-079
   89.8947000000000         8.010139586879751E-079
   90.1341000000000         6.603202701307834E-079
   90.3735000000000         2.511468631413733E-079
   90.6129000000000        -5.147439161752142E-079
   90.8523000000000        -1.698298634597897E-078
   91.0917000000000        -3.298776562793747E-078
   91.3311000000000        -5.210854101899704E-078
   91.5705000000000        -7.178050028058819E-078
   91.8099000000000        -8.751496984234545E-078
   92.0493000000000        -9.267905103605304E-078
   92.2887000000000        -7.865223251595810E-078
   92.5281000000000        -3.557748885160599E-078
   92.7675000000000         4.607468991119351E-078
   93.0069000000000         1.729626427034015E-077
   93.2463000000000         3.453102658477780E-077
   93.4857000000000         5.525044837028952E-077
   93.7251000000000         7.683560601670748E-077
   93.9645000000000         9.469395318117381E-077
   94.2039000000000         1.020392250459341E-076
   94.4433000000000         9.004898001487326E-077
   94.6827000000000         4.861036480148149E-077
   94.9221000000000        -3.213777267101205E-077
   95.1615000000000        -1.593116268368670E-076
   95.4009000000000        -3.338074097033032E-076
   95.6403000000000        -5.460249079255083E-076
   95.8797000000000        -7.712734190064832E-076
   96.1191000000000        -9.657273699295583E-076
   96.3585000000000        -1.064223591255778E-075
   96.5979000000000        -9.815852425391880E-076
   96.8373000000000        -6.194078959792727E-076
   97.0767000000000         1.197955012268903E-076
   97.3161000000000         1.309693115657318E-075
   97.5555000000000         2.968208476390841E-075
   97.7949000000000         5.018194748687295E-075
   98.0343000000000         7.245024571346366E-075
   98.2737000000000         9.258779823505506E-075
   98.5131000000000         1.047242261884951E-074
   98.7525000000000         1.011071864291798E-074
   98.9919000000000         7.266817459793521E-075
   99.2313000000000         1.023034220867741E-075
   99.4707000000000        -9.351896472281228E-075
   99.7101000000000        -2.412640389598205E-074
   99.9495000000000        -4.276373715692101E-074
   100.188900000000        -6.354944804320107E-074
   100.428300000000        -8.325250013194621E-074
   100.667700000000        -9.691446200228361E-074
   100.907100000000        -9.788932003655159E-074
   101.146500000000        -7.827428252934817E-074
   101.385900000000        -2.986966446927623E-074
   101.625300000000         5.422767463803435E-074
   101.864700000000         1.773687020234066E-073
   102.104100000000         3.365318027975551E-073
   102.343500000000         5.192129977850537E-073
   102.582900000000         7.005236722615269E-073
   102.822300000000         8.412350372958813E-073
   103.061700000000         8.877318284141552E-073
   103.301100000000         7.749835782851332E-073
   103.540500000000         4.336353996454479E-073
   103.779900000000        -1.979228306439331E-073
   104.019300000000        -1.156211187981178E-072
   104.258700000000        -2.430679704353940E-072
   104.498100000000        -3.939065404417489E-072
   104.737500000000        -5.503718419008832E-072
   104.976900000000        -6.834355334038383E-072
   105.216300000000        -7.524401045195622E-072
   105.455700000000        -7.069239343137157E-072
   105.695100000000        -4.914769493461237E-072
   105.934500000000        -5.430552941838122E-073
   106.173900000000         6.402031020898999E-072
   106.413300000000         1.595285858199567E-071
   106.652700000000         2.763287866758452E-071
   106.892100000000         4.027317427233928E-071
   107.131500000000         5.186875397679257E-071
   107.370900000000         5.952506979843651E-071
   107.610300000000         5.955413174201803E-071
   107.849700000000         4.778125648042494E-071
   108.089100000000         2.011377225901427E-071
   108.328500000000        -2.660212964806339E-071
   108.567900000000        -9.345380389896129E-071
   108.807300000000        -1.781442290430246E-070
   109.046700000000        -2.736441204210422E-070
   109.286100000000        -3.670642676923692E-070
   109.525500000000        -4.390852792523877E-070
   109.764900000000        -4.643474280606532E-070
   110.004300000000        -4.132233881929528E-070
   110.243700000000        -2.553441491319846E-070
   110.483100000000         3.490341152771833E-071
   110.722500000000         4.709606754748527E-070
   110.961900000000         1.045216175418722E-069
   111.201300000000         1.719626383982241E-069
   111.440700000000         2.417391929538468E-069
   111.680100000000         3.017824070267016E-069
   111.919500000000         3.356997698405655E-069
   112.158900000000         3.236980208983158E-069
   112.398300000000         2.446180084202224E-069
   112.637700000000         7.925053597948754E-070
   112.877100000000        -1.850576048676548E-069
   113.116500000000        -5.487385456591892E-069
   113.355900000000        -9.938248150078143E-069
   113.595300000000        -1.478168104352092E-068
   113.834700000000        -1.931337236126113E-068
   114.074100000000        -2.253787305984841E-068
   114.313500000000        -2.321052951293419E-068
   114.552900000000        -1.994628576209443E-068
   114.792300000000        -1.140753595224467E-068
   115.031700000000         3.425649694385724E-069
   115.271100000000         2.491331613185095E-068
   115.510500000000         5.237014528086121E-068
   115.749900000000         8.368712781600697E-068
   115.989300000000         1.150334636604784E-067
   116.228700000000         1.407316347580084E-067
   116.468100000000         1.534106817303145E-067
   116.707500000000         1.445411591397912E-067
   116.946900000000         1.054339629861455E-067
   117.186300000000         2.873895227998544E-068
   117.425700000000        -8.959508572978625E-068
   117.665100000000        -2.480394409972015E-067
   117.904500000000        -4.371472075700775E-067
   118.143900000000        -6.375539200485628E-067
   118.383300000000        -8.188347672755676E-067
   118.622700000000        -9.398195092832143E-067
   118.862100000000        -9.509791974364216E-067
   119.101500000000        -7.994068794301909E-067
   119.340900000000        -4.366866692582252E-067
   119.580300000000         1.704385517875534E-067
   119.819700000000         1.027232401946892E-066
   120.059100000000         2.097268136373309E-066
   120.298500000000         3.289917584105116E-066
   120.537900000000         4.451784761047382E-066
   120.777300000000         5.365380467201762E-066
   121.016700000000         5.758524780826086E-066
   121.256100000000         5.327619846963140E-066
   121.495500000000         3.776879464157105E-066
   121.734900000000         8.737072140217234E-067
   121.974300000000        -3.482353305936453E-066
   122.213700000000        -9.183208885383721E-066
   122.453100000000        -1.583847712844132E-065
   122.692500000000        -2.271854430353135E-065
   122.931900000000        -2.873181333220377E-065
   123.171300000000        -3.245517071701112E-065
   123.410700000000        -3.223570801331391E-065
   123.650100000000        -2.637713892907971E-065
   123.889500000000        -1.341539669905871E-065
   124.128900000000         7.525745652968418E-066
   124.368300000000         3.632615812191264E-065
   124.607700000000         7.145608719075673E-065
   124.847100000000         1.096280035835782E-064
   125.086500000000         1.456023407506208E-064
   125.325900000000         1.722474964318843E-064
   125.565300000000         1.809535721419523E-064
   125.804700000000         1.624807158892120E-064
   126.044100000000         1.082822444638341E-064
   126.283500000000         1.227756329447850E-065
   126.522900000000        -1.270388763043052E-064
   126.762300000000        -3.043734166715593E-064
   127.001700000000        -5.056292539420154E-064
   127.241100000000        -7.065635618999938E-064
   127.480500000000        -8.726205661684086E-064
   127.719900000000        -9.604719077841547E-064
   127.959300000000        -9.217271176864648E-064
   128.198700000000        -7.090992483528850E-064
   128.438100000000        -2.850079992646357E-064
   128.677500000000         3.678256725175293E-064
   128.916900000000         1.234772712971063E-063
   129.156300000000         2.258246660773673E-063
   129.395700000000         3.329351679897690E-063
   129.635100000000         4.284810343669670E-063
   129.874500000000         4.911938488080573E-063
   130.113900000000         4.964220929583357E-063
   130.353300000000         4.189298455624952E-063
   130.592700000000         2.369807691506579E-063
   130.832100000000        -6.245069120143020E-064
   131.071500000000        -4.777593202894495E-063
   131.310900000000        -9.867969633757557E-063
   131.550300000000        -1.541985514851163E-062
   131.789700000000        -2.067725161287796E-062
   132.029100000000        -2.461509285212313E-062
   132.268500000000        -2.600116358363205E-062
   132.507900000000        -2.351956312391846E-062
   132.747300000000        -1.596048993180889E-062
   132.986700000000        -2.471795352974749E-063
   133.226100000000         1.714469910685817E-062
   133.465500000000         4.212388640684480E-062
   133.704900000000         7.046233605429275E-062
   133.944300000000         9.873874015319326E-062
   134.183700000000         1.221003740619772E-061
   134.423100000000         1.344873205142485E-061
   134.662500000000         1.291557479820736E-061
   134.901900000000         9.953633530282133E-062
   135.141300000000         4.042216527156714E-062
   135.380700000000        -5.057770718235456E-062
   135.620100000000        -1.714541905341528E-061
   135.859500000000        -3.142968349338916E-061
   136.098900000000        -4.641628074083150E-061
   136.338300000000        -5.986602259243591E-061
   136.577700000000        -6.886117986113731E-061
   136.817100000000        -7.001341154250308E-061
   137.056500000000        -5.983685323059972E-061
   137.295900000000        -3.529199480222762E-061
   137.535300000000         5.520272101300033E-062
   137.774700000000         6.256857350814101E-061
   138.014100000000         1.330972172692716E-060
   138.253500000000         2.109591615902694E-060
   138.492900000000         2.862384569518657E-060
   138.732300000000         3.453429418372657E-060