  -1.79550000000000         0.000000000000000E+000
  -1.55610000000000         0.000000000000000E+000
  -1.31670000000000         0.000000000000000E+000
  -1.07730000000000         0.000000000000000E+000
 -0.837900000000000         0.000000000000000E+000
 -0.598500000000000         0.000000000000000E+000
 -0.359100000000000         0.000000000000000E+000
 -0.119700000000000         0.000000000000000E+000
  0.119700000000000         0.000000000000000E+000
  0.359100000000000         0.000000000000000E+000
  0.598500000000000         0.000000000000000E+000
  0.837900000000000         0.000000000000000E+000
   1.07730000000000         0.000000000000000E+000
   1.31670000000000         0.000000000000000E+000
   1.55610000000000         0.000000000000000E+000
   1.79550000000000         0.000000000000000E+000
   2.03490000000000         0.000000000000000E+000
   2.27430000000000         0.000000000000000E+000
   2.51370000000000         0.000000000000000E+000
   2.75310000000000         0.000000000000000E+000
   2.99250000000000         0.000000000000000E+000
   3.23190000000000         0.000000000000000E+000
   3.47130000000000         0.000000000000000E+000
   3.71070000000000         0.000000000000000E+000
   3.95010000000000         0.000000000000000E+000
   4.18950000000000         0.000000000000000E+000
   4.42890000000000         0.000000000000000E+000
   4.66830000000000         0.000000000000000E+000
   4.90770000000000         0.000000000000000E+000
   5.14710000000000         0.000000000000000E+000
   5.38650000000000         0.000000000000000E+000
   5.62590000000000         0.000000000000000E+000
   5.86530000000000         0.000000000000000E+000
   6.10470000000000         0.000000000000000E+000
   6.34410000000000         0.000000000000000E+000
   6.58350000000000         0.000000000000000E+000
   6.82290000000000         0.000000000000000E+000
   7.06230000000000         0.000000000000000E+000
   7.30170000000000         0.000000000000000E+000
   7.54110000000000         0.000000000000000E+000
   7.78050000000000         0.000000000000000E+000
   8.01990000000000         0.000000000000000E+000
   8.25930000000000         0.000000000000000E+000
   8.49870000000000         0.000000000000000E+000
   8.73810000000000         0.000000000000000E+000
   8.97750000000000         0.000000000000000E+000
   9.21690000000000         0.000000000000000E+000
   9.45630000000000        -3.724249226639981E-190
   9.69570000000000         1.274672731142959E-177
   9.93510000000000        -2.474870098706734E-175
   10.1745000000000        -7.652284502310755E-175
   10.4139000000000         5.051588330747068E-171
   10.6533000000000         4.098245860421917E-169
   10.8927000000000         1.721033279907734E-167
   11.1321000000000         4.917618894961596E-166
   11.3715000000000         1.070087525040708E-164
   11.6109000000000         1.888011779328926E-163
   11.8503000000000         2.812258671846284E-162
   12.0897000000000         3.638659341258472E-161
   12.3291000000000         4.177658379601077E-160
   12.5685000000000         4.327895812229623E-159
   12.8079000000000         4.100147378415114E-158
   13.0473000000000         3.591350126555870E-157
   13.2867000000000         2.934603882119786E-156
   13.5261000000000         2.253446345256001E-155
   13.7655000000000         1.635664150677065E-154
   14.0049000000000         1.127422809102947E-153
   14.2443000000000         7.405554597522514E-153
   14.4837000000000         4.647931937003978E-152
   14.7231000000000         2.792882961157660E-151
   14.9625000000000         1.609092841330856E-150
   15.2019000000000         8.899021403132790E-150
   15.4413000000000         4.728674437467352E-149
   15.6807000000000         2.416126261561501E-148
   15.9201000000000         1.187950050765247E-147
   16.1595000000000         5.624348369053912E-147
   16.3989000000000         2.565820079362508E-146
   16.6383000000000         1.128578643321937E-145
   16.8777000000000         4.788991373638667E-145
   17.1171000000000         1.961528018325153E-144
   17.3565000000000         7.758590141122806E-144
   17.5959000000000         2.964596712465973E-143
   17.8353000000000         1.094568801547738E-142
   18.0747000000000         3.905178987680710E-142
   18.3141000000000         1.346129065047747E-141
   18.5535000000000         4.481003063599195E-141
   18.7929000000000         1.439189788063004E-140
   19.0323000000000         4.453115270546722E-140
   19.2717000000000         1.324245141089954E-139
   19.5111000000000         3.770212714149195E-139
   19.7505000000000         1.021269566297591E-138
   19.9899000000000         2.603955991012921E-138
   20.2293000000000         6.125205215965922E-138
   20.4687000000000         1.272320772245834E-137
   20.7081000000000         2.054245033689110E-137
   20.9475000000000         1.006906848426649E-137
   21.1869000000000        -1.114545458147721E-136
   21.4263000000000        -6.984462583761066E-136
   21.6657000000000        -2.959810729628415E-135
   21.9051000000000        -1.072165720717033E-134
   22.1445000000000        -3.542972413787362E-134
   22.3839000000000        -1.097783998203460E-133
   22.6233000000000        -3.234852740098825E-133
   22.8627000000000        -9.139476655352387E-133
   23.1021000000000        -2.488243441863875E-132
   23.3415000000000        -6.548492302744005E-132
   23.5809000000000        -1.669229233969588E-131
   23.8203000000000        -4.125627387759418E-131
   24.0597000000000        -9.890880830867396E-131
   24.2991000000000        -2.299587401149995E-130
   24.5385000000000        -5.180292876445753E-130
   24.7779000000000        -1.128868012441728E-129
   25.0173000000000        -2.373505305587594E-129
   25.2567000000000        -4.795833572415798E-129
   25.4961000000000        -9.255020138619269E-129
   25.7355000000000        -1.688768073596163E-128
   25.9749000000000        -2.862676779352021E-128
   26.2143000000000        -4.350465606563636E-128
   26.4537000000000        -5.409408674515817E-128
   26.6931000000000        -3.592830225796512E-128
   26.9325000000000         7.448847255776956E-128
   27.1719000000000         4.208750322650073E-127
   27.4113000000000         1.295641910712298E-126
   27.6507000000000         3.235476817057316E-126
   27.8901000000000         7.112719484535837E-126
   28.1295000000000         1.410887252899379E-125
   28.3689000000000         2.527563445226062E-125
   28.6083000000000         4.004427964248050E-125
   28.8477000000000         5.248034166270043E-125
   29.0871000000000         4.333937450612015E-125
   29.3265000000000        -3.458480775650914E-125
   29.5659000000000        -2.796171928142648E-124
   29.8053000000000        -8.700952226578090E-124
   30.0447000000000        -2.082724636554543E-123
   30.2841000000000        -4.253175795317284E-123
   30.5235000000000        -7.571826495740834E-123
   30.7629000000000        -1.150898410903176E-122
   31.0023000000000        -1.353300210633539E-122
   31.2417000000000        -6.676608648135847E-123
   31.4811000000000         2.441385895408307E-122
   31.7205000000000         1.086785507831046E-121
   31.9599000000000         2.929701156623861E-121
   32.1993000000000         6.393096494542316E-121
   32.4387000000000         1.201540564445667E-120
   32.6781000000000         1.957151999308991E-120
   32.9175000000000         2.659281002083467E-120
   33.1569000000000         2.574551514811019E-120
   33.3963000000000         1.119112228707654E-121
   33.6357000000000        -7.520765140434634E-120
   33.8751000000000        -2.418613969534874E-119
   34.1145000000000        -5.317251205066400E-119
   34.3539000000000        -9.204584731505027E-119
   34.5933000000000        -1.208379479880427E-118
   34.8327000000000        -7.968528058410567E-119
   35.0721000000000         1.664280492725329E-118
   35.3115000000000         8.705185389867704E-118
   35.5509000000000         2.428121215855587E-117
   35.7903000000000         5.313759529830469E-117
   36.0297000000000         9.781031322381425E-117
   36.2691000000000         1.505887935069499E-116
   36.5085000000000         1.763543936211471E-116
   36.7479000000000         8.135550790867109E-117
   36.9873000000000        -3.353498470604272E-116
   37.2267000000000        -1.442899130756427E-115
   37.4661000000000        -3.825782375597814E-115
   37.7055000000000        -8.246435778441140E-115
   37.9449000000000        -1.537428705265834E-114
   38.1843000000000        -2.501468740260359E-114
   38.4237000000000        -3.442901789983373E-114
   38.6631000000000        -3.523323102595722E-114
   38.9025000000000        -8.450774414747663E-115
   39.1419000000000         8.211866124401012E-114
   39.3813000000000         2.964632887921345E-113
   39.6207000000000         7.197952815511258E-113
   39.8601000000000         1.447981389334854E-112
   40.0995000000000         2.537341481916244E-112
   40.3389000000000         3.888383645386375E-112
   40.5783000000000         5.024056333382526E-112
   40.8177000000000         4.725362504453172E-112
   41.0571000000000         5.189043296091188E-113
   41.2965000000000        -1.189813544057793E-111
   41.5359000000000        -3.901881792044021E-111
   41.7753000000000        -8.906027774746021E-111
   42.0147000000000        -1.695523424926081E-110
   42.2541000000000        -2.812317315010617E-110
   42.4935000000000        -4.059316057178270E-110
   42.7329000000000        -4.861340403285845E-110
   42.9723000000000        -3.952559932353433E-110
   43.2117000000000         9.801472323752080E-111
   43.4511000000000         1.359012014385066E-109
   43.6905000000000         3.881897809131792E-109
   43.9299000000000         8.198185047216477E-109
   44.1693000000000         1.461751119807426E-108
   44.4087000000000         2.269187616626325E-108
   44.6481000000000         3.028916765402420E-108
   44.8875000000000         3.221461015931354E-108
   45.1269000000000         1.848668024977494E-108
   45.3663000000000        -2.726749859530578E-108
   45.6057000000000        -1.282045700103884E-107
   45.8451000000000        -3.114129008153581E-107
   46.0845000000000        -5.986010088243377E-107
   46.3239000000000        -9.859859139854032E-107
   46.5633000000000        -1.408669831735835E-106
   46.8027000000000        -1.686451977880804E-106
   47.0421000000000        -1.453688016583266E-106
   47.2815000000000        -8.809200067131721E-108
   47.5209000000000         3.324982598112664E-106
   47.7603000000000         9.923604763589480E-106
   47.9997000000000         2.078464283307662E-105
   48.2391000000000         3.627028422308141E-105
   48.4785000000000         5.483112772629494E-105
   48.7179000000000         7.112935898414361E-105
   48.9573000000000         7.350365973640149E-105
   49.1967000000000         4.115709418904076E-105
   49.4361000000000        -5.789981730650495E-105
   49.6755000000000        -2.661097281314026E-104
   49.9149000000000        -6.294428105224914E-104
   50.1543000000000        -1.179407038660305E-103
   50.3937000000000        -1.898011647419625E-103
   50.6331000000000        -2.659983737568305E-103
   50.8725000000000        -3.149842924876618E-103
   51.1119000000000        -2.760077273201409E-103
   51.3513000000000        -4.934330203970819E-104
   51.5907000000000         5.080114458262590E-103
   51.8301000000000         1.572160973916409E-102
   52.0695000000000         3.313753240894253E-102
   52.3089000000000         5.812266163855064E-102
   52.5483000000000         8.901669575600051E-102
   52.7877000000000         1.192927517710040E-101
   53.0271000000000         1.342475180548008E-101
   53.2665000000000         1.071139461240092E-101
   53.5059000000000        -4.437004558839463E-103
   53.7453000000000        -2.594108947164911E-101
   53.9847000000000        -7.287782772196177E-101
   54.2241000000000        -1.479717636331479E-100
   54.4635000000000        -2.541819361182909E-100
   54.7029000000000        -3.847219159660396E-100
   54.9423000000000        -5.137645551553884E-100
   55.1817000000000        -5.836516455054498E-100
   55.4211000000000        -4.896425340901482E-100
   55.6605000000000        -6.552154651522481E-101
   55.8999000000000         9.229018734158105E-100
   56.1393000000000         2.764003036866937E-099
   56.3787000000000         5.747038872001394E-099
   56.6181000000000         1.004284142546225E-098
   56.8575000000000         1.548676918105825E-098
   57.0969000000000         2.123360050486431E-098
   57.3363000000000         2.526975509912162E-098
   57.5757000000000         2.380922503435545E-098
   57.8151000000000         1.067987924886409E-098
   58.0545000000000        -2.305889407025342E-098
   58.2939000000000        -8.882777430455058E-098
   58.5333000000000        -1.988706088158620E-097
   58.7727000000000        -3.622479827322854E-097
   59.0121000000000        -5.772794120282390E-097
   59.2515000000000        -8.192415666300188E-097
   59.4909000000000        -1.022642777650803E-096
   59.7303000000000        -1.058802608150472E-096
   59.9697000000000        -7.122576008811448E-097
   60.2091000000000         3.358149909533362E-097
   60.4485000000000         2.502111916319169E-096
   60.6879000000000         6.249820899274614E-096
   60.9273000000000         1.195808892382853E-095
   61.1667000000000         1.967216194315596E-095
   61.4061000000000         2.869526427726375E-095
   61.6455000000000         3.700163143715731E-095
   61.8849000000000         4.049776730204478E-095
   62.1243000000000         3.225027830475854E-095
   62.3637000000000         1.946570763328997E-096
   62.6031000000000        -6.393561952418283E-095
   62.8425000000000        -1.805161417406850E-094
   63.0819000000000        -3.604660372135567E-094
   63.3213000000000        -6.063773841531524E-094
   63.5607000000000        -8.985142147558568E-094
   63.8001000000000        -1.177548653832144E-093
   64.0395000000000        -1.323374918460063E-093
   64.2789000000000        -1.133778132379019E-093
   64.5183000000000        -3.108753461540697E-094
   64.7577000000000         1.531173976383950E-093
   64.9971000000000         4.817250372489517E-093
   65.2365000000000         9.895422385960519E-093
   65.4759000000000         1.682614028899930E-092
   65.7153000000000         2.505416056429068E-092
   65.9547000000000         3.296077291486130E-092
   66.1941000000000         3.733527590334953E-092
   66.4335000000000         3.287439193550365E-092
   66.6729000000000         1.191994215535300E-092
   66.9123000000000        -3.522590127933942E-092
   67.1517000000000        -1.189310540014743E-091
   67.3911000000000        -2.472279974444751E-091
   67.6305000000000        -4.205881529048767E-091
   67.8699000000000        -6.240945234858916E-091
   68.1093000000000        -8.171692574059015E-091
   68.3487000000000        -9.220270274057689E-091
   68.5881000000000        -8.136247888909187E-091
   68.8275000000000        -3.160743821838127E-091
   69.0669000000000         7.869096634048166E-091
   69.3063000000000         2.717445661686194E-090
   69.5457000000000         5.633266634085796E-090
   69.7851000000000         9.511412774739630E-090
   70.0245000000000         1.398110627678019E-089
   70.2639000000000         1.811380273306433E-089
   70.5033000000000         2.020043674685247E-089
   70.7427000000000         1.757848145735287E-089
   70.9821000000000         6.613531696096068E-090
   71.2215000000000        -1.701357112201148E-089
   71.4609000000000        -5.752404059028599E-089
   71.7003000000000        -1.175607409233853E-088
   71.9397000000000        -1.958513397842676E-088
   72.1791000000000        -2.839914000986589E-088
   72.4185000000000        -3.625894916967840E-088
   72.6579000000000        -3.974438357055959E-088
   72.8973000000000        -3.370156142615145E-088
   73.1367000000000        -1.131856532158118E-088
   73.3761000000000         3.519915581532331E-088
   73.6155000000000         1.130317874917642E-087
   73.8549000000000         2.259122521927224E-087
   74.0943000000000         3.698572966564894E-087
   74.3337000000000         5.275403554829656E-087
   74.5731000000000         6.618805145931666E-087
   74.8125000000000         7.101705350380505E-087
   75.0519000000000         5.810508146128653E-087
   75.2913000000000         1.577505189257243E-087
   75.5307000000000        -6.879731516131348E-087
   75.7701000000000        -2.066264066092892E-086
   76.0095000000000        -4.019622731724608E-086
   76.2489000000000        -6.451477261975749E-086
   76.4883000000000        -9.036035645259841E-086
   76.7277000000000        -1.112098122949149E-085
   76.9671000000000        -1.164651062115476E-085
   77.2065000000000        -9.119022423796355E-086
   77.4459000000000        -1.693352893091880E-086
   77.6853000000000         1.257023519725795E-085
   77.9247000000000         3.520547549410423E-085
   78.1641000000000         6.654289742079508E-085
   78.4035000000000         1.046075728970442E-084
   78.6429000000000         1.437870336189658E-084
   78.8823000000000         1.734742275060494E-084
   79.1217000000000         1.770649749492494E-084
   79.3611000000000         1.318937907012909E-084
   79.6005000000000         1.089014329317368E-085
   79.8399000000000        -2.131337099481489E-084
   80.0793000000000        -5.596850712343892E-084
   80.3187000000000        -1.028719233862379E-083
   80.5581000000000        -1.584857231856237E-083
   80.7975000000000        -2.139113077454390E-083
   81.0369000000000        -2.531392377975565E-083
   81.2763000000000        -2.519381226212698E-083
   81.5157000000000        -1.782045573100281E-083
   81.7551000000000         5.174383285935138E-085
   81.9945000000000         3.337846700378942E-083
   82.2339000000000         8.304466401438858E-083
   82.4733000000000         1.488771917122105E-082
   82.7127000000000         2.252086254892721E-082
   82.9521000000000         2.990025129732011E-082
   83.1915000000000         3.477530476436673E-082
   83.4309000000000         3.383929807114675E-082
   83.6703000000000         2.282845791263116E-082
   83.9097000000000        -3.038970501261334E-083
   84.1491000000000        -4.814585563382929E-082
   84.3885000000000        -1.149707318240784E-081
   84.6279000000000        -2.019606353257972E-081
   84.8673000000000        -3.008937507296574E-081
   85.1067000000000        -3.940653772005935E-081
   85.3461000000000        -4.519269145721990E-081
   85.5855000000000        -4.321524960470173E-081
   85.8249000000000        -2.814443401214313E-081
   86.0643000000000         5.838071533331322E-082
   86.3037000000000         6.384931553523511E-081
   86.5431000000000         1.484239963581706E-080
   86.7825000000000         2.569353222819985E-080
   87.0219000000000         3.784909520266556E-080
   87.2613000000000         4.907410753722742E-080
   87.5007000000000         5.573741878902152E-080
   87.7401000000000         5.274534558149273E-080
   87.9795000000000         3.380915788104601E-080
   88.2189000000000        -7.783817571260349E-081
   88.4583000000000        -7.773570048186577E-080
   88.6977000000000        -1.785388277378645E-079
   88.9371000000000        -3.065361729421332E-079
   89.1765000000000        -4.484733843511983E-079
   89.4159000000000        -5.780675133416439E-079
   89.6553000000000        -6.534803777633248E-079
   89.8947000000000        -6.169727555413960E-079
   90.1341000000000        -3.983479577214908E-079
   90.3735000000000         7.605281306640296E-080
   90.6129000000000         8.672264369605691E-079
   90.8523000000000         1.999387618672845E-078
   91.0917000000000         3.428395308982040E-078
   91.3311000000000         5.005501474109387E-078
   91.5705000000000         6.442249914714471E-078
   91.8099000000000         7.286015145236081E-078
   92.0493000000000         6.919444196801128E-078
   92.2887000000000         4.600088738628330E-078
   92.5281000000000        -4.424513576683965E-079
   92.7675000000000        -8.837081002471219E-078
   93.0069000000000        -2.082249074983094E-077
   93.2463000000000        -3.592688540314391E-077
   93.4857000000000        -5.260635723718364E-077
   93.7251000000000        -6.790199807401073E-077
   93.9645000000000        -7.721075914093278E-077
   94.2039000000000        -7.429983474488601E-077
   94.4433000000000        -5.172051430465934E-077
   94.6827000000000        -1.783213038510366E-078
   94.9221000000000         8.177370821772419E-077
   95.1615000000000         2.013680424274763E-076
   95.4009000000000         3.525001535314361E-076
   95.6403000000000         5.203236171000959E-076
   95.8797000000000         6.764383244147265E-076
   96.1191000000000         7.767996699813790E-076
   96.3585000000000         7.619424257404071E-076
   96.5979000000000         5.609346817904820E-076
   96.8373000000000         1.005002791981379E-076
   97.0767000000000        -6.795482414946187E-076
   97.3161000000000        -1.804169095510228E-075
   97.5555000000000        -3.235144146163278E-075
   97.7949000000000        -4.840118643240330E-075
   98.0343000000000        -6.363837356865175E-075
   98.2737000000000        -7.409493136700733E-075
   98.5131000000000        -7.440659584713856E-075
   98.7525000000000        -5.816011340689609E-075
   98.9919000000000        -1.869052898610858E-075
   99.2313000000000         4.957655857115962E-075
   99.4707000000000         1.492080502350926E-074
   99.7101000000000         2.773529289310465E-074
   99.9495000000000         4.230787041728842E-074
   100.188900000000         5.648953483514506E-074
   100.428300000000         6.691285255801889E-074
   100.667700000000         6.900090973191734E-074
   100.907100000000         5.724802146209559E-074
   101.146500000000         2.587156244106155E-074
   101.385900000000        -3.008879832335191E-074
   101.625300000000        -1.132014600365525E-073
   101.864700000000        -2.216691518224492E-073
   102.104100000000        -3.471439812834291E-073
   102.343500000000        -4.726818858656113E-073
   102.582900000000        -5.713595489659295E-073
   102.822300000000        -6.062350501416805E-073
   103.061700000000        -5.324352089541474E-073
   103.301100000000        -3.021438057320069E-073
   103.540500000000         1.269149056373589E-073
   103.779900000000         7.793114976702401E-073
   104.019300000000         1.646557930015814E-072
   104.258700000000         2.670012336925753E-072
   104.498100000000         3.724670798122943E-072
   104.737500000000         4.607759741281605E-072
   104.976900000000         5.037216217118143E-072
   105.216300000000         4.665896972372312E-072
   105.455700000000         3.117301966235728E-072
   105.695100000000         4.730238737062455E-074
   105.934500000000        -4.766578705099894E-072
   106.173900000000        -1.131165542261283E-071
   106.413300000000        -1.921249184925449E-071
   106.652700000000        -2.760782904406312E-071
   106.892100000000        -3.505977743073108E-071
   107.131500000000        -3.953141109668028E-071
   107.370900000000        -3.847437227594217E-071
   107.610300000000        -2.906797894417829E-071
   107.849700000000        -8.642684255152989E-072
   108.089100000000         2.469918489546048E-071
   108.328500000000         7.128557437900415E-071
   108.567900000000         1.289663662976111E-070
   108.807300000000         1.922186373982665E-070
   109.046700000000         2.514521521336128E-070
   109.286100000000         2.927594777355280E-070
   109.525500000000         2.983939575375474E-070
   109.764900000000         2.482611922422710E-070
   110.004300000000         1.226564223084226E-070
   110.243700000000        -9.364667240374642E-071
   110.483100000000        -4.060631735112377E-070
   110.722500000000        -8.040281977733028E-070
   110.961900000000        -1.254773828923362E-069
   111.201300000000        -1.698242926857711E-069
   111.440700000000        -2.044714485334796E-069
   111.680100000000        -2.176984135368587E-069
   111.919500000000        -1.958987815627956E-069
   112.158900000000        -1.252455772697470E-069
   112.398300000000         5.757541224576857E-071
   112.637700000000         2.028863272696499E-069
   112.877100000000         4.621994895714465E-069
   113.116500000000         7.659001021028135E-069
   113.355900000000         1.078776615594122E-068
   113.595300000000         1.346190743543722E-068
   113.834700000000         1.494760368168446E-068
   114.074100000000         1.436935778368860E-068
   114.313500000000         1.080514056547352E-068
   114.552900000000         3.437100189493514E-069
   114.792300000000        -8.243478107086088E-069
   115.031700000000        -2.418914591271931E-068
   115.271100000000        -4.353318241462076E-068
   115.510500000000        -6.435191428747460E-068
   115.749900000000        -8.350914031079775E-068
   115.989300000000        -9.665111757192039E-068
   116.228700000000        -9.842516191025722E-068
   116.468100000000        -8.298807977989578E-068
   116.707500000000        -4.484828042609397E-068
   116.946900000000         1.995560973350886E-068
   117.186300000000         1.123976116627047E-067
   117.425700000000         2.288652711497205E-067
   117.665100000000         3.596451431261161E-067
   117.904500000000         4.878098014085648E-067
   118.143900000000         5.888974197015609E-067
   118.383300000000         6.318118605319415E-067
   118.622700000000         5.813470193790191E-067
   118.862100000000         4.026303409898132E-067
   119.101500000000         6.756810413976436E-068
   119.340900000000        -4.369493190196005E-067
   119.580300000000        -1.099752606595644E-066
   119.819700000000        -1.876181894950175E-066
   120.059100000000        -2.680650422429454E-066
   120.298500000000        -3.383125145093168E-066
   120.537900000000        -3.811934507684022E-066
   120.777300000000        -3.765271275800002E-066
   121.016700000000        -3.033273975747499E-066
   121.256100000000        -1.431533389197311E-066
   121.495500000000         1.154780341520759E-066
   121.734900000000         4.719217844915876E-066
   121.974300000000         9.080525660804597E-066
   122.213700000000         1.383592378756781E-065
   122.453100000000         1.833244220177361E-065
   122.692500000000         2.166937734003695E-065
   122.931900000000         2.274522948458804E-065
   123.171300000000         2.036056632980417E-065
   123.410700000000         1.338349570638433E-065
   123.650100000000         9.764161306996147E-067
   123.889500000000        -1.712856367061633E-065
   124.128900000000        -4.033213105143549E-065
   124.368300000000        -6.689022350802038E-065
   124.607700000000        -9.371325661467953E-065
   124.847100000000        -1.163102900150705E-064
   125.086500000000        -1.289507074424986E-064
   125.325900000000        -1.251097325968039E-064
   125.565300000000        -9.824369329589778E-065
   125.804700000000        -4.290385368696619E-065
   126.044100000000         4.385686247472849E-065
   126.283500000000         1.608998585632655E-064
   126.522900000000         3.014350389987496E-064
   126.762300000000         4.517489670323689E-064
   127.001700000000         5.905699595333826E-064
   127.241100000000         6.894499741224329E-064
   127.480500000000         7.145306861065335E-064
   127.719900000000         6.299806460531783E-064
   127.959300000000         4.032269602068048E-064
   128.198700000000         1.185158662364246E-065
   128.438100000000        -5.483154262928915E-064
   128.677500000000        -1.254773431177168E-063
   128.916900000000        -2.050887247986824E-063
   129.156300000000        -2.841046962651249E-063
   129.395700000000        -3.490369083206113E-063
   129.635100000000        -3.830889460817973E-063
   129.874500000000        -3.675914592696879E-063
   130.113900000000        -2.843514253622351E-063
   130.353300000000        -1.189004893899553E-063
   130.592700000000         1.355304468099660E-063
   130.832100000000         4.736770845791869E-063
   131.071500000000         8.741268513424968E-063
   131.310900000000         1.296204169443451E-062
   131.550300000000         1.678790565055071E-062
   131.789700000000         1.942074127848983E-062
   132.029100000000         1.993140049939785E-062
   132.268500000000         1.736044163338772E-062
   132.507900000000         1.086523514934519E-062
   132.747300000000        -9.214898269549547E-065
   132.986700000000        -1.553095979635767E-062
   133.226100000000        -3.473671904380427E-062
   133.465500000000        -5.608049453797856E-062
   133.704900000000        -7.691651527942394E-062
   133.944300000000        -9.360692902542021E-062
   134.183700000000        -1.017210632541025E-061
   134.423100000000        -9.644662579892516E-062
   134.662500000000        -7.323011526937077E-062
   134.901900000000        -2.863255739631584E-062
   135.141300000000         3.865466434599959E-062
   135.380700000000         1.267378396764665E-061
   135.620100000000         2.295477039642058E-061
   135.859500000000         3.361653477926786E-061
   136.098900000000         4.306780324817222E-061
   136.338300000000         4.927998371362954E-061
   136.577700000000         4.994589094761197E-061
   136.817100000000         4.274733632447330E-061
   137.056500000000         2.573063899419429E-061
   137.295900000000        -2.229066380669101E-062
   137.535300000000        -4.091603312964234E-061
   137.774700000000        -8.828000608453685E-061
   138.014100000000        -1.400483503422823E-060
   138.253500000000        -1.895494353794613E-060
   138.492900000000        -2.278589517422051E-060
   138.732300000000        -2.443714096626708E-060