  -1.79550000000000         0.000000000000000E+000
  -1.55610000000000         0.000000000000000E+000
  -1.31670000000000         0.000000000000000E+000
  -1.07730000000000         0.000000000000000E+000
 -0.837900000000000         0.000000000000000E+000
 -0.598500000000000         0.000000000000000E+000
 -0.359100000000000         0.000000000000000E+000
 -0.119700000000000         0.000000000000000E+000
  0.119700000000000         0.000000000000000E+000
  0.359100000000000         0.000000000000000E+000
  0.598500000000000         0.000000000000000E+000
  0.837900000000000         0.000000000000000E+000
   1.07730000000000         0.000000000000000E+000
   1.31670000000000         0.000000000000000E+000
   1.55610000000000         0.000000000000000E+000
   1.79550000000000         0.000000000000000E+000
   2.03490000000000         0.000000000000000E+000
   2.27430000000000         0.000000000000000E+000
   2.51370000000000         0.000000000000000E+000
   2.75310000000000         0.000000000000000E+000
   2.99250000000000         0.000000000000000E+000
   3.23190000000000         0.000000000000000E+000
   3.47130000000000         0.000000000000000E+000
   3.71070000000000         0.000000000000000E+000
   3.95010000000000         0.000000000000000E+000
   4.18950000000000         0.000000000000000E+000
   4.42890000000000         0.000000000000000E+000
   4.66830000000000         0.000000000000000E+000
   4.90770000000000         0.000000000000000E+000
   5.14710000000000         0.000000000000000E+000
   5.38650000000000         0.000000000000000E+000
   5.62590000000000         0.000000000000000E+000
   5.86530000000000         0.000000000000000E+000
   6.10470000000000         0.000000000000000E+000
   6.34410000000000         0.000000000000000E+000
   6.58350000000000         0.000000000000000E+000
   6.82290000000000         0.000000000000000E+000
   7.06230000000000         0.000000000000000E+000
   7.30170000000000         0.000000000000000E+000
   7.54110000000000         0.000000000000000E+000
   7.78050000000000         0.000000000000000E+000
   8.01990000000000         0.000000000000000E+000
   8.25930000000000         0.000000000000000E+000
   8.49870000000000         0.000000000000000E+000
   8.73810000000000        -3.474728558275759E-183
   8.97750000000000         3.877124016011185E-177
   9.21690000000000        -3.317869352785929E-174
   9.45630000000000         2.851401547043238E-171
   9.69570000000000         1.117912167946201E-168
   9.93510000000000         9.720498743328199E-167
   10.1745000000000         4.222862261886008E-165
   10.4139000000000         1.182755045746008E-163
   10.6533000000000         2.413812906096306E-162
   10.8927000000000         3.856055368539066E-161
   11.1321000000000         5.057523106999595E-160
   11.3715000000000         5.640945769666206E-159
   11.6109000000000         5.502641678627417E-158
   11.8503000000000         4.806466443451485E-157
   12.0897000000000         3.834334813825036E-156
   12.3291000000000         2.836572123328198E-155
   12.5685000000000         1.964664991970374E-154
   12.8079000000000         1.277985511305768E-153
   13.0473000000000         7.784990618725556E-153
   13.2867000000000         4.408041522018242E-152
   13.5261000000000         2.295503874803737E-151
   13.7655000000000         1.085205087634552E-150
   14.0049000000000         4.589101257846649E-150
   14.2443000000000         1.714546250847082E-149
   14.4837000000000         5.748045769061688E-149
   14.7231000000000         2.002330540661788E-148
   14.9625000000000         1.033187072459065E-147
   15.2019000000000         8.034999528034926E-147
   15.4413000000000         6.616630396876635E-146
   15.6807000000000         4.939669700281312E-145
   15.9201000000000         3.288036551799307E-144
   16.1595000000000         1.977054615864755E-143
   16.3989000000000         1.089899778112542E-142
   16.6383000000000         5.575534649364851E-142
   16.8777000000000         2.671593900846681E-141
   17.1171000000000         1.207747792438248E-140
   17.3565000000000         5.180540717259307E-140
   17.5959000000000         2.118114838997038E-139
   17.8353000000000         8.285436275852464E-139
   18.0747000000000         3.110313270040520E-138
   18.3141000000000         1.123356100036087E-137
   18.5535000000000         3.911677948483651E-137
   18.7929000000000         1.315458614593069E-136
   19.0323000000000         4.277956911340758E-136
   19.2717000000000         1.346672201029126E-135
   19.5111000000000         4.105967565552547E-135
   19.7505000000000         1.212794763712118E-134
   19.9899000000000         3.469535126818201E-134
   20.2293000000000         9.605571558790581E-134
   20.4687000000000         2.569736737352544E-133
   20.7081000000000         6.626404407374267E-133
   20.9475000000000         1.640366240014133E-132
   21.1869000000000         3.872875097936406E-132
   21.4263000000000         8.624021001419207E-132
   21.6657000000000         1.773955424244942E-131
   21.9051000000000         3.221868410911059E-131
   22.1445000000000         4.525352561338042E-131
   22.3839000000000         1.740646031930752E-131
   22.6233000000000        -2.000626960964003E-130
   22.8627000000000        -1.080990775347741E-129
   23.1021000000000        -3.988812766560928E-129
   23.3415000000000        -1.255846360855499E-128
   23.5809000000000        -3.585704344908019E-128
   23.8203000000000        -9.506708028344015E-128
   24.0597000000000        -2.362171047000427E-127
   24.2991000000000        -5.506335819431757E-127
   24.5385000000000        -1.196615640643910E-126
   24.7779000000000        -2.383954329873254E-126
   25.0173000000000        -4.185793130275125E-126
   25.2567000000000        -5.785560042275271E-126
   25.4961000000000        -3.159083049663463E-126
   25.7355000000000         1.710002884979179E-125
   25.9749000000000         9.252707156390451E-125
   26.2143000000000         3.165897692971769E-124
   26.4537000000000         8.998422372739608E-124
   26.6931000000000         2.270116876304824E-123
   26.9325000000000         5.192164941260593E-123
   27.1719000000000         1.077914178159413E-122
   27.4113000000000         1.996536696702741E-122
   27.6507000000000         3.128464880872728E-122
   27.8901000000000         3.427251657547144E-122
   28.1295000000000        -6.997961133244112E-123
   28.3689000000000        -1.900519157303908E-121
   28.6083000000000        -7.442237300342015E-121
   28.8477000000000        -2.148547078880873E-120
   29.0871000000000        -5.288080663627542E-120
   29.3265000000000        -1.155475749752887E-119
   29.5659000000000        -2.257024443054789E-119
   29.8053000000000        -3.868841825658280E-119
   30.0447000000000        -5.440230052154771E-119
   30.2841000000000        -4.699434703488716E-119
   30.5235000000000         4.779305677230812E-119
   30.7629000000000         3.817920494065194E-118
   31.0023000000000         1.270201011426003E-117
   31.2417000000000         3.293251795982559E-117
   31.4811000000000         7.379251118777834E-117
   31.7205000000000         1.472274884067901E-116
   31.9599000000000         2.617691376865847E-116
   32.1993000000000         4.036528398763293E-116
   32.4387000000000         4.913586545365135E-116
   32.6781000000000         2.819083993635854E-116
   32.9175000000000        -7.985362815671878E-116
   33.1569000000000        -3.919996839398001E-115
   33.3963000000000        -1.118542727810849E-114
   33.6357000000000        -2.588560656864631E-114
   33.8751000000000        -5.222959652869890E-114
   34.1145000000000        -9.355415213713063E-114
   34.3539000000000        -1.470960893287552E-113
   34.5933000000000        -1.921270180281618E-113
   34.8327000000000        -1.669205359968073E-113
   35.0721000000000         7.029666444400492E-114
   35.3115000000000         7.981070613661496E-113
   35.5509000000000         2.496695230215801E-112
   35.7903000000000         5.883466036123879E-112
   36.0297000000000         1.182749883928518E-111
   36.2691000000000         2.095687459880045E-111
   36.5085000000000         3.263476823057718E-111
   36.7479000000000         4.281739310043900E-111
   36.9873000000000         4.019615476314527E-111
   37.2267000000000         1.538401471345859E-113
   37.4661000000000        -1.232047912402118E-110
   37.7055000000000        -4.047426144605668E-110
   37.9449000000000        -9.494624183723246E-110
   38.1843000000000        -1.873816202292901E-109
   38.4237000000000        -3.243003917223138E-109
   38.6631000000000        -4.926468678876267E-109
   38.9025000000000        -6.321645071428334E-109
   39.1419000000000        -5.896359965637526E-109
   39.3813000000000        -5.349506016091158E-110
   39.6207000000000         1.522108138408211E-108
   39.8601000000000         4.971726892178684E-108
   40.0995000000000         1.137788129059486E-107
   40.3389000000000         2.179671858671444E-107
   40.5783000000000         3.652608654351679E-107
   40.8177000000000         5.360542562718492E-107
   41.0571000000000         6.620158608375634E-107
   41.2965000000000         5.865598202313410E-107
   41.5359000000000         1.424443809886970E-108
   41.7753000000000        -1.538105227195389E-106
   42.0147000000000        -4.756269418002740E-106
   42.2541000000000        -1.044620865254830E-105
   42.4935000000000        -1.924886448961108E-105
   42.7329000000000        -3.100073984678072E-105
   42.9723000000000        -4.355982938925888E-105
   43.2117000000000        -5.094672717654994E-105
   43.4511000000000        -4.081184824178593E-105
   43.6905000000000         8.364479868386536E-106
   43.9299000000000         1.291765701761245E-104
   44.1693000000000         3.639162865329288E-104
   44.4087000000000         7.558288386510770E-104
   44.6481000000000         1.326982585236047E-103
   44.8875000000000         2.035276824327559E-103
   45.1269000000000         2.703587550062332E-103
   45.3663000000000         2.918926493595327E-103
   45.6057000000000         1.912328448532317E-103
   45.8451000000000        -1.544718126500603E-103
   46.0845000000000        -9.150347321522403E-103
   46.3239000000000        -2.285420078148988E-102
   46.5633000000000        -4.420929453973899E-102
   46.8027000000000        -7.303732626318154E-102
   47.0421000000000        -1.051531887106946E-101
   47.2815000000000        -1.290286956492037E-101
   47.5209000000000        -1.216488373985137E-101
   47.7603000000000        -4.455372812324561E-102
   47.9997000000000         1.577240805242468E-101
   48.2391000000000         5.529090050743148E-101
   48.4785000000000         1.204011091921604E-100
   48.7179000000000         2.132576833917871E-100
   48.9573000000000         3.254545300922825E-100
   49.1967000000000         4.284685493961685E-100
   49.4361000000000         4.615726861874045E-100
   49.6755000000000         3.198320938720879E-100
   49.9149000000000        -1.519373023035696E-100
   50.1543000000000        -1.148836864674442E-099
   50.3937000000000        -2.863577832350969E-099
   50.6331000000000        -5.392427384347342E-099
   50.8725000000000        -8.569765749464234E-099
   51.1119000000000        -1.172129653208811E-098
   51.3513000000000        -1.335234624552023E-098
   51.5907000000000        -1.083873428562313E-098
   51.8301000000000        -2.692892607867813E-100
   52.0695000000000         2.330021627250598E-098
   52.3089000000000         6.479916640961226E-098
   52.5483000000000         1.268262134177139E-097
   52.7877000000000         2.056121948756608E-097
   53.0271000000000         2.850674502174002E-097
   53.2665000000000         3.293807525441470E-097
   53.5059000000000         2.758750672364581E-097
   53.7453000000000         3.175129635760913E-098
   53.9847000000000        -5.191107936281628E-097
   54.2241000000000        -1.490424893694775E-096
   54.4635000000000        -2.938167829175179E-096
   54.7029000000000        -4.765947167374318E-096
   54.9423000000000        -6.587954858521288E-096
   55.1817000000000        -7.562163323256655E-096
   55.4211000000000        -6.234915247580731E-096
   55.6605000000000        -4.811630531634047E-097
   55.8999000000000         1.232022238371980E-095
   56.1393000000000         3.468036894070389E-095
   56.3787000000000         6.773446136465110E-095
   56.6181000000000         1.091177018929541E-094
   56.8575000000000         1.499399010620774E-094
   57.0969000000000         1.711674602682947E-094
   57.3363000000000         1.403391288167407E-094
   57.5757000000000         1.045408022530754E-095
   57.8151000000000        -2.759901095037980E-094
   58.0545000000000        -7.737087656499110E-094
   58.2939000000000        -1.507389446096586E-093
   58.5333000000000        -2.426565307215378E-093
   58.7727000000000        -3.341995381067736E-093
   59.0121000000000        -3.850240348667577E-093
   59.2515000000000        -3.265649590500116E-093
   59.4909000000000        -5.971529980768161E-094
   59.7303000000000         5.370439955228777E-093
   59.9697000000000         1.580940655203870E-092
   60.2091000000000         3.130428548454522E-092
   60.4485000000000         5.095319718400936E-092
   60.6879000000000         7.110435241620733E-092
   60.9273000000000         8.385677587734714E-092
   61.1667000000000         7.569144370718949E-092
   61.4061000000000         2.693941589707994E-092
   61.6455000000000        -8.679275082203778E-092
   61.8849000000000        -2.897242900284849E-091
   62.1243000000000        -5.958142533281721E-091
   62.3637000000000        -9.920620127587787E-091
   62.6031000000000        -1.414933307408861E-090
   62.8425000000000        -1.722140533576926E-090
   63.0819000000000        -1.666199124020613E-090
   63.3213000000000        -8.821704452543869E-091
   63.5607000000000         1.090739442360784E-090
   63.8001000000000         4.727089184209713E-090
   64.0395000000000         1.034234695045373E-089
   64.2789000000000         1.780350408545129E-089
   64.5183000000000         2.611653856385866E-089
   64.7577000000000         3.292524875920052E-089
   64.9971000000000         3.402532161961788E-089
   65.2365000000000         2.309659818011603E-089
   65.4759000000000        -8.022965367422584E-090
   65.7153000000000        -6.808091739055885E-089
   65.9547000000000        -1.636647732745513E-088
   66.1941000000000        -2.945213500327787E-088
   66.4335000000000        -4.467842518975253E-088
   66.6729000000000        -5.845854969937156E-088
   66.9123000000000        -6.416015051016238E-088
   67.1517000000000        -5.156276623816665E-088
   67.3911000000000        -7.117034642049510E-089
   67.6305000000000         8.430726799982968E-088
   67.8699000000000         2.353809554679456E-087
   68.1093000000000         4.492466905802575E-087
   68.3487000000000         7.090865489380417E-087
   68.5881000000000         9.648965283319142E-087
   68.8275000000000         1.119598241864309E-086
   69.0669000000000         1.018883588560457E-086
   69.3063000000000         4.520064472234910E-087
   69.5457000000000        -8.263880528694916E-087
   69.7851000000000        -3.041345628184922E-086
   70.0245000000000        -6.298049757167325E-086
   70.2639000000000        -1.043115790521698E-085
   70.5033000000000        -1.480860540839103E-085
   70.7427000000000        -1.811665909066077E-085
   70.9821000000000        -1.818428804810513E-085
   71.2215000000000        -1.194454106561523E-085
   71.4609000000000         4.327644469775258E-086
   71.7003000000000         3.433048738109421E-085
   71.9397000000000         8.043191685444728E-085
   72.1791000000000         1.416340488216370E-084
   72.4185000000000         2.108405336235360E-084
   72.6579000000000         2.717311552859633E-084
   72.8973000000000         2.959539852406114E-084
   73.1367000000000         2.418708806283995E-084
   73.3761000000000         5.666505838311892E-085
   73.6155000000000        -3.159111375701081E-084
   73.8549000000000        -9.197519521896854E-084
   74.0943000000000        -1.760758991299927E-083
   74.3337000000000        -2.771213758323982E-083
   74.5731000000000        -3.767218881497134E-083
   74.8125000000000        -4.407202222305696E-083
   75.0519000000000        -4.166036604020620E-083
   75.2913000000000        -2.346744454919486E-083
   75.5307000000000         1.841657566926023E-083
   75.7701000000000         9.108705942899863E-083
   76.0095000000000         1.978276048415358E-082
   76.2489000000000         3.337776855881728E-082
   76.4883000000000         4.805235162494058E-082
   76.7277000000000         6.004318161422953E-082
   76.9671000000000         6.323144527935214E-082
   77.2065000000000         4.909143327861958E-082
   77.4459000000000         7.356441990470797E-083
   77.6853000000000        -7.221125344772024E-082
   77.9247000000000        -1.965870431170308E-081
   78.1641000000000        -3.645901135778052E-081
   78.4035000000000        -5.604875429486166E-081
   78.6429000000000        -7.468496713032466E-081
   78.8823000000000        -8.582525941729328E-081
   79.1217000000000        -7.984527534462161E-081
   79.3611000000000        -4.447073705404491E-081
   79.6005000000000         3.363221599343096E-081
   79.8399000000000         1.656627268579065E-080
   80.0793000000000         3.555729690724036E-080
   80.3187000000000         5.930543824999097E-080
   80.5581000000000         8.452239600418756E-080
   80.7975000000000         1.048474785290632E-079
   81.0369000000000         1.103052568563682E-079
   81.2763000000000         8.741069331427188E-080
   81.5157000000000         2.039591080828008E-080
   81.7551000000000        -1.059316155103214E-079
   81.9945000000000        -3.012768725501186E-079
   82.2339000000000        -5.627464602343536E-079
   82.4733000000000        -8.659262339354270E-079
   82.7127000000000        -1.155356985462459E-078
   82.9521000000000        -1.336710236481412E-078
   83.1915000000000        -1.274214890178570E-078
   83.4309000000000        -7.980464845386223E-079
   83.6703000000000         2.729349850089413E-079
   83.9097000000000         2.088079050231019E-078
   84.1491000000000         4.698521013150528E-078
   84.3885000000000         7.968927770479782E-078
   84.6279000000000         1.147617861443485E-077
   84.8673000000000         1.441388054153522E-077
   85.1067000000000         1.553382780562283E-077
   85.3461000000000         1.316787581078495E-077
   85.5855000000000         5.382858882713072E-078
   85.8249000000000        -9.677714674227818E-078
   86.0643000000000        -3.322448112139709E-077
   86.3037000000000        -6.501846175442960E-077
   86.5431000000000        -1.023851880094248E-076
   86.7825000000000        -1.391866261100038E-076
   87.0219000000000        -1.650018386972139E-076
   87.2613000000000        -1.648881031336967E-076
   87.5007000000000        -1.201986459568266E-076
   87.7401000000000        -1.098146712397393E-077
   87.9795000000000         1.795761700345800E-076
   88.2189000000000         4.584198502913987E-076
   88.4583000000000         8.138268484899213E-076
   88.6977000000000         1.205442396456807E-075
   88.9371000000000         1.555002923664664E-075
   89.1765000000000         1.740685100891793E-075
   89.4159000000000         1.599071799496083E-075
   89.6553000000000         9.394372920714680E-076
   89.8947000000000        -4.249940916759453E-076
   90.1341000000000        -2.625467191913592E-075
   90.3735000000000        -5.665507307644533E-075
   90.6129000000000        -9.333029284160758E-075
   90.8523000000000        -1.310903131308848E-074
   91.0917000000000        -1.609426124711546E-074
   91.3311000000000        -1.698483728230678E-074
   91.5705000000000        -1.413573272036690E-074
   91.8099000000000        -5.754155331148809E-075
   92.0493000000000         9.740783293772577E-075
   92.2887000000000         3.317436745595868E-074
   92.5281000000000         6.390616547728549E-074
   92.7675000000000         9.902498712846434E-074
   93.0069000000000         1.325909887885276E-073
   93.2463000000000         1.551471881302691E-073
   93.4857000000000         1.537982718201843E-073
   93.7251000000000         1.132036365380525E-073
   93.9645000000000         1.782482232014701E-074
   94.2039000000000        -1.443288807463041E-073
   94.4433000000000        -3.764314364036058E-073
   94.6827000000000        -6.663857483667212E-073
   94.9221000000000        -9.800306947719280E-073
   95.1615000000000        -1.255474909849746E-072
   95.4009000000000        -1.400667223201969E-072
   95.6403000000000        -1.296840878900492E-072
   95.8797000000000        -8.106759071061707E-073
   96.1191000000000         1.823376501731937E-073
   96.3585000000000         1.762046049048908E-072
   96.5979000000000         3.916242641705744E-072
   96.8373000000000         6.486092215830603E-072
   97.0767000000000         9.113139809756301E-072
   97.3161000000000         1.120167967780238E-071
   97.5555000000000         1.191499256022891E-071
   97.7949000000000         1.022711432809068E-071
   98.0343000000000         5.051665595999988E-072
   98.2737000000000        -4.536097662824478E-072
   98.5131000000000        -1.898031725755435E-071
   98.7525000000000        -3.784578859500776E-071
   98.9919000000000        -5.938582125667396E-071
   99.2313000000000        -8.015880635982057E-071
   99.4707000000000        -9.481318366251691E-071
   99.7101000000000        -9.619220491463972E-071
   99.9495000000000        -7.592478035843524E-071
   100.188900000000        -2.565340070881094E-071
   100.428300000000         6.100945893638350E-071
   100.667700000000         1.858208951200139E-070
   100.907100000000         3.427454597801867E-070
   101.146500000000         5.147285095873005E-070
   101.385900000000         6.711123652896830E-070
   101.625300000000         7.666663824681743E-070
   101.864700000000         7.433949509413753E-070
   102.104100000000         5.363246169125884E-070
   102.343500000000         8.425538181523403E-071
   102.582900000000        -6.541033596703256E-070
   102.822300000000        -1.679174470875693E-069
   103.061700000000        -2.926709369524870E-069
   103.301100000000        -4.244887113210484E-069
   103.540500000000        -5.377992946722039E-069
   103.779900000000        -5.964093573371415E-069
   104.019300000000        -5.555183399953844E-069
   104.258700000000        -3.668031336762536E-069
   104.498100000000         1.282585181172262E-070
   104.737500000000         6.086748011932721E-069
   104.976900000000         1.412572680648077E-068
   105.216300000000         2.365740206131490E-068
   105.455700000000         3.343193067492206E-068
   105.695100000000         4.143959594473032E-068
   105.934500000000         4.492482915397781E-068
   106.173900000000         4.057091315058886E-068
   106.413300000000         2.490933111732612E-068
   106.652700000000        -5.011521511829412E-069
   106.892100000000        -5.070074924404587E-068
   107.131500000000        -1.111017750319497E-067
   107.370900000000        -1.814055127258770E-067
   107.610300000000        -2.520199071072107E-067
   107.849700000000        -3.080009825311973E-067
   108.089100000000        -3.293160721681598E-067
   108.328500000000        -2.923315198310566E-067
   108.567900000000        -1.728670905075774E-067
   108.807300000000         4.898954353129565E-068
   109.046700000000         3.823830191427021E-067
   109.286100000000         8.179734357867893E-067
   109.525500000000         1.319972361430476E-066
   109.764900000000         1.819462999758736E-066
   110.004300000000         2.211071020816213E-066
   110.243700000000         2.355436998341147E-066
   110.483100000000         2.090018033609784E-066
   110.722500000000         1.250341362553819E-066
   110.961900000000        -2.972162928295738E-067
   111.201300000000        -2.611856399094410E-066
   111.440700000000        -5.627305751981075E-066
   111.680100000000        -9.099814411863414E-066
   111.919500000000        -1.256526309697893E-065
   112.158900000000        -1.531871609906506E-065
   112.398300000000        -1.643199735972638E-065
   112.637700000000        -1.482510559383674E-065
   112.877100000000        -9.404474923650744E-066
   113.116500000000         7.257197253135935E-067
   113.355900000000         1.598443890448467E-065
   113.595300000000         3.598811509673780E-065
   113.834700000000         5.921950299807303E-065
   114.074100000000         8.275351945473108E-065
   114.313500000000         1.021222132988298E-064
   114.552900000000         1.114142088908570E-064
   114.792300000000         1.037050070641005E-064
   115.031700000000         7.189733525339796E-065
   115.271100000000         1.000988564717833E-065
   115.510500000000        -8.511517234593958E-065
   115.749900000000        -2.118104192626590E-064
   115.989300000000        -3.615281170002811E-064
   116.228700000000        -5.170987497034958E-064
   116.468100000000        -6.517859850271237E-064
   116.707500000000        -7.296999987334909E-064
   116.946900000000        -7.081412453825268E-064
   117.186300000000        -5.423537698128037E-064
   117.425700000000        -1.929405331080012E-064
   117.665100000000         3.641865179525061E-064
   117.904500000000         1.125981592313710E-063
   118.143900000000         2.049882229027082E-063
   118.383300000000         3.042901481289740E-063
   118.622700000000         3.954898223318794E-063
   118.862100000000         4.579208396462661E-063
   119.101500000000         4.663934825544120E-063
   119.340900000000         3.936757255200631E-063
   119.580300000000         2.144968987032105E-063
   119.819700000000        -8.895407764836114E-064
   120.059100000000        -5.203471003672231E-063
   120.298500000000        -1.062011144678377E-062
   120.537900000000        -1.668274246389164E-062
   120.777300000000        -2.260779092511955E-062
   121.016700000000        -2.727499544079606E-062
   121.256100000000        -2.927293908368847E-062
   121.495500000000        -2.701664555502517E-062
   121.734900000000        -1.894859478282458E-062
   121.974300000000        -3.824842093259373E-063
   122.213700000000         1.892625233330900E-062
   122.453100000000         4.880331935790374E-062
   122.692500000000         8.384058304387333E-062
   122.931900000000         1.202976820801002E-061
   123.171300000000         1.525196670737061E-061
   123.410700000000         1.730651270886363E-061
   123.650100000000         1.731964080348434E-061
   123.889500000000         1.438041321407743E-061
   124.128900000000         7.679498667735012E-062
   124.368300000000        -3.309458872849434E-062
   124.607700000000        -1.861839813469812E-061
   124.847100000000        -3.756617269433390E-061
   125.086500000000        -5.856628991927316E-061
   125.325900000000        -7.900430774411618E-061
   125.565300000000        -9.523451046707075E-061
   125.804700000000        -1.027462255073515E-060
   126.044100000000        -9.654285071059223E-061
   126.283500000000        -7.175929871601232E-061
   126.522900000000        -2.451494023555954E-061
   126.762300000000         4.704057367311355E-061
   127.001700000000         1.415799411166298E-060
   127.241100000000         2.534939931898271E-060
   127.480500000000         3.720265610895733E-060
   127.719900000000         4.808843254212569E-060
   127.959300000000         5.585754278565916E-060
   128.198700000000         5.797149476550881E-060
   128.438100000000         5.174755947169807E-060
   128.677500000000         3.472506281966339E-060
   128.916900000000         5.143087692565236E-061
   129.156300000000        -3.750157191941800E-060
   129.395700000000        -9.187202808184397E-060
   129.635100000000        -1.542656956086750E-059
   129.874500000000        -2.182490989371824E-059
   130.113900000000        -2.745715927915496E-059
   130.353300000000        -3.114787131821735E-059
   130.592700000000        -3.155303944011839E-059
   130.832100000000        -2.729919587600725E-059
   131.071500000000        -1.718042868485689E-059
   131.310900000000        -4.054424832351938E-061
   131.550300000000         2.312366338691956E-059
   131.789700000000         5.253074150263385E-059
   132.029100000000         8.572414944019890E-059
   132.268500000000         1.192447838753351E-058
   132.507900000000         1.482589344005784E-058
   132.747300000000         1.667500385069974E-058
   132.986700000000         1.679538246203561E-058
   133.226100000000         1.450619143192070E-058
   133.465500000000         9.218915970283052E-059
   133.704900000000         5.560570561980565E-060
   133.944300000000        -1.151729784952384E-058
   134.183700000000        -2.656307828880636E-058
   134.423100000000        -4.355973793767637E-058
   134.662500000000        -6.083402873157639E-058
   134.901900000000        -7.605915432810268E-058
   135.141300000000        -8.634243483242281E-058
   135.380700000000        -8.842117323332964E-058
   135.620100000000        -7.897702629016779E-058
   135.859500000000        -5.506674734166498E-058
   136.098900000000        -1.465109098085065E-058
   136.338300000000         4.281505113251684E-058
   136.577700000000         1.157879546548064E-057
   136.817100000000         2.001110365252929E-057
   137.056500000000         2.886514533217261E-057
   137.295900000000         3.711952940648829E-057
   137.535300000000         4.346978355287489E-057
   137.774700000000         4.639719231940650E-057
   138.014100000000         4.428706360101546E-057
   138.253500000000         3.559795165129936E-057
   138.492900000000         1.907797116238749E-057
   138.732300000000        -5.982119496722318E-058