  -1.79550000000000         0.000000000000000E+000
  -1.55610000000000         0.000000000000000E+000
  -1.31670000000000         0.000000000000000E+000
  -1.07730000000000         0.000000000000000E+000
 -0.837900000000000         0.000000000000000E+000
 -0.598500000000000         0.000000000000000E+000
 -0.359100000000000         0.000000000000000E+000
 -0.119700000000000         0.000000000000000E+000
  0.119700000000000         0.000000000000000E+000
  0.359100000000000         0.000000000000000E+000
  0.598500000000000         0.000000000000000E+000
  0.837900000000000         0.000000000000000E+000
   1.07730000000000         0.000000000000000E+000
   1.31670000000000         0.000000000000000E+000
   1.55610000000000         0.000000000000000E+000
   1.79550000000000         0.000000000000000E+000
   2.03490000000000         0.000000000000000E+000
   2.27430000000000         0.000000000000000E+000
   2.51370000000000         0.000000000000000E+000
   2.75310000000000         0.000000000000000E+000
   2.99250000000000         0.000000000000000E+000
   3.23190000000000         0.000000000000000E+000
   3.47130000000000         0.000000000000000E+000
   3.71070000000000         0.000000000000000E+000
   3.95010000000000         0.000000000000000E+000
   4.18950000000000         0.000000000000000E+000
   4.42890000000000         0.000000000000000E+000
   4.66830000000000         0.000000000000000E+000
   4.90770000000000         0.000000000000000E+000
   5.14710000000000         0.000000000000000E+000
   5.38650000000000         0.000000000000000E+000
   5.62590000000000         0.000000000000000E+000
   5.86530000000000         0.000000000000000E+000
   6.10470000000000         0.000000000000000E+000
   6.34410000000000         0.000000000000000E+000
   6.58350000000000         0.000000000000000E+000
   6.82290000000000         0.000000000000000E+000
   7.06230000000000         0.000000000000000E+000
   7.30170000000000         0.000000000000000E+000
   7.54110000000000         0.000000000000000E+000
   7.78050000000000         0.000000000000000E+000
   8.01990000000000         0.000000000000000E+000
   8.25930000000000         0.000000000000000E+000
   8.49870000000000        -3.747063074139031E-181
   8.73810000000000         4.005046613995315E-173
   8.97750000000000        -7.023432601885855E-170
   9.21690000000000         8.009444364707731E-170
   9.45630000000000        -1.955094667871820E-165
   9.69570000000000        -1.433693239283504E-163
   9.93510000000000        -5.182549893053422E-162
   10.1745000000000        -1.244895926574222E-160
   10.4139000000000        -2.245317418819418E-159
   10.6533000000000        -3.252396458043885E-158
   10.8927000000000        -3.949564337499402E-157
   11.1321000000000        -4.141512752154002E-156
   11.3715000000000        -3.828904438537837E-155
   11.6109000000000        -3.164549716729738E-154
   11.8503000000000        -2.354829228199168E-153
   12.0897000000000        -1.576414155007302E-152
   12.3291000000000        -9.376390708268001E-152
   12.5685000000000        -4.780363378648106E-151
   12.8079000000000        -1.874311564346747E-150
   13.0473000000000        -2.936110714110842E-150
   13.2867000000000         3.952589171706770E-149
   13.5261000000000         5.719388211357403E-148
   13.7655000000000         5.093045962350118E-147
   14.0049000000000         3.715897919346187E-146
   14.2443000000000         2.392428494252909E-145
   14.4837000000000         1.402549619291627E-144
   14.7231000000000         7.613469880207120E-144
   14.9625000000000         3.866834988987226E-143
   15.2019000000000         1.850815797724159E-142
   15.4413000000000         8.393518815042935E-142
   15.6807000000000         3.622074267336603E-141
   15.9201000000000         1.492627532439920E-140
   16.1595000000000         5.892006331529430E-140
   16.3989000000000         2.233977644419641E-139
   16.6383000000000         8.155904018506060E-139
   16.8777000000000         2.873611568244103E-138
   17.1171000000000         9.791655415894129E-138
   17.3565000000000         3.232922003112730E-137
   17.5959000000000         1.036124647307271E-136
   17.8353000000000         3.228438514319427E-136
   18.0747000000000         9.793270676206286E-136
   18.3141000000000         2.895293485787972E-135
   18.5535000000000         8.348675064035584E-135
   18.7929000000000         2.348832661722345E-134
   19.0323000000000         6.446390086543885E-134
   19.2717000000000         1.724402402307031E-133
   19.5111000000000         4.488108545814123E-133
   19.7505000000000         1.133232484780991E-132
   19.9899000000000         2.763096757411582E-132
   20.2293000000000         6.458727449971206E-132
   20.4687000000000         1.430453419152200E-131
   20.7081000000000         2.940604248272448E-131
   20.9475000000000         5.381391138624601E-131
   21.1869000000000         7.840097811903984E-131
   21.4263000000000         4.822807427845395E-131
   21.6657000000000        -2.365562894463516E-130
   21.9051000000000        -1.367103553929389E-129
   22.1445000000000        -4.852700864272166E-129
   22.3839000000000        -1.402110571274520E-128
   22.6233000000000        -3.487118076284748E-128
   22.8627000000000        -7.429700710807732E-128
   23.1021000000000        -1.262621622232507E-127
   23.3415000000000        -1.182084195496257E-127
   23.5809000000000         2.523508255707529E-127
   23.8203000000000         1.944269493352974E-126
   24.0597000000000         7.541551564610234E-126
   24.2991000000000         2.312626156150009E-125
   24.5385000000000         6.106331980807754E-125
   24.7779000000000         1.416750760506946E-124
   25.0173000000000         2.848334455983172E-124
   25.2567000000000         4.632642096346752E-124
   25.4961000000000         4.433533030243604E-124
   25.7355000000000        -6.572152793608258E-124
   25.9749000000000        -5.439586578940745E-123
   26.2143000000000        -2.051491470343644E-122
   26.4537000000000        -6.079698636039222E-122
   26.6931000000000        -1.561727853881137E-121
   26.9325000000000        -3.584602560811420E-121
   27.1719000000000        -7.386227710784692E-121
   27.4113000000000        -1.344000542936091E-120
   27.6507000000000        -2.041330825654812E-120
   27.8901000000000        -2.088357296077721E-120
   28.1295000000000         8.548394908192592E-121
   28.3689000000000         1.271837534685418E-119
   28.6083000000000         4.650598461651818E-119
   28.8477000000000         1.272949228339721E-118
   29.0871000000000         2.968960470110908E-118
   29.3265000000000         6.112058756531082E-118
   29.5659000000000         1.111894618997858E-117
   29.8053000000000         1.732291524564718E-117
   30.0447000000000         2.061788146130489E-117
   30.2841000000000         8.469874636323814E-118
   30.5235000000000        -4.925338328176656E-117
   30.7629000000000        -2.146801617444255E-116
   31.0023000000000        -5.996408803440977E-116
   31.2417000000000        -1.376198640382469E-115
   31.4811000000000        -2.750184526145680E-115
   31.7205000000000        -4.830908458877165E-115
   31.9599000000000        -7.269589049315626E-115
   32.1993000000000        -8.457868422819007E-115
   32.4387000000000        -4.006106906280358E-115
   32.6781000000000         1.575051911980920E-114
   32.9175000000000         6.913830995342303E-114
   33.1569000000000         1.863263379381003E-113
   33.3963000000000         4.088909750856146E-113
   33.6357000000000         7.779450616112008E-113
   33.8751000000000         1.295829838655560E-112
   34.1145000000000         1.836654467559068E-112
   34.3539000000000         1.971626442996652E-112
   34.5933000000000         6.747427929851786E-113
   34.8327000000000        -4.098193941037466E-112
   35.0721000000000        -1.587483590658537E-111
   35.3115000000000        -3.988882844470994E-111
   35.5509000000000        -8.238564711310821E-111
   35.7903000000000        -1.477116808294686E-110
   36.0297000000000        -2.310381567923700E-110
   36.2691000000000        -3.037166781845651E-110
   36.5085000000000        -2.880266103030102E-110
   36.7479000000000        -1.978502112742996E-111
   36.9873000000000         7.966987826964187E-110
   37.2267000000000         2.622983469174436E-109
   37.4661000000000         6.065755760770852E-109
   37.7055000000000         1.171467685012827E-108
   37.9449000000000         1.969571321639970E-108
   38.1843000000000         2.873781585013714E-108
   38.4237000000000         3.452533318124934E-108
   38.6631000000000         2.719088462682867E-108
   38.9025000000000        -1.187812070986989E-108
   39.1419000000000        -1.130029661197406E-107
   39.3813000000000        -3.186359105789331E-107
   39.6207000000000        -6.766994519958510E-107
   39.8601000000000        -1.219276648799134E-106
   40.0995000000000        -1.915870430393102E-106
   40.3389000000000        -2.588712419258177E-106
   40.5783000000000        -2.780735428887216E-106
   40.8177000000000        -1.580562331097977E-106
   41.0571000000000         2.558545664436588E-106
   41.2965000000000         1.190768560296596E-105
   41.5359000000000         2.926374269169489E-105
   41.7753000000000         5.713583335743637E-105
   42.0147000000000         9.584718463518198E-105
   42.2541000000000         1.399963712612041E-104
   42.4935000000000         1.728219678631806E-104
   42.7329000000000         1.585180709178252E-104
   42.9723000000000         3.375920323250132E-105
   43.2117000000000        -2.980395238050793E-104
   43.4511000000000        -9.626138971125413E-104
   43.6905000000000        -2.088959065226747E-103
   43.9299000000000        -3.744540163167725E-103
   44.1693000000000        -5.811241136707952E-103
   44.4087000000000        -7.784791404984798E-103
   44.6481000000000        -8.496976522308236E-103
   44.8875000000000        -5.799642709347711E-103
   45.1269000000000         3.677072867094861E-103
   45.3663000000000         2.446559359361950E-102
   45.6057000000000         6.152377155762011E-102
   45.8451000000000         1.182861158498634E-101
   46.0845000000000         1.928797487966970E-101
   46.3239000000000         2.719926424642960E-101
   46.5633000000000         3.224015338961048E-101
   46.8027000000000         2.813639015341062E-101
   47.0421000000000         4.922274804954493E-102
   47.2815000000000        -5.092002516392346E-101
   47.5209000000000        -1.543782628384577E-100
   47.7603000000000        -3.164292700484087E-100
   47.9997000000000        -5.335445422049581E-100
   48.2391000000000        -7.710180549366101E-100
   48.4785000000000        -9.405613878584176E-100
   48.7179000000000        -8.760366209739899E-100
   48.9573000000000        -3.170093749015766E-100
   49.1967000000000         1.081913830975225E-099
   49.4361000000000         3.688307813279099E-099
   49.6755000000000         7.740056465116568E-099
   49.9149000000000         1.306857223827117E-098
   50.1543000000000         1.867886357536788E-098
   50.3937000000000         2.221684493621694E-098
   50.6331000000000         1.944837381047731E-098
   50.8725000000000         4.023559687700477E-099
   51.1119000000000        -3.200220797191862E-098
   51.3513000000000        -9.621039931078952E-098
   51.5907000000000        -1.916156271939136E-097
   51.8301000000000        -3.095205608940376E-097
   52.0695000000000        -4.193329574802389E-097
   52.3089000000000        -4.566351274207802E-097
   52.5483000000000        -3.132566522258040E-097
   52.7877000000000         1.632548302768965E-097
   53.0271000000000         1.148875489655447E-096
   53.2665000000000         2.784975794796067E-096
   53.5059000000000         5.065238925655521E-096
   53.7453000000000         7.655243962053125E-096
   53.9847000000000         9.649823637143610E-096
   54.2241000000000         9.309558023426630E-096
   54.4635000000000         3.878077032387002E-096
   54.7029000000000        -1.033350443433227E-095
   54.9423000000000        -3.731048949622362E-095
   55.1817000000000        -7.978037220057111E-095
   55.4211000000000        -1.363656681018313E-094
   55.6605000000000        -1.972247712363339E-094
   55.8999000000000        -2.384026031664422E-094
   56.1393000000000        -2.159700881751739E-094
   56.3787000000000        -6.240015629488672E-095
   56.6181000000000         3.105177498818416E-094
   56.8575000000000         9.958549836035278E-094
   57.0969000000000         2.054838722274636E-093
   57.3363000000000         3.451388371551706E-093
   57.5757000000000         4.953705846951531E-093
   57.8151000000000         6.008454599458991E-093
   58.0545000000000         5.611372410176604E-093
   58.2939000000000         2.226752773573506E-093
   58.5333000000000        -6.153742352954566E-093
   58.7727000000000        -2.168079788281735E-092
   59.0121000000000        -4.588189586152609E-092
   59.2515000000000        -7.829944078535390E-092
   59.4909000000000        -1.144450088379091E-091
   59.7303000000000        -1.431726578111563E-091
   59.9697000000000        -1.439291003834843E-091
   60.2091000000000        -8.488815443216372E-092
   60.4485000000000         7.629588542979178E-092
   60.6879000000000         3.865841650426083E-091
   60.9273000000000         8.833493192247103E-091
   61.1667000000000         1.568724260197781E-090
   61.4061000000000         2.370627233897230E-090
   61.6455000000000         3.091946070168059E-090
   61.8849000000000         3.355650082902897E-090
   62.1243000000000         2.563353310018007E-090
   62.3637000000000        -1.021872663946944E-091
   62.6031000000000        -5.585782714560359E-090
   62.8425000000000        -1.472326086735969E-089
   63.0819000000000        -2.780164588235625E-089
   63.3213000000000        -4.387742473876571E-089
   63.5607000000000        -5.986816287522211E-089
   63.8001000000000        -6.953523958755277E-089
   64.0395000000000        -6.263610393804318E-089
   64.2789000000000        -2.474007856654799E-089
   64.5183000000000         6.155467334884420E-089
   64.7577000000000         2.130580541142352E-088
   64.9971000000000         4.390763013087295E-088
   65.2365000000000         7.304098616460457E-088
   65.4759000000000         1.044312056379086E-087
   65.7153000000000         1.287008681109054E-087
   65.9547000000000         1.297844207594564E-087
   66.1941000000000         8.424799970945220E-088
   66.4335000000000        -3.735476944301585E-088
   66.6729000000000        -2.656114208487163E-087
   66.9123000000000        -6.222393714596378E-087
   67.1517000000000        -1.103615984736327E-086
   67.3911000000000        -1.657603710343029E-086
   67.6305000000000        -2.155601300542056E-086
   67.8699000000000        -2.365292776298138E-086
   68.1093000000000        -1.934483087737712E-086
   68.3487000000000        -4.022391640277242E-087
   68.5881000000000         2.740919974059142E-086
   68.8275000000000         7.919052969027910E-086
   69.0669000000000         1.524125783626650E-085
   69.3063000000000         2.416807408622790E-085
   69.5457000000000         3.309382767677389E-085
   69.7851000000000         3.891257596404916E-085
   70.0245000000000         3.670303915382526E-085
   70.2639000000000         1.975051638927445E-085
   70.5033000000000        -1.979370293459416E-085
   70.7427000000000        -8.926088163921095E-085
   70.9821000000000        -1.924851964384065E-084
   71.2215000000000        -3.253091242139731E-084
   71.4609000000000        -4.697332408138680E-084
   71.7003000000000        -5.874705154709022E-084
   71.9397000000000        -6.145431863459090E-084
   72.1791000000000        -4.596654427820262E-084
   72.4185000000000        -1.031756036282018E-085
   72.6579000000000         8.486999514618401E-084
   72.8973000000000         2.199376496081535E-083
   73.1367000000000         4.033889145323642E-083
   73.3761000000000         6.177787083561524E-083
   73.6155000000000         8.200529197957200E-083
   73.8549000000000         9.331632400443412E-083
   74.0943000000000         8.414624412576600E-083
   74.3337000000000         3.946423885513187E-083
   74.5731000000000        -5.737022989679136E-083
   74.8125000000000        -2.206316869143515E-082
   75.0519000000000        -4.555977833488707E-082
   75.2913000000000        -7.491220331156328E-082
   75.5307000000000        -1.058040167687511E-081
   75.7701000000000        -1.297258148090809E-081
   76.0095000000000        -1.331021269606269E-081
   76.2489000000000        -9.727879227969854E-082
   76.4883000000000        -9.503533836044291E-085
   76.7277000000000         1.801296447922866E-081
   76.9671000000000         4.574289918362791E-081
   77.2065000000000         8.274352016910628E-081
   77.4459000000000         1.253400444676565E-080
   77.6853000000000         1.650650193345739E-080
   77.9247000000000         1.872954535504547E-080
   78.1641000000000         1.706549488345568E-080
   78.4035000000000         8.798509321438528E-081
   78.6429000000000        -9.013693803252787E-081
   78.8823000000000        -3.883419168041486E-080
   79.1217000000000        -8.151510270474621E-080
   79.3611000000000        -1.347376693561742E-079
   79.6005000000000        -1.911483941248000E-079
   79.8399000000000        -2.365042696826148E-079
   80.0793000000000        -2.483844353541931E-079
   80.3187000000000        -1.962963978018203E-079
   80.5581000000000        -4.424317235906456E-080
   80.7975000000000         2.430716805020845E-079
   81.0369000000000         6.893716997016375E-079
   81.2763000000000         1.290799296000373E-078
   81.5157000000000         1.995430655356442E-078
   81.7551000000000         2.680772939951824E-078
   81.9945000000000         3.134168046076392E-078
   82.2339000000000         3.043953028271594E-078
   82.4733000000000         2.012124954954975E-078
   82.7127000000000        -3.987188179110799E-079
   82.9521000000000        -4.571473256349022E-078
   83.1915000000000        -1.068468570724430E-077
   83.4309000000000        -1.850684951513405E-077
   83.6703000000000        -2.715062392794857E-077
   83.9097000000000        -3.482573093242764E-077
   84.1491000000000        -3.865838072612986E-077
   84.3885000000000        -3.467673394063816E-077
   84.6279000000000        -1.808922084638209E-077
   84.8673000000000         1.600518526093416E-077
   85.1067000000000         7.135266165645239E-077
   85.3461000000000         1.486669021256932E-076
   85.5855000000000         2.432031644826976E-076
   85.8249000000000         3.420450700879330E-076
   86.0643000000000         4.216310856168813E-076
   86.3037000000000         4.463610565132780E-076
   86.5431000000000         3.694334658034085E-076
   86.7825000000000         1.372857457536120E-076
   87.0219000000000        -3.009786973481041E-076
   87.2613000000000        -9.781425282325756E-076
   87.5007000000000        -1.887240722093049E-075
   87.7401000000000        -2.955096918498946E-075
   87.9795000000000        -4.014608310730327E-075
   88.2189000000000        -4.782181708398882E-075
   88.4583000000000        -4.849822834382343E-075
   88.6977000000000        -3.704133954934331E-075
   88.9371000000000        -7.859271939892185E-076
   89.1765000000000         4.396951271190715E-075
   89.4159000000000         1.209612064957410E-074
   89.6553000000000         2.209156441584435E-074
   89.8947000000000         3.342289327523681E-074
   90.1341000000000         4.412610558934346E-074
   90.3735000000000         5.104670716411955E-074
   90.6129000000000         4.982831449701188E-074
   90.8523000000000         3.519783449487314E-074
   91.0917000000000         1.674254819822724E-075
   91.3311000000000        -5.519408934301775E-074
   91.5705000000000        -1.370220961734217E-073
   91.8099000000000        -2.402838955797366E-073
   92.0493000000000        -3.537583100521640E-073
   92.2887000000000        -4.561937638724660E-073
   92.5281000000000        -5.149157326432003E-073
   92.7675000000000        -4.863381999007155E-073
   93.0069000000000        -3.194958170765036E-073
   93.2463000000000         3.630609424897855E-074
   93.4857000000000         6.189279398193170E-073
   93.7251000000000         1.435811980373236E-072
   93.9645000000000         2.442426398066566E-072
   94.2039000000000         3.519419941347052E-072
   94.4433000000000         4.453189618323828E-072
   94.6827000000000         4.926722614712368E-072
   94.9221000000000         4.529437252294699E-072
   95.1615000000000         2.795683624849242E-072
   95.4009000000000        -7.192295225703066E-073
   95.6403000000000        -6.320022245182648E-072
   95.8797000000000        -1.401080875779093E-071
   96.1191000000000        -2.330492502595823E-071
   96.3585000000000        -3.303177243297424E-071
   96.5979000000000        -4.118432240394116E-071
   96.8373000000000        -4.486820884893381E-071
   97.0767000000000        -4.042686188535287E-071
   97.3161000000000        -2.382146272681439E-071
   97.5555000000000         8.666938113126700E-072
   97.7949000000000         5.937981587643278E-071
   98.0343000000000         1.278969876829236E-070
   98.2737000000000         2.094476370394370E-070
   98.5131000000000         2.933586512155054E-070
   98.7525000000000         3.619186940573092E-070
   98.9919000000000         3.901669053347546E-070
   99.2313000000000         3.472064077426821E-070
   99.4707000000000         1.996510580913607E-070
   99.7101000000000        -8.231137455571105E-071
   99.9495000000000        -5.160646085486033E-070
   100.188900000000        -1.095270498612660E-069
   100.428300000000        -1.777244747298008E-069
   100.667700000000        -2.471053412852286E-069
   100.907100000000        -3.029411347582208E-069
   101.146500000000        -3.248397158744456E-069
   101.385900000000        -2.879573634924305E-069
   101.625300000000        -1.658985538833703E-069
   101.864700000000         6.436680727119472E-070
   102.104100000000         4.154960353977394E-069
   102.343500000000         8.810220883831809E-069
   102.582900000000         1.425782291265409E-068
   102.822300000000         1.977153256173493E-068
   103.061700000000         2.419456951314499E-068
   103.301100000000         2.594539360463401E-068
   103.540500000000         2.311861834402653E-068
   103.779900000000         1.371248265437355E-068
   104.019300000000        -3.995533192075076E-069
   104.258700000000        -3.092327476897699E-068
   104.498100000000        -6.653818757174267E-068
   104.737500000000        -1.081627513244783E-067
   104.976900000000        -1.503520451243459E-067
   105.216300000000        -1.845150614758859E-067
   105.455700000000        -1.989930064333966E-067
   105.695100000000        -1.798267482984740E-067
   105.934500000000        -1.124256770094496E-067
   106.173900000000         1.572497641947127E-068
   106.413300000000         2.113253883431959E-067
   106.652700000000         4.707171582865131E-067
   106.892100000000         7.750483363697145E-067
   107.131500000000         1.085994778359752E-066
   107.370900000000         1.343217610001888E-066
   107.610300000000         1.464999260957308E-066
   107.849700000000         1.353602920136680E-066
   108.089100000000         9.067383303153595E-067
   108.328500000000         3.598753682132397E-068
   108.567900000000        -1.307932830876640E-066
   108.807300000000        -3.104650650660239E-066
   109.046700000000        -5.231816028874864E-066
   109.286100000000        -7.436573548777128E-066
   109.525500000000        -9.318521314004836E-066
   109.764900000000        -1.033345879651109E-065
   110.004300000000        -9.827780194878735E-066
   110.243700000000        -7.112230209865608E-066
   110.483100000000        -1.580287753399461E-066
   110.722500000000         7.129779999399119E-066
   110.961900000000         1.893927993893331E-065
   111.201300000000         3.312161628699510E-065
   111.440700000000         4.811784302198031E-065
   111.680100000000         6.142283313408342E-065
   111.919500000000         6.959927010677583E-065
   112.158900000000         6.847979145105749E-065
   112.398300000000         5.361049321644391E-065
   112.637700000000         2.096808842362853E-065
   112.877100000000        -3.205425683331951E-065
   113.116500000000        -1.054516072481734E-064
   113.355900000000        -1.953304329026448E-064
   113.595300000000        -2.927552263406499E-064
   113.834700000000        -3.829977949328194E-064
   114.074100000000        -4.455245443825449E-064
   114.313500000000        -4.550757104257267E-064
   114.552900000000        -3.841506586174404E-064
   114.792300000000        -2.070954186442409E-064
   115.031700000000         9.422130828631076E-065
   115.271100000000         5.234621384438016E-064
   115.510500000000         1.062309140533344E-063
   115.749900000000         1.663521573930397E-063
   115.989300000000         2.246115676685430E-063
   116.228700000000         2.694537271486450E-063
   116.468100000000         2.863813734821472E-063
   116.707500000000         2.592472401221659E-063
   116.946900000000         1.724393298228063E-063
   117.186300000000         1.396520956306423E-064
   117.425700000000        -2.207210150724115E-063
   117.665100000000        -5.245107829467869E-063
   117.904500000000        -8.746443728214784E-063
   118.143900000000        -1.229741916743881E-062
   118.383300000000        -1.528853402263094E-062
   118.622700000000        -1.693590770750808E-062
   118.862100000000        -1.634316472911412E-062
   119.101500000000        -1.261060207144901E-062
   119.340900000000        -4.992816229636980E-063
   119.580300000000         6.902164797671145E-063
   119.819700000000         2.288957176468168E-062
   120.059100000000         4.198944156122983E-062
   120.298500000000         6.225357430743035E-062
   120.537900000000         8.068765001213002E-062
   120.777300000000         9.332252576431533E-062
   121.016700000000         9.548526776742388E-062
   121.256100000000         8.230666760595038E-062
   121.495500000000         4.947600979449241E-062
   121.734900000000        -5.784741210611467E-063
   121.974300000000        -8.360477216878039E-062
   122.213700000000        -1.803401159876991E-061
   122.453100000000        -2.876311607253041E-061
   122.692500000000        -3.918778050685960E-061
   122.931900000000        -4.743916397117252E-061
   123.171300000000        -5.124726969692137E-061
   123.410700000000        -4.815990265010513E-061
   123.650100000000        -3.588020554871253E-061
   123.889500000000        -1.271271888889709E-061
   124.128900000000         2.191455146408643E-061
   124.368300000000         6.691027378554078E-061
   124.607700000000         1.190461159655867E-060
   124.847100000000         1.726546513044223E-060
   125.086500000000         2.196159353312695E-060
   125.325900000000         2.497460639724454E-060
   125.565300000000         2.516764779800148E-060
   125.804700000000         2.142637529781963E-060
   126.044100000000         1.284952185908120E-060
   126.283500000000        -1.024084654551807E-061
   126.522900000000        -1.997622721283873E-060
   126.762300000000        -4.289299298633078E-060
   127.001700000000        -6.761591997455269E-060
   127.241100000000        -9.091010323478372E-060
   127.480500000000        -1.085972259225759E-059
   127.719900000000        -1.158911798197793E-059
   127.959300000000        -1.079534186348878E-059
   128.198700000000        -8.065422704245395E-060
   128.438100000000        -3.148622071187337E-060
   128.677500000000         3.946871480051839E-060
   128.916900000000         1.286622295243097E-059
   129.156300000000         2.284708725735520E-059
   129.395700000000         3.270522145647359E-059
   129.635100000000         4.088513098735023E-059
   129.874500000000         4.558960557170647E-059
   130.113900000000         4.499315795699685E-059
   130.353300000000         3.753145552636621E-059
   130.592700000000         2.224265209571077E-059
   130.832100000000        -8.811917234756654E-061
   131.071500000000        -3.059101014326972E-059
   131.310900000000        -6.419638514619788E-059
   131.550300000000        -9.757388213989512E-059
   131.789700000000        -1.254331155301542E-058
   132.029100000000        -1.418812642742133E-058
   132.268500000000        -1.412856329423561E-058
   132.507900000000        -1.193772067165522E-058
   132.747300000000        -7.447069020562588E-059
   132.986700000000        -8.606886570558333E-060
   133.226100000000         7.163602085891148E-059
   133.465500000000         1.549490813169419E-058
   133.704900000000         2.259943241934717E-058
   133.944300000000         2.672107020905072E-058
   134.183700000000         2.617955618474196E-058
   134.423100000000         1.977236255869166E-058
   134.662500000000         7.239536158936999E-059
   134.901900000000        -1.027970435028424E-058
   135.141300000000        -2.989899157822371E-058
   135.380700000000        -4.686763932709745E-058
   135.620100000000        -5.481339261759388E-058
   135.859500000000        -4.645840512103945E-058
   136.098900000000        -1.487631677496398E-058
   136.338300000000         4.472098159428991E-058
   136.577700000000         1.327910480734326E-057
   136.817100000000         2.431264509044536E-057
   137.056500000000         3.607923161265909E-057
   137.295900000000         4.608883941024756E-057
   137.535300000000         5.087823053747555E-057
   137.774700000000         4.624727472199000E-057
   138.014100000000         2.776325315182951E-057
   138.253500000000        -8.438231090750612E-058
   138.492900000000        -6.457093418748869E-057
   138.732300000000        -1.399103604612459E-056