  -1.79550000000000         0.000000000000000E+000
  -1.55610000000000         0.000000000000000E+000
  -1.31670000000000         0.000000000000000E+000
  -1.07730000000000         0.000000000000000E+000
 -0.837900000000000         0.000000000000000E+000
 -0.598500000000000         0.000000000000000E+000
 -0.359100000000000         0.000000000000000E+000
 -0.119700000000000         0.000000000000000E+000
  0.119700000000000         0.000000000000000E+000
  0.359100000000000         0.000000000000000E+000
  0.598500000000000         0.000000000000000E+000
  0.837900000000000         0.000000000000000E+000
   1.07730000000000         0.000000000000000E+000
   1.31670000000000         0.000000000000000E+000
   1.55610000000000         0.000000000000000E+000
   1.79550000000000         0.000000000000000E+000
   2.03490000000000         0.000000000000000E+000
   2.27430000000000         0.000000000000000E+000
   2.51370000000000         0.000000000000000E+000
   2.75310000000000         0.000000000000000E+000
   2.99250000000000         0.000000000000000E+000
   3.23190000000000         0.000000000000000E+000
   3.47130000000000         0.000000000000000E+000
   3.71070000000000         0.000000000000000E+000
   3.95010000000000         0.000000000000000E+000
   4.18950000000000         0.000000000000000E+000
   4.42890000000000         0.000000000000000E+000
   4.66830000000000         0.000000000000000E+000
   4.90770000000000         0.000000000000000E+000
   5.14710000000000         0.000000000000000E+000
   5.38650000000000         0.000000000000000E+000
   5.62590000000000         0.000000000000000E+000
   5.86530000000000         0.000000000000000E+000
   6.10470000000000         0.000000000000000E+000
   6.34410000000000         0.000000000000000E+000
   6.58350000000000         0.000000000000000E+000
   6.82290000000000         0.000000000000000E+000
   7.06230000000000         0.000000000000000E+000
   7.30170000000000         0.000000000000000E+000
   7.54110000000000         0.000000000000000E+000
   7.78050000000000         0.000000000000000E+000
   8.01990000000000         0.000000000000000E+000
   8.25930000000000         0.000000000000000E+000
   8.49870000000000         0.000000000000000E+000
   8.73810000000000        -2.147530278477629E-182
   8.97750000000000         2.295386690630200E-174
   9.21690000000000        -4.020704203747452E-171
   9.45630000000000        -3.453302205884523E-171
   9.69570000000000        -1.120539753393582E-166
   9.93510000000000        -8.440938803314747E-165
   10.1745000000000        -3.137939888199294E-163
   10.4139000000000        -7.753939389472083E-162
   10.6533000000000        -1.438785250117735E-160
   10.8927000000000        -2.144028277295435E-159
   11.1321000000000        -2.678006334497182E-158
   11.3715000000000        -2.887759682086892E-157
   11.6109000000000        -2.745207368943191E-156
   11.8503000000000        -2.333842002998896E-155
   12.0897000000000        -1.788924531561076E-154
   12.3291000000000        -1.237926641890969E-153
   12.5685000000000        -7.670791628354938E-153
   12.8079000000000        -4.150104730360856E-152
   13.0473000000000        -1.827525221068661E-151
   13.2867000000000        -4.922794311571011E-151
   13.5261000000000         1.463515795202266E-150
   13.7655000000000         3.619847463646880E-149
   14.0049000000000         3.628279171684917E-148
   14.2443000000000         2.819126152468712E-147
   14.4837000000000         1.898699670145699E-146
   14.7231000000000         1.155382959491500E-145
   14.9625000000000         6.484355218204303E-145
   15.2019000000000         3.397507137186031E-144
   15.4413000000000         1.675404088183705E-143
   15.6807000000000         7.821581182593949E-143
   15.9201000000000         3.472672071263737E-142
   16.1595000000000         1.471778667277892E-141
   16.3989000000000         5.973138007378348E-141
   16.6383000000000         2.327795044637186E-140
   16.8777000000000         8.732617360877197E-140
   17.1171000000000         3.160678574705428E-139
   17.3565000000000         1.105992421523987E-138
   17.5959000000000         3.748780882520612E-138
   17.8353000000000         1.232984422265197E-137
   18.0747000000000         3.941385059983734E-137
   18.3141000000000         1.226254024342405E-136
   18.5535000000000         3.717730568317789E-136
   18.7929000000000         1.099402982022348E-135
   19.0323000000000         3.173204338096810E-135
   19.2717000000000         8.941583987575612E-135
   19.5111000000000         2.459292076364296E-134
   19.7505000000000         6.596666680938785E-134
   19.9899000000000         1.722886409865954E-133
   20.2293000000000         4.369702112394082E-133
   20.4687000000000         1.071816694246853E-132
   20.7081000000000         2.526489790471116E-132
   20.9475000000000         5.666492579640578E-132
   21.1869000000000         1.189069763118667E-131
   21.4263000000000         2.260824776504329E-131
   21.6657000000000         3.608986265405342E-131
   21.9051000000000         3.601387832205003E-131
   22.1445000000000        -4.241403705003394E-131
   22.3839000000000        -3.989616913275954E-130
   22.6233000000000        -1.559092003812067E-129
   22.8627000000000        -4.717771981801928E-129
   23.1021000000000        -1.213458877809248E-128
   23.3415000000000        -2.678778807010037E-128
   23.5809000000000        -4.821579085836745E-128
   23.8203000000000        -5.518097228522632E-128
   24.0597000000000         4.928451942797806E-128
   24.2991000000000         5.859741293706874E-127
   24.5385000000000         2.448084367380253E-126
   24.7779000000000         7.809877573025490E-126
   25.0173000000000         2.129140374031551E-125
   25.2567000000000         5.109740688177669E-125
   25.4961000000000         1.074541751809359E-124
   25.7355000000000         1.892205675902163E-124
   25.9749000000000         2.333204013112684E-124
   26.2143000000000        -3.433530923109984E-125
   26.4537000000000        -1.477749196626111E-123
   26.6931000000000        -6.405581853223009E-123
   26.9325000000000        -2.028404540818622E-122
   27.1719000000000        -5.470671220536403E-122
   27.4113000000000        -1.314615931627887E-121
   27.6507000000000        -2.852443170771620E-121
   27.8901000000000        -5.560205281505612E-121
   28.1295000000000        -9.464854243853933E-121
   28.3689000000000        -1.287957451980175E-120
   28.6083000000000        -9.005093730809257E-121
   28.8477000000000         2.152306438314675E-120
   29.0871000000000         1.250069469334311E-119
   29.3265000000000         3.986489607724810E-119
   29.5659000000000         1.022587486406993E-118
   29.8053000000000         2.283779058902184E-118
   30.0447000000000         4.537787786205396E-118
   30.2841000000000         7.973455958256239E-118
   30.5235000000000         1.189455263461894E-117
   30.7629000000000         1.299282167711906E-117
   31.0023000000000         1.787264004864428E-118
   31.2417000000000        -4.378512767238806E-117
   31.4811000000000        -1.682307112587511E-116
   31.7205000000000        -4.502958604740048E-116
   31.9599000000000        -1.009231774411472E-115
   32.1993000000000        -1.984804992995374E-115
   32.4387000000000        -3.445118611460510E-115
   32.6781000000000        -5.135031671136874E-115
   32.9175000000000        -5.922245308831848E-115
   33.1569000000000        -2.746979236684660E-115
   33.3963000000000         1.110708899285260E-114
   33.6357000000000         4.839566398724762E-114
   33.8751000000000         1.302701064129260E-113
   34.1145000000000         2.864116150503737E-113
   34.3539000000000         5.478161257281751E-113
   34.5933000000000         9.222192008925201E-113
   34.8327000000000         1.335293377915837E-112
   35.0721000000000         1.513490388440596E-112
   35.3115000000000         7.818630885462080E-113
   35.5509000000000        -2.235887107149638E-112
   35.7903000000000        -9.975353169024901E-112
   36.0297000000000        -2.618052425880377E-111
   36.2691000000000        -5.562703736440338E-111
   36.5085000000000        -1.024802700681209E-110
   36.7479000000000        -1.658409875511043E-110
   36.9873000000000        -2.303356312875506E-110
   37.2267000000000        -2.491695875785380E-110
   37.4661000000000        -1.176741710101511E-110
   37.7055000000000         3.614640233916089E-110
   37.9449000000000         1.511997994711586E-109
   38.1843000000000         3.791339772346621E-109
   38.4237000000000         7.717713597598422E-109
   38.6631000000000         1.362281574725393E-108
   38.9025000000000         2.108629166536071E-108
   39.1419000000000         2.786900445321997E-108
   39.3813000000000         2.817525056575685E-108
   39.6207000000000         1.021972066226611E-108
   39.8601000000000        -4.651905184581357E-108
   40.0995000000000        -1.731374465894628E-107
   40.3389000000000        -4.095588971531564E-107
   40.5783000000000        -7.943455658258456E-107
   40.8177000000000        -1.338502744463673E-106
   41.0571000000000        -1.973245680423827E-106
   41.2965000000000        -2.461352326187352E-106
   41.5359000000000        -2.267001407906875E-106
   41.7753000000000        -3.954763335326118E-107
   42.0147000000000         4.750638191123055E-106
   42.2541000000000         1.538998106657673E-105
   42.4935000000000         3.405284637044620E-105
   42.7329000000000         6.262054651239872E-105
   42.9723000000000         1.002732914012992E-104
   43.2117000000000         1.398608558991739E-104
   43.4511000000000         1.623670719145033E-104
   43.6905000000000         1.297036137175158E-104
   43.9299000000000        -2.268301845101045E-105
   44.1693000000000        -3.896780844854640E-104
   44.4087000000000        -1.089729094593733E-103
   44.6481000000000        -2.235944872229397E-103
   44.8875000000000        -3.869142427223138E-103
   45.1269000000000        -5.834731193046391E-103
   45.3663000000000        -7.589578234964471E-103
   45.6057000000000        -7.942244369231336E-103
   45.8451000000000        -4.768837959430116E-103
   46.0845000000000         5.183824904960186E-103
   46.3239000000000         2.619088136909634E-102
   46.5633000000000         6.278647807549753E-102
   46.8027000000000         1.178596675571045E-101
   47.0421000000000         1.890584862544387E-101
   47.2815000000000         2.630783768081778E-101
   47.5209000000000         3.079147992278783E-101
   47.7603000000000         2.642733958878558E-101
   47.9997000000000         3.927891015231703E-102
   48.2391000000000        -4.915025443720791E-101
   48.4785000000000        -1.464172642206743E-100
   48.7179000000000        -2.975900668671819E-100
   48.9573000000000        -4.989705957081343E-100
   49.1967000000000        -7.185196799668208E-100
   49.4361000000000        -8.760617292556764E-100
   49.6755000000000        -8.222181533590673E-100
   49.9149000000000        -3.247736749133695E-100
   50.1543000000000         9.216615203381305E-100
   50.3937000000000         3.238626469212002E-099
   50.6331000000000         6.828891233134513E-099
   50.8725000000000         1.153378819829768E-098
   51.1119000000000         1.646928486476382E-098
   51.3513000000000         1.957065946714849E-098
   51.5907000000000         1.715798902848942E-098
   51.8301000000000         3.763374782466988E-099
   52.0695000000000        -2.737059327691642E-098
   52.3089000000000        -8.253752275527201E-098
   52.5483000000000        -1.638752890450131E-097
   52.7877000000000        -2.631665333595144E-097
   53.0271000000000        -3.531012580694473E-097
   53.2665000000000        -3.771912171210710E-097
   53.5059000000000        -2.416676408300560E-097
   53.7453000000000         1.841567322541406E-097
   53.9847000000000         1.048721203179353E-096
   54.2241000000000         2.466339840333049E-096
   54.4635000000000         4.417511218366262E-096
   54.7029000000000         6.590944343387370E-096
   54.9423000000000         8.172139942206433E-096
   55.1817000000000         7.614983335241704E-096
   55.4211000000000         2.485425315783852E-096
   55.6605000000000        -1.045957096556667E-095
   55.8999000000000        -3.470798433693162E-095
   56.1393000000000        -7.261981352590884E-095
   56.3787000000000        -1.229093981576134E-094
   56.6181000000000        -1.767752830109467E-094
   56.8575000000000        -2.128446627966618E-094
   57.0969000000000        -1.918392432542978E-094
   57.3363000000000        -5.306616711898946E-095
   57.5757000000000         2.835141218665036E-094
   57.8151000000000         9.040029836865882E-094
   58.0545000000000         1.868850558554522E-093
   58.2939000000000         3.155299129088564E-093
   58.5333000000000         4.569368156212651E-093
   58.7727000000000         5.630751686256959E-093
   59.0121000000000         5.449557522954001E-093
   59.2515000000000         2.638763626552752E-093
   59.4909000000000        -4.659556007937380E-093
   59.7303000000000        -1.851698918914893E-092
   59.9697000000000        -4.057998527699030E-092
   60.2091000000000        -7.089189778048606E-092
   60.4485000000000        -1.060689507505336E-091
   60.6879000000000        -1.368733064683102E-091
   60.9273000000000        -1.455216113488652E-091
   61.1667000000000        -1.035430820402589E-091
   61.4061000000000         2.834273680953642E-092
   61.6455000000000         2.960947971142541E-091
   61.8849000000000         7.410535836930285E-091
   62.1243000000000         1.378332595857164E-090
   62.3637000000000         2.162523435732243E-090
   62.6031000000000         2.940857682208294E-090
   62.8425000000000         3.399057538865684E-090
   63.0819000000000         3.013432568319043E-090
   63.3213000000000         1.034429660370283E-090
   63.5607000000000        -3.459292010079528E-090
   63.8001000000000        -1.138419938377270E-089
   64.0395000000000        -2.329433544139394E-089
   64.2789000000000        -3.879429443690974E-089
   64.5183000000000        -5.571216572165981E-089
   64.7577000000000        -6.910219340775852E-089
   64.9971000000000        -7.028136119556276E-089
   65.2365000000000        -4.629602993529255E-089
   65.4759000000000         1.955081426318599E-089
   65.7153000000000         1.452496469892029E-088
   65.9547000000000         3.447099845700672E-088
   66.1941000000000         6.185528366005057E-088
   66.4335000000000         9.406802055172248E-088
   66.6729000000000         1.241398674493592E-087
   66.9123000000000         1.389888969752028E-087
   67.1517000000000         1.181759196377779E-087
   67.3911000000000         3.411210568139032E-088
   67.6305000000000        -1.449528888595128E-087
   67.8699000000000        -4.475604811535506E-087
   68.1093000000000        -8.857285845481868E-087
   68.3487000000000        -1.434766479081159E-086
   68.5881000000000        -2.006857649388986E-086
   68.8275000000000        -2.421860227412345E-086
   69.0669000000000        -2.383003190815708E-086
   69.3063000000000        -1.470633698254143E-086
   69.5457000000000         8.268651568439862E-087
   69.7851000000000         5.021049377531346E-086
   70.0245000000000         1.144540516039764E-085
   70.2639000000000         1.997329873634206E-085
   70.5033000000000         2.963314101777447E-085
   70.7427000000000         3.815855947088636E-085
   70.9821000000000         4.156822614157442E-085
   71.2215000000000         3.394611193931381E-085
   71.4609000000000         7.679764098817263E-086
   71.7003000000000        -4.550810434317042E-085
   71.9397000000000        -1.323652944572120E-084
   72.1791000000000        -2.544434049026576E-084
   72.4185000000000        -4.028660266843858E-084
   72.6579000000000        -5.518799721999499E-084
   72.8973000000000        -6.522529205653502E-084
   73.1367000000000        -6.265744114117870E-084
   73.3761000000000        -3.697041953613432E-084
   73.6155000000000         2.412295780255292E-084
   73.8549000000000         1.322155032996235E-083
   74.0943000000000         2.937898363488819E-083
   74.3337000000000         5.035903677579780E-083
   74.5731000000000         7.360087858109873E-083
   74.8125000000000         9.355469711727199E-083
   75.0519000000000         1.008635929856026E-082
   75.2913000000000         8.206110467944085E-083
   75.5307000000000         2.032466472742394E-083
   75.7701000000000        -1.020505542095600E-082
   76.0095000000000        -2.987746991428577E-082
   76.2489000000000        -5.717828142474871E-082
   76.4883000000000        -9.005437009871092E-082
   76.7277000000000        -1.229359054721980E-081
   76.9671000000000        -1.454937857966773E-081
   77.2065000000000        -1.418353310665989E-081
   77.4459000000000        -9.075461218052956E-082
   77.6853000000000         3.216144421500301E-082
   77.9247000000000         2.496801587256362E-081
   78.1641000000000         5.745423178387389E-081
   78.4035000000000         9.972108555857183E-081
   78.6429000000000         1.470305726702062E-080
   78.8823000000000         1.891740991400227E-080
   79.1217000000000         2.090608338708697E-080
   79.3611000000000         1.822293394852029E-080
   79.6005000000000         7.817650698251583E-081
   79.8399000000000        -1.354279812951955E-080
   80.0793000000000        -4.845786480287777E-080
   80.3187000000000        -9.760842965365226E-080
   80.5581000000000        -1.580092043219478E-079
   80.7975000000000        -2.209456596120283E-079
   81.0369000000000        -2.699511032433682E-079
   81.2763000000000        -2.794470278475959E-079
   81.5157000000000        -2.149641985117038E-079
   81.7551000000000        -3.611852910098712E-080
   81.9945000000000         2.963685641225066E-079
   82.2339000000000         8.084822247032271E-079
   82.4733000000000         1.495052017063339E-078
   82.7127000000000         2.296941439206815E-078
   82.9521000000000         3.075979344919396E-078
   83.1915000000000         3.593015329633728E-078
   83.4309000000000         3.497686760607624E-078
   83.6703000000000         2.341686969704328E-078
   83.9097000000000        -3.703791539821701E-079
   84.1491000000000        -5.078390106131095E-078
   84.3885000000000        -1.200200409147304E-077
   84.6279000000000        -2.091302353604505E-077
   84.8673000000000        -3.086077891788441E-077
   85.1067000000000        -3.989123936018244E-077
   85.3461000000000        -4.483231037066766E-077
   85.5855000000000        -4.125293036644038E-077
   85.8249000000000        -2.373500304624154E-077
   86.0643000000000         1.338633446706214E-077
   86.3037000000000         7.467234454643136E-077
   86.5431000000000         1.615403601866700E-076
   86.7825000000000         2.695814796150811E-076
   87.0219000000000         3.854907691269917E-076
   87.2613000000000         4.841502591841568E-076
   87.5007000000000         5.267500925319465E-076
   87.7401000000000         4.611877062084791E-076
   87.9795000000000         2.262617414571097E-076
   88.2189000000000        -2.387509000578280E-076
   88.4583000000000        -9.778416612299372E-076
   88.6977000000000        -1.994887214622388E-075
   88.9371000000000        -3.224225426728258E-075
   89.1765000000000        -4.498606981109829E-075
   89.4159000000000        -5.520988881334460E-075
   89.6553000000000        -5.850113560287266E-075
   89.8947000000000        -4.913118546476011E-075
   90.1341000000000        -2.060578641032804E-075
   90.3735000000000         3.320932513344870E-075
   90.6129000000000         1.162805092552714E-074
   90.8523000000000         2.279094763635538E-074
   91.0917000000000         3.597111530897420E-074
   91.3311000000000         4.924723847655843E-074
   91.5705000000000         5.936005812584348E-074
   91.8099000000000         6.161981807128276E-074
   92.0493000000000         5.010834089105377E-074
   92.2887000000000         1.832214009212353E-074
   92.5281000000000        -3.960960193162048E-074
   92.7675000000000        -1.270523797942753E-073
   93.0069000000000        -2.423683476513919E-073
   93.2463000000000        -3.759953747952912E-073
   93.4857000000000        -5.075416139953991E-073
   93.7251000000000        -6.036156322945241E-073
   93.9645000000000        -6.173998774821849E-073
   94.2039000000000        -4.912029016703521E-073
   94.4433000000000        -1.632996631888577E-073
   94.6827000000000         4.198263818462749E-073
   94.9221000000000         1.285314526995944E-072
   95.1615000000000         2.410395410546537E-072
   95.4009000000000         3.695703520450595E-072
   95.6403000000000         4.939790889034476E-072
   95.8797000000000         5.821662867494440E-072
   96.1191000000000         5.900542330536740E-072
   96.3585000000000         4.643761540718309E-072
   96.5979000000000         1.493851917783184E-072
   96.8373000000000        -4.016428417122679E-072
   97.0767000000000        -1.209821169013383E-071
   97.3161000000000        -2.249695382518860E-071
   97.5555000000000        -3.426096020776913E-071
   97.7949000000000        -4.552824391311243E-071
   98.0343000000000        -5.339233023421189E-071
   98.2737000000000        -5.392633835431206E-071
   98.5131000000000        -4.245640809925872E-071
   98.7525000000000        -1.417340121662786E-071
   98.9919000000000         3.485202015054533E-071
   99.2313000000000         1.062388276563499E-070
   99.4707000000000         1.975248537970099E-070
   99.7101000000000         3.002533532533828E-070
   99.9495000000000         3.982643935791241E-070
   100.188900000000         4.666985532764687E-070
   100.428300000000         4.723601758599449E-070
   100.667700000000         3.761637076781687E-070
   100.907100000000         1.383453367197737E-070
   101.146500000000        -2.730957479793378E-070
   101.385900000000        -8.707101400633887E-070
   101.625300000000        -1.633359692958730E-069
   101.864700000000        -2.491089622290503E-069
   102.104100000000        -3.311929415318502E-069
   102.343500000000        -3.894638624753621E-069
   102.582900000000        -3.972413283215055E-069
   102.822300000000        -3.233038462090206E-069
   103.061700000000        -1.360510449035486E-069
   103.301100000000         1.898665442001627E-069
   103.540500000000         6.644833071649220E-069
   103.779900000000         1.271598327853227E-068
   104.019300000000         1.957302822779653E-068
   104.258700000000         2.620107974036463E-068
   104.498100000000         3.105684539699421E-068
   104.737500000000         3.209915049376454E-068
   104.976900000000         2.694239304803590E-068
   105.216300000000         1.316860506540450E-068
   105.455700000000        -1.118017654595500E-068
   105.695100000000        -4.693371697950763E-068
   105.934500000000        -9.299355274917180E-068
   106.173900000000        -1.454967693928453E-067
   106.413300000000        -1.970987505269745E-067
   106.652700000000        -2.365891749272387E-067
   106.892100000000        -2.491016880936092E-067
   107.131500000000        -2.171943519885576E-067
   107.370900000000        -1.230460921880317E-067
   107.610300000000         4.808513883526189E-068
   107.849700000000         3.031789349022750E-067
   108.089100000000         6.358509088252125E-067
   108.328500000000         1.020490196360983E-066
   108.567900000000         1.407192014562570E-066
   108.807300000000         1.718933115505136E-066
   109.046700000000         1.852739360682829E-066
   109.286100000000         1.686697882159875E-066
   109.525500000000         1.094448823242928E-066
   109.764900000000        -3.186668388993715E-068
   110.004300000000        -1.750417101613612E-066
   110.243700000000        -4.032220795867048E-066
   110.483100000000        -6.721643188311175E-066
   110.722500000000        -9.501635601381726E-066
   110.961900000000        -1.187300349640591E-065
   111.201300000000        -1.315891656142918E-065
   111.440700000000        -1.254655163003031E-065
   111.680100000000        -9.176439556932231E-066
   111.919500000000        -2.286039959033626E-066
   112.158900000000         8.593258062961760E-066
   112.398300000000         2.339729454532506E-065
   112.637700000000         4.127387491468676E-065
   112.877100000000         6.035218591629529E-065
   113.116500000000         7.759339181074015E-065
   113.355900000000         8.879091722799908E-065
   113.595300000000         8.879359455578580E-065
   113.834700000000         7.201777895965573E-065
   114.074100000000         3.329145586112972E-065
   114.313500000000        -3.096893031388468E-065
   114.552900000000        -1.213107794320741E-064
   114.792300000000        -2.336692093911832E-064
   115.031700000000        -3.578967665379820E-064
   115.271100000000        -4.767242781446047E-064
   115.510500000000        -5.655509392263663E-064
   115.749900000000        -5.934941564145905E-064
   115.989300000000        -5.260970262899489E-064
   116.228700000000        -3.299697059014685E-064
   116.468100000000         2.058790462386103E-065
   116.707500000000         5.352774388922233E-064
   116.946900000000         1.198547684709466E-063
   117.186300000000         1.960646980016342E-063
   117.425700000000         2.730750066502757E-063
   117.665100000000         3.374352730235216E-063
   117.904500000000         3.717345885806395E-063
   118.143900000000         3.559059709706386E-063
   118.383300000000         2.695979419211224E-063
   118.622700000000         9.566771629387891E-064
   118.862100000000        -1.753261932793125E-063
   119.101500000000        -5.399866369019327E-063
   119.340900000000        -9.769214170981165E-063
   119.580300000000        -1.442471205410979E-062
   119.819700000000        -1.868463058357497E-062
   120.059100000000        -2.163269373581687E-062
   120.298500000000        -2.217424289710261E-062
   120.537900000000        -1.914789279639416E-062
   120.777300000000        -1.149714305063650E-062
   121.016700000000         1.502140887834883E-063
   121.256100000000         1.997391086728926E-062
   121.495500000000         4.316287021097618E-062
   121.734900000000         6.918741643936859E-062
   121.974300000000         9.488042549699160E-062
   122.213700000000         1.157818477543595E-061
   122.453100000000         1.263475523617986E-061
   122.692500000000         1.204284363385312E-061
   122.931900000000         9.204987847516266E-062
   123.171300000000         3.648281617564543E-062
   123.410700000000        -4.845526582274230E-062
   123.650100000000        -1.609949246036079E-061
   123.889500000000        -2.940983759572915E-061
   124.128900000000        -4.344877865263678E-061
   124.368300000000        -5.623174504679616E-061
   124.607700000000        -6.517992574206005E-061
   124.847100000000        -6.730529258250252E-061
   125.086500000000        -5.953541389171144E-061
   125.325900000000        -3.917882765347796E-061
   125.565300000000        -4.508705088272619E-062
   125.804700000000         4.458559038645539E-061
   126.044100000000         1.059598472068209E-060
   126.283500000000         1.746984682533416E-060
   126.522900000000         2.428501622159409E-060
   126.762300000000         2.995530089239001E-060
   127.001700000000         3.316728690767587E-060
   127.241100000000         3.250404497564896E-060
   127.480500000000         2.663053047939295E-060
   127.719900000000         1.453305267606096E-060
   127.959300000000        -4.206422145926959E-061
   128.198700000000        -2.913296215994828E-060
   128.438100000000        -5.868198626974844E-060
   128.677500000000        -9.003555999602696E-060
   128.916900000000        -1.191270885309208E-059
   129.156300000000        -1.408446810489148E-059
   129.395700000000        -1.494680686684593E-059
   129.635100000000        -1.393473220280724E-059
   129.874500000000        -1.057943419297437E-059
   130.113900000000        -4.611288296357863E-060
   130.353300000000         3.935521666626914E-060
   130.592700000000         1.463334792006278E-059
   130.832100000000         2.660595305776279E-059
   131.071500000000         3.852805501817792E-059
   131.310900000000         4.869691399249834E-059
   131.550300000000         5.518652663062121E-059
   131.789700000000         5.608394980894485E-059
   132.029100000000         4.979250511408270E-059
   132.268500000000         3.536951032388169E-059
   132.507900000000         1.284910247566052E-059
   132.747300000000        -1.651309481969410E-059
   132.986700000000        -5.014338312156203E-059
   133.226100000000        -8.426695240504100E-059
   133.465500000000        -1.142848922720865E-058
   133.704900000000        -1.354223346090262E-058
   133.944300000000        -1.436075088798329E-058
   134.183700000000        -1.364782071965757E-058
   134.423100000000        -1.143447840263169E-058
   134.662500000000        -8.087935324591553E-059
   134.901900000000        -4.326477343977392E-059
   135.141300000000        -1.154173479780294E-059
   135.380700000000         3.045486154486764E-060
   135.620100000000        -9.228243067870679E-060
   135.859500000000        -5.291682119543763E-059
   136.098900000000        -1.232318077162326E-058
   136.338300000000        -2.020727624618356E-058
   136.577700000000        -2.552830672405855E-058
   136.817100000000        -2.323876884997171E-058
   137.056500000000        -7.015080296126462E-059
   137.295900000000         2.988646736479987E-058
   137.535300000000         9.320261658834900E-058
   137.774700000000         1.856782804591662E-057
   138.014100000000         3.046593489088390E-057
   138.253500000000         4.395521929525999E-057
   138.492900000000         5.696088876159979E-057
   138.732300000000         6.626584560224992E-057