  -1.79550000000000         0.000000000000000E+000
  -1.55610000000000         0.000000000000000E+000
  -1.31670000000000         0.000000000000000E+000
  -1.07730000000000         0.000000000000000E+000
 -0.837900000000000         0.000000000000000E+000
 -0.598500000000000         0.000000000000000E+000
 -0.359100000000000         0.000000000000000E+000
 -0.119700000000000         0.000000000000000E+000
  0.119700000000000         0.000000000000000E+000
  0.359100000000000         0.000000000000000E+000
  0.598500000000000         0.000000000000000E+000
  0.837900000000000         0.000000000000000E+000
   1.07730000000000         0.000000000000000E+000
   1.31670000000000         0.000000000000000E+000
   1.55610000000000         0.000000000000000E+000
   1.79550000000000         0.000000000000000E+000
   2.03490000000000         0.000000000000000E+000
   2.27430000000000         0.000000000000000E+000
   2.51370000000000         0.000000000000000E+000
   2.75310000000000         0.000000000000000E+000
   2.99250000000000         0.000000000000000E+000
   3.23190000000000         0.000000000000000E+000
   3.47130000000000         0.000000000000000E+000
   3.71070000000000         0.000000000000000E+000
   3.95010000000000         0.000000000000000E+000
   4.18950000000000         0.000000000000000E+000
   4.42890000000000         0.000000000000000E+000
   4.66830000000000         0.000000000000000E+000
   4.90770000000000         0.000000000000000E+000
   5.14710000000000         0.000000000000000E+000
   5.38650000000000         0.000000000000000E+000
   5.62590000000000         0.000000000000000E+000
   5.86530000000000         0.000000000000000E+000
   6.10470000000000         0.000000000000000E+000
   6.34410000000000         0.000000000000000E+000
   6.58350000000000         0.000000000000000E+000
   6.82290000000000         0.000000000000000E+000
   7.06230000000000         0.000000000000000E+000
   7.30170000000000         0.000000000000000E+000
   7.54110000000000         0.000000000000000E+000
   7.78050000000000         0.000000000000000E+000
   8.01990000000000         0.000000000000000E+000
   8.25930000000000         0.000000000000000E+000
   8.49870000000000         0.000000000000000E+000
   8.73810000000000         0.000000000000000E+000
   8.97750000000000         0.000000000000000E+000
   9.21690000000000         0.000000000000000E+000
   9.45630000000000        -4.522760467948322E-181
   9.69570000000000         2.951585214762931E-173
   9.93510000000000        -8.307661394092929E-173
   10.1745000000000        -3.903962757054441E-169
   10.4139000000000        -1.378449677443684E-167
   10.6533000000000         2.421240249496184E-166
   10.8927000000000         3.205443936956145E-164
   11.1321000000000         1.270034764523979E-162
   11.3715000000000         3.271276557755566E-161
   11.6109000000000         6.391122457326603E-160
   11.8503000000000         1.013807888505516E-158
   12.0897000000000         1.357621429501358E-157
   12.3291000000000         1.574193405429992E-156
   12.5685000000000         1.608701520004865E-155
   12.8079000000000         1.467504703794385E-154
   13.0473000000000         1.206128105629402E-153
   13.2867000000000         8.989043582480799E-153
   13.5261000000000         6.098103631703017E-152
   13.7655000000000         3.768955962854950E-151
   14.0049000000000         2.115610034887317E-150
   14.2443000000000         1.067918881267028E-149
   14.4837000000000         4.731760606870555E-149
   14.7231000000000         1.726283884621854E-148
   14.9625000000000         4.049279336784507E-148
   15.2019000000000        -6.777373609761120E-148
   15.4413000000000        -1.720650593332206E-146
   15.6807000000000        -1.480995707953660E-145
   15.9201000000000        -9.823669264044397E-145
   16.1595000000000        -5.684269842293966E-144
   16.3989000000000        -3.001156494884422E-143
   16.6383000000000        -1.478313220056129E-142
   16.8777000000000        -6.883328254437696E-142
   17.1171000000000        -3.056005997185723E-141
   17.3565000000000        -1.301778672179968E-140
   17.5959000000000        -5.345522403980376E-140
   17.8353000000000        -2.123752107257958E-139
   18.0747000000000        -8.187111512730198E-139
   18.3141000000000        -3.069391257000637E-138
   18.5535000000000        -1.121043798283314E-137
   18.7929000000000        -3.993943419474948E-137
   19.0323000000000        -1.389269044757385E-136
   19.2717000000000        -4.721034279810335E-136
   19.5111000000000        -1.567869259017382E-135
   19.7505000000000        -5.089592343833931E-135
   19.9899000000000        -1.615047375334064E-134
   20.2293000000000        -5.009794462475325E-134
   20.4687000000000        -1.519099585382946E-133
   20.7081000000000        -4.502959378656677E-133
   20.9475000000000        -1.304965812526626E-132
   21.1869000000000        -3.698087660703629E-132
   21.4263000000000        -1.025122825327496E-131
   21.6657000000000        -2.781033894042338E-131
   21.9051000000000        -7.388515503195628E-131
   22.1445000000000        -1.923996086974191E-130
   22.3839000000000        -4.916039135916660E-130
   22.6233000000000        -1.234102595672116E-129
   22.8627000000000        -3.048287268370910E-129
   23.1021000000000        -7.420506570203787E-129
   23.3415000000000        -1.783237432694173E-128
   23.5809000000000        -4.237116397125158E-128
   23.8203000000000        -9.967710538102978E-128
   24.0597000000000        -2.323677875551706E-127
   24.2991000000000        -5.369689546331911E-127
   24.5385000000000        -1.229571549361146E-126
   24.7779000000000        -2.786881367088536E-126
   25.0173000000000        -6.241415980595369E-126
   25.2567000000000        -1.377977696993368E-125
   25.4961000000000        -2.990840160240111E-125
   25.7355000000000        -6.361694004809272E-125
   25.9749000000000        -1.321490809797349E-124
   26.2143000000000        -2.670313486026311E-124
   26.4537000000000        -5.224905562153259E-124
   26.6931000000000        -9.843552471884713E-124
   26.9325000000000        -1.772118608159982E-123
   27.1719000000000        -3.014900968157758E-123
   27.4113000000000        -4.759311458635304E-123
   27.6507000000000        -6.730065035169729E-123
   27.8901000000000        -7.815606530389342E-123
   28.1295000000000        -5.114318120755167E-123
   28.3689000000000         7.577244270244011E-123
   28.6083000000000         4.166471014260296E-122
   28.8477000000000         1.150522392298411E-121
   29.0871000000000         2.500589671141905E-121
   29.3265000000000         4.620645554191903E-121
   29.5659000000000         7.288854699528641E-121
   29.8053000000000         9.284951908534808E-121
   30.0447000000000         7.405532677549759E-121
   30.2841000000000        -4.543825949980295E-121
   30.5235000000000        -3.534652073094269E-120
   30.7629000000000        -9.064701141867708E-120
   31.0023000000000        -1.532153541002920E-119
   31.2417000000000        -1.328368848635497E-119
   31.4811000000000         2.400573610964738E-119
   31.7205000000000         1.607989721035158E-118
   31.9599000000000         5.280651423128696E-118
   32.1993000000000         1.356125657755911E-117
   32.4387000000000         2.980993937163982E-117
   32.6781000000000         5.744498729096184E-117
   32.9175000000000         9.612409270000095E-117
   33.1569000000000         1.317878958455656E-116
   33.3963000000000         1.151985532286912E-116
   33.6357000000000        -7.803708128872482E-117
   33.8751000000000        -7.115105069515553E-116
   34.1145000000000        -2.270938734737196E-115
   34.3539000000000        -5.528883445511098E-115
   34.5933000000000        -1.148140138118071E-114
   34.8327000000000        -2.090626119652272E-114
   35.0721000000000        -3.305868100562513E-114
   35.3115000000000        -4.269648336864724E-114
   35.5509000000000        -3.430418516951866E-114
   35.7903000000000         2.763820548468032E-114
   36.0297000000000         2.125325994370837E-113
   36.2691000000000         6.386004158812885E-113
   36.5085000000000         1.478017761285438E-112
   36.7479000000000         2.926110756988392E-112
   36.9873000000000         5.082722612601081E-112
   37.2267000000000         7.657225608353038E-112
   37.4661000000000         9.368927410031323E-112
   37.7055000000000         6.898223655188369E-112
   37.9449000000000        -6.687970922872151E-112
   38.1843000000000        -4.384350935063412E-111
   38.4237000000000        -1.239298091911367E-110
   38.6631000000000        -2.719220310392312E-110
   38.9025000000000        -5.100684389900560E-110
   39.1419000000000        -8.349847588225830E-110
   39.3813000000000        -1.169156453185951E-109
   39.6207000000000        -1.273941853150105E-109
   39.8601000000000        -6.154390858441581E-110
   40.0995000000000         1.806575996858455E-109
   40.3389000000000         7.609674643441674E-109
   40.5783000000000         1.901058813063822E-108
   40.8177000000000         3.833430297850104E-108
   41.0571000000000         6.652816754355134E-108
   41.2965000000000         9.991491211300120E-108
   41.5359000000000         1.242768609487981E-107
   41.7753000000000         1.056051861834459E-107
   42.0147000000000        -2.201848272381598E-108
   42.2541000000000        -3.681334074269157E-107
   42.4935000000000        -1.088454362616348E-106
   42.7329000000000        -2.360479608998985E-106
   42.9723000000000        -4.301715364762626E-106
   43.2117000000000        -6.786101135112009E-106
   43.4511000000000        -9.105856979170694E-106
   43.6905000000000        -9.438033013429554E-106
   43.9299000000000        -4.133505801643166E-106
   44.1693000000000         1.301026295038768E-105
   44.4087000000000         5.105531476133789E-105
   44.6481000000000         1.209219165785548E-104
   44.8875000000000         2.315754178007321E-104
   45.1269000000000         3.812222045808661E-104
   45.3663000000000         5.409302631988984E-104
   45.6057000000000         6.286218828114338E-104
   45.8451000000000         4.739914713099949E-104
   46.0845000000000        -2.187819698648252E-104
   46.3239000000000        -1.891702968345866E-103
   46.5633000000000        -5.099072409740671E-103
   46.8027000000000        -1.035523593430324E-102
   47.0421000000000        -1.777243684443162E-102
   47.2815000000000        -2.638093457012147E-102
   47.5209000000000        -3.304489870718557E-102
   47.7603000000000        -3.098977192717423E-102
   47.9997000000000        -8.200000911392656E-103
   48.2391000000000         5.360190316044152E-102
   48.4785000000000         1.779745570179814E-101
   48.7179000000000         3.884129565228614E-101
   48.9573000000000         6.952922260518145E-101
   49.1967000000000         1.071201912216499E-100
   49.4361000000000         1.411569453983338E-100
   49.6755000000000         1.481067835279537E-100
   49.9149000000000         8.546560790499899E-101
   50.1543000000000        -1.122680966486485E-100
   50.3937000000000        -5.310006169491984E-100
   50.6331000000000        -1.260038465030612E-099
   50.8725000000000        -2.349779351990487E-099
   51.1119000000000        -3.731601446788363E-099
   51.3513000000000        -5.090193891953754E-099
   51.5907000000000        -5.690061184582042E-099
   51.8301000000000        -4.183920804190788E-099
   52.0695000000000         1.522886392958039E-099
   52.3089000000000         1.420774653570661E-098
   52.5483000000000         3.683225833650915E-098
   52.7877000000000         7.128743304279792E-098
   53.0271000000000         1.160173871256865E-097
   53.2665000000000         1.622405200964768E-097
   53.5059000000000         1.888204494294711E-097
   53.7453000000000         1.565764574652028E-097
   53.9847000000000         4.118977082282304E-099
   54.2241000000000        -3.507736968790312E-097
   54.4635000000000        -9.977909535138686E-097
   54.7029000000000        -1.999907448878808E-096
   54.9423000000000        -3.328421689065003E-096
   55.1817000000000        -4.759483944175148E-096
   55.4211000000000        -5.733089672625673E-096
   55.6605000000000        -5.194598613752468E-096
   55.8999000000000        -1.472099768116826E-096
   56.1393000000000         7.707809046083022E-096
   56.3787000000000         2.490143710966123E-095
   56.6181000000000         5.210118055911234E-095
   56.8575000000000         8.910382736417376E-095
   57.0969000000000         1.308861866163692E-094
   57.3363000000000         1.639828009059066E-094
   57.5757000000000         1.623084045309248E-094
   57.8151000000000         8.365062695977076E-095
   58.0545000000000        -1.307784945213432E-094
   58.2939000000000        -5.498708312832173E-094
   58.5333000000000        -1.233875508299861E-093
   58.7727000000000        -2.197141013541307E-093
   59.0121000000000        -3.346934422643740E-093
   59.2515000000000        -4.397064736703013E-093
   59.4909000000000        -4.764502722475294E-093
   59.7303000000000        -3.473995258421474E-093
   59.9697000000000         8.790225429012258E-094
   60.2091000000000         1.002424703648868E-092
   60.4485000000000         2.565356659486105E-092
   60.6879000000000         4.865790628881726E-092
   60.9273000000000         7.783073132556177E-092
   61.1667000000000         1.079780234505135E-091
   61.4061000000000         1.275532131633558E-091
   61.6455000000000         1.162626363846023E-091
   61.8849000000000         4.359120660782978E-092
   62.1243000000000        -1.301329314060553E-091
   62.3637000000000        -4.477733385565637E-091
   62.6031000000000        -9.415604888687536E-091
   62.8425000000000        -1.608387650926201E-090
   63.0819000000000        -2.372280911202270E-090
   63.3213000000000        -3.035080237094814E-090
   63.5607000000000        -3.222106051602142E-090
   63.8001000000000        -2.338729717633961E-090
   64.0395000000000         4.336718602434461E-091
   64.2789000000000         6.059208046666781E-090
   64.5183000000000         1.542985453926439E-089
   64.7577000000000         2.894650943557055E-089
   64.9971000000000         4.584864029790634E-089
   65.2365000000000         6.328586271627106E-089
   65.4759000000000         7.521492208551502E-089
   65.7153000000000         7.135583970788134E-089
   65.9547000000000         3.665601748738107E-089
   66.1941000000000        -4.802383904390405E-089
   66.4335000000000        -2.030205823400106E-088
   66.6729000000000        -4.436200355641402E-088
   66.9123000000000        -7.693651704147688E-088
   67.1517000000000        -1.148372740862352E-087
   67.3911000000000        -1.497366985370693E-087
   67.6305000000000        -1.660367129198115E-087
   67.8699000000000        -1.392308864524735E-087
   68.1093000000000        -3.582260516164982E-088
   68.3487000000000         1.836605056383116E-087
   68.5881000000000         5.566215466031140E-087
   68.8275000000000         1.103290126188630E-086
   69.0669000000000         1.803051323545259E-086
   69.3063000000000         2.562233182940194E-086
   69.5457000000000         3.176340828891660E-086
   69.7851000000000         3.294432613259733E-086
   70.0245000000000         2.399796270083765E-086
   70.2639000000000        -1.712734455627187E-087
   70.5033000000000        -5.143466019427578E-086
   70.7427000000000        -1.311582165280867E-085
   70.9821000000000        -2.424408786523006E-085
   71.2215000000000        -3.777753748100532E-085
   71.4609000000000        -5.147073575073084E-085
   71.7003000000000        -6.095054277346600E-085
   71.9397000000000        -5.920569189573845E-085
   72.1791000000000        -3.647634329067165E-085
   72.4185000000000         1.906141154244570E-085
   72.6579000000000         1.193275205298592E-084
   72.8973000000000         2.725794631581095E-084
   73.1367000000000         4.774847232925135E-084
   73.3761000000000         7.150074011017622E-084
   73.6155000000000         9.387737117826654E-084
   73.8549000000000         1.065641884481599E-083
   74.0943000000000         9.696318864498317E-084
   74.3337000000000         4.840345703575698E-084
   74.5731000000000        -5.819043865834008E-084
   74.8125000000000        -2.404410199293858E-083
   75.0519000000000        -5.077973623148108E-083
   75.2913000000000        -8.515921418650034E-083
   75.5307000000000        -1.232207033434184E-082
   75.7701000000000        -1.564843046818217E-082
   76.0095000000000        -1.707071392548911E-082
   76.2489000000000        -1.453444134405077E-082
   76.4883000000000        -5.446818933366926E-083
   76.7277000000000         1.299239678233230E-082
   76.9671000000000         4.312310294400746E-082
   77.2065000000000         8.574301193249705E-082
   77.4459000000000         1.385954873663009E-081
   77.6853000000000         1.945256618267849E-081
   77.9247000000000         2.395816044682260E-081
   78.1641000000000         2.515764984008277E-081
   78.4035000000000         1.999059496475362E-081
   78.6429000000000         4.768072636527902E-082
   78.8823000000000        -2.425980696327726E-081
   79.1217000000000        -6.986540363158450E-081
   79.3611000000000        -1.322619106064890E-080
   79.6005000000000        -2.070067684294380E-080
   79.8399000000000        -2.825887266312787E-080
   80.0793000000000        -3.381426755256491E-080
   80.3187000000000        -3.420443507531039E-080
   80.5581000000000        -2.524672145591467E-080
   80.7975000000000        -2.125905671948837E-081
   81.0369000000000         3.974038616692095E-080
   81.2763000000000         1.032362841082390E-079
   81.5157000000000         1.874358768086728E-079
   81.7551000000000         2.849445718691560E-079
   81.9945000000000         3.790208611448620E-079
   82.2339000000000         4.411123633594518E-079
   82.4733000000000         4.297987202766408E-079
   82.7127000000000         2.924835925720405E-079
   82.9521000000000        -2.858475744422199E-080
   83.1915000000000        -5.844077752527002E-079
   83.4309000000000        -1.400355958152087E-078
   83.6703000000000        -2.450328176200894E-078
   83.9097000000000        -3.625868732197423E-078
   84.1491000000000        -4.704917620282244E-078
   84.3885000000000        -5.328346933998740E-078
   84.6279000000000        -4.996207168354184E-078
   84.8673000000000        -3.098863043510335E-078
   85.1067000000000         1.000300708991025E-078
   85.3461000000000         7.815818132082205E-078
   85.5855000000000         1.751711086340348E-077
   85.8249000000000         2.963810188200312E-077
   86.0643000000000         4.274851841410875E-077
   86.3037000000000         5.414631180665876E-077
   86.5431000000000         5.966643987245298E-077
   86.7825000000000         5.373682576708251E-077
   87.0219000000000         2.983812537935600E-077
   87.2613000000000        -1.847340787238170E-077
   87.5007000000000        -9.585761854958488E-077
   87.7401000000000        -2.027681270206792E-076
   87.9795000000000        -3.324520067042558E-076
   88.2189000000000        -4.677479339730869E-076
   88.4583000000000        -5.783643711214791E-076
   88.6977000000000        -6.196537064177931E-076
   88.9371000000000        -5.341956417149051E-076
   89.1765000000000        -2.576630269877787E-076
   89.4159000000000         2.696654569632929E-076
   89.6553000000000         1.084907401463765E-075
   89.8947000000000         2.178337595105868E-075
   90.1341000000000         3.464878819918970E-075
   90.3735000000000         4.755647351303704E-075
   90.6129000000000         5.736671055887342E-075
   90.8523000000000         5.964712036018934E-075
   91.0917000000000         4.892270098969509E-075
   91.3311000000000         1.934355467582668E-075
   91.5705000000000        -3.412665640802228E-075
   91.8099000000000        -1.139613377671549E-074
   92.0493000000000        -2.178329882817617E-074
   92.2887000000000        -3.361244814724077E-074
   92.5281000000000        -4.496384144788447E-074
   92.7675000000000        -5.281861114195967E-074
   93.0069000000000        -5.309488631348901E-074
   93.2463000000000        -4.096280170130507E-074
   93.4857000000000        -1.153536158122531E-074
   93.7251000000000         3.899902326572090E-074
   93.9645000000000         1.118027455839455E-073
   94.2039000000000         2.034810293560830E-073
   94.4433000000000         3.040926310611444E-073
   94.6827000000000         3.955054281222328E-073
   94.9221000000000         4.506988083949100E-073
   95.1615000000000         4.347518365760959E-073
   95.4009000000000         3.082983710258341E-073
   95.6403000000000         3.411067491496507E-074
   95.8797000000000        -4.128762960920008E-073
   96.1191000000000        -1.032419856777959E-072
   96.3585000000000        -1.783955119087013E-072
   96.5979000000000        -2.572147567395697E-072
   96.8373000000000        -3.236754999576782E-072
   97.0767000000000        -3.551727322178896E-072
   97.3161000000000        -3.239186414941911E-072
   97.5555000000000        -2.003722964671575E-072
   97.7949000000000         4.091656069522754E-073
   98.0343000000000         4.130130223730487E-072
   98.2737000000000         9.063709843738889E-072
   98.5131000000000         1.477950651314721E-071
   98.7525000000000         2.041847811552359E-071
   98.9919000000000         2.464501666596096E-071
   99.2313000000000         2.568242726765753E-071
   99.4707000000000         2.147151664227650E-071
   99.7101000000000         9.985953532510670E-072
   99.9495000000000        -1.027937525621988E-071
   100.188900000000        -3.966204701601320E-071
   100.428300000000        -7.658849200277412E-071
   100.667700000000        -1.168512584469295E-070
   100.907100000000        -1.530879515209945E-070
   101.146500000000        -1.746986101026619E-070
   101.385900000000        -1.684706460095116E-070
   101.625300000000        -1.201681810879754E-070
   101.864700000000        -1.726314061280710E-071
   102.104100000000         1.471807961891791E-070
   102.343500000000         3.697237176815712E-070
   102.582900000000         6.314709548222042E-070
   102.822300000000         8.937205541277292E-070
   103.061700000000         1.095766851939393E-069
   103.301100000000         1.156599108334806E-069
   103.540500000000         9.823124444658348E-070
   103.779900000000         4.807472334600053E-070
   104.019300000000        -4.159520403879754E-070
   104.258700000000        -1.721621273157079E-069
   104.498100000000        -3.362067883035022E-069
   104.737500000000        -5.142257435925526E-069
   104.976900000000        -6.723023811353731E-069
   105.216300000000        -7.618148083708516E-069
   105.455700000000        -7.224083597621259E-069
   105.695100000000        -4.894010660813477E-069
   105.934500000000        -6.427919046479485E-071
   106.173900000000         7.566231879315395E-069
   106.413300000000         1.781521335674997E-068
   106.652700000000         2.978187007096168E-068
   106.892100000000         4.164386981602265E-068
   107.131500000000         5.055125812492205E-068
   107.370900000000         5.269687527611426E-068
   107.610300000000         4.364748985666930E-068
   107.849700000000         1.900805439303459E-068
   108.089100000000        -2.454334313532589E-068
   108.328500000000        -8.787510233063087E-068
   108.567900000000        -1.677939127041126E-067
   108.807300000000        -2.554438712211932E-067
   109.046700000000        -3.350785048551331E-067
   109.286100000000        -3.836927615585976E-067
   109.525500000000        -3.720825762678160E-067
   109.764900000000        -2.678987993048106E-067
   110.004300000000        -4.113545233476083E-068
   110.243700000000         3.278018958229197E-067
   110.483100000000         8.377905963230387E-067
   110.722500000000         1.455474077551032E-066
   110.961900000000         2.104393579455821E-066
   111.201300000000         2.657514479460800E-066
   111.440700000000         2.936667565607627E-066
   111.680100000000         2.722860077963595E-066
   111.919500000000         1.781228306282091E-066
   112.158900000000        -9.669109951247242E-068
   112.398300000000        -3.032956718091607E-066
   112.637700000000        -6.988645807715469E-066
   112.877100000000        -1.168269692108476E-065
   113.116500000000        -1.651789428832499E-065
   113.355900000000        -2.053361712485177E-065
   113.595300000000        -2.240989315850549E-065
   113.834700000000        -2.054967291249423E-065
   114.074100000000        -1.326424015206201E-065
   114.313500000000         9.215950085523014E-067
   114.552900000000         2.284398328156681E-065
   114.792300000000         5.217838316671015E-065
   115.031700000000         8.687865736819662E-065
   115.271100000000         1.226719352538774E-064
   115.510500000000         1.527427838451108E-064
   115.749900000000         1.677714751990844E-064
   115.989300000000         1.565049717421677E-064
   116.228700000000         1.070239049814632E-064
   116.468100000000         8.812448282251259E-066
   116.707500000000        -1.443689949346902E-064
   116.946900000000        -3.509701809677537E-064
   117.186300000000        -5.978703925636929E-064
   117.425700000000        -8.569498511470908E-064
   117.665100000000        -1.082878395869514E-063
   117.904500000000        -1.213185328845638E-063
   118.143900000000        -1.171762348685673E-063
   118.383300000000        -8.768561890776258E-064
   118.622700000000        -2.542564412526820E-064
   118.862100000000         7.442809320318759E-064
   119.101500000000         2.118337730446434E-063
   119.340900000000         3.794142500421060E-063
   119.580300000000         5.601682145962232E-063
   119.819700000000         7.258947523905436E-063
   120.059100000000         8.369900792567052E-063
   120.298500000000         8.443354526502664E-063
   120.537900000000         6.939467858333462E-063
   120.777300000000         3.348560918309132E-063
   121.016700000000        -2.696923053583353E-063
   121.256100000000        -1.128237728657027E-062
   121.495500000000        -2.205575699955211E-062
   121.734900000000        -3.407898856627064E-062
   121.974300000000        -4.571725641482420E-062
   122.213700000000        -5.460519162287342E-062
   122.453100000000        -5.773321816502577E-062
   122.692500000000        -5.169546370672259E-062
   122.931900000000        -3.313020724815378E-062
   123.171300000000         6.372529374840610E-064
   123.410700000000         5.077221877830862E-062
   123.650100000000         1.159954654933530E-061
   123.889500000000         1.916540906977999E-061
   124.128900000000         2.689712954585819E-061
   124.368300000000         3.346956686745095E-061
   124.607700000000         3.713998120376788E-061
   124.847100000000         3.586753568715773E-061
   125.086500000000         2.754225247279379E-061
   125.325900000000         1.033253444791574E-061
   125.565300000000        -1.685684429087888E-061
   125.804700000000        -5.384791364399755E-061
   126.044100000000        -9.863395778720319E-061
   126.283500000000        -1.468958651606413E-060
   126.522900000000        -1.917090126593972E-060
   126.762300000000        -2.235787174205071E-060
   127.001700000000        -2.309458182099600E-060
   127.241100000000        -2.012839812825360E-060
   127.480500000000        -1.228600645398656E-060
   127.719900000000         1.285609088943567E-061
   127.959300000000         2.082659523231624E-060
   128.198700000000         4.564831442037732E-060
   128.438100000000         7.383879286433947E-060
   128.677500000000         1.020500669912474E-059
   128.916900000000         1.254401312847787E-059
   129.156300000000         1.378470134320648E-059
   129.395700000000         1.322660000584500E-059
   129.635100000000         1.016794966936137E-059
   129.874500000000         4.024974167293888E-060
   130.113900000000        -5.517316446178177E-060
   130.353300000000        -1.833496227264277E-059
   130.592700000000        -3.369618173118182E-059
   130.832100000000        -5.012299064429094E-059
   131.071500000000        -6.531969614259977E-059
   131.310900000000        -7.620868414289647E-059
   131.550300000000        -7.911281029673580E-059
   131.789700000000        -7.011550556893904E-059
   132.029100000000        -4.561286913307428E-059
   132.268500000000        -3.045812726358669E-060
   132.507900000000         5.823471255087039E-059
   132.747300000000         1.360579867878389E-058
   132.986700000000         2.246117975021341E-058
   133.226100000000         3.138811043515635E-058
   133.465500000000         3.895470258757959E-058
   133.704900000000         4.335517575513941E-058
   133.944300000000         4.255090720101752E-058
   134.183700000000         3.450740267671625E-058
   134.423100000000         1.752742257107876E-058
   134.662500000000        -9.335135240022580E-059
   134.901900000000        -4.581536545440807E-058
   135.141300000000        -8.998769295032582E-058
   135.380700000000        -1.379034091520022E-057
   135.620100000000        -1.834089330590415E-057
   135.859500000000        -2.182462335002827E-057
   136.098900000000        -2.325314718974203E-057
   136.338300000000        -2.156849346672825E-057
   136.577700000000        -1.578415672144843E-057
   136.817100000000        -5.170587476891907E-058
   137.056500000000         1.052702886846358E-057
   137.295900000000         3.086074018389471E-057
   137.535300000000         5.447377308779952E-057
   137.774700000000         7.895767707907163E-057
   138.014100000000         1.008197834015807E-056
   138.253500000000         1.156087752224690E-056
   138.492900000000         1.182395413751216E-056
   138.732300000000         1.035428365356204E-056