  -1.79550000000000         0.000000000000000E+000
  -1.55610000000000         0.000000000000000E+000
  -1.31670000000000         0.000000000000000E+000
  -1.07730000000000         0.000000000000000E+000
 -0.837900000000000         0.000000000000000E+000
 -0.598500000000000         0.000000000000000E+000
 -0.359100000000000         0.000000000000000E+000
 -0.119700000000000         0.000000000000000E+000
  0.119700000000000         0.000000000000000E+000
  0.359100000000000         0.000000000000000E+000
  0.598500000000000         0.000000000000000E+000
  0.837900000000000         0.000000000000000E+000
   1.07730000000000         0.000000000000000E+000
   1.31670000000000         0.000000000000000E+000
   1.55610000000000         0.000000000000000E+000
   1.79550000000000         0.000000000000000E+000
   2.03490000000000         0.000000000000000E+000
   2.27430000000000         0.000000000000000E+000
   2.51370000000000         0.000000000000000E+000
   2.75310000000000         0.000000000000000E+000
   2.99250000000000         0.000000000000000E+000
   3.23190000000000         0.000000000000000E+000
   3.47130000000000         0.000000000000000E+000
   3.71070000000000         0.000000000000000E+000
   3.95010000000000         0.000000000000000E+000
   4.18950000000000         0.000000000000000E+000
   4.42890000000000         0.000000000000000E+000
   4.66830000000000         0.000000000000000E+000
   4.90770000000000         0.000000000000000E+000
   5.14710000000000         0.000000000000000E+000
   5.38650000000000         0.000000000000000E+000
   5.62590000000000         0.000000000000000E+000
   5.86530000000000         0.000000000000000E+000
   6.10470000000000         0.000000000000000E+000
   6.34410000000000         0.000000000000000E+000
   6.58350000000000         0.000000000000000E+000
   6.82290000000000         0.000000000000000E+000
   7.06230000000000         0.000000000000000E+000
   7.30170000000000         0.000000000000000E+000
   7.54110000000000         0.000000000000000E+000
   7.78050000000000         0.000000000000000E+000
   8.01990000000000         0.000000000000000E+000
   8.25930000000000         0.000000000000000E+000
   8.49870000000000         0.000000000000000E+000
   8.73810000000000         0.000000000000000E+000
   8.97750000000000         0.000000000000000E+000
   9.21690000000000         0.000000000000000E+000
   9.45630000000000         3.765585322296796E-180
   9.69570000000000        -6.066948122969017E-174
   9.93510000000000         2.618172513311449E-173
   10.1745000000000         7.795054202551972E-170
   10.4139000000000         2.458864435056203E-168
   10.6533000000000        -6.400818772895529E-167
   10.8927000000000        -6.644511700780009E-165
   11.1321000000000        -2.470509153287539E-163
   11.3715000000000        -6.064079517880131E-162
   11.6109000000000        -1.131775745933423E-160
   11.8503000000000        -1.712820462341490E-159
   12.0897000000000        -2.181065631392353E-158
   12.3291000000000        -2.392547957146708E-157
   12.5685000000000        -2.296148518224732E-156
   12.8079000000000        -1.946268201229570E-155
   13.0473000000000        -1.462631808611040E-154
   13.2867000000000        -9.712589332741134E-154
   13.5261000000000        -5.608257291760760E-153
   13.7655000000000        -2.686063784863804E-152
   14.0049000000000        -9.023329312415641E-152
   14.2443000000000         8.628518742494818E-153
   14.4837000000000         3.607998951228964E-150
   14.7231000000000         4.145611297595498E-149
   14.9625000000000         3.435050321526538E-148
   15.2019000000000         2.432089666412938E-147
   15.4413000000000         1.555375034652182E-146
   15.6807000000000         9.222085551572374E-146
   15.9201000000000         5.144995807940679E-145
   16.1595000000000         2.726340671583857E-144
   16.3989000000000         1.381003722900724E-143
   16.6383000000000         6.717639117245008E-143
   16.8777000000000         3.148578810338224E-142
   17.1171000000000         1.425623883111954E-141
   17.3565000000000         6.248282866246954E-141
   17.5959000000000         2.655136605277080E-140
   17.8353000000000         1.095407089878836E-139
   18.0747000000000         4.392837591565376E-139
   18.3141000000000         1.714228589980826E-138
   18.5535000000000         6.516184505956985E-138
   18.7929000000000         2.415196231443391E-137
   19.0323000000000         8.737196737295415E-137
   19.2717000000000         3.087973093685970E-136
   19.5111000000000         1.067261174191543E-135
   19.7505000000000         3.610490554713718E-135
   19.9899000000000         1.196586547355499E-134
   20.2293000000000         3.888321120695471E-134
   20.4687000000000         1.239775992029559E-133
   20.7081000000000         3.881217425807055E-133
   20.9475000000000         1.193626214972480E-132
   21.1869000000000         3.607645285648973E-132
   21.4263000000000         1.071914749788718E-131
   21.6657000000000         3.131493363685556E-131
   21.9051000000000         8.995470897837819E-131
   22.1445000000000         2.540754545241373E-130
   22.3839000000000         7.055372686774338E-130
   22.6233000000000         1.925852275035735E-129
   22.8627000000000         5.166336868465503E-129
   23.1021000000000         1.361762921286123E-128
   23.3415000000000         3.525977411359419E-128
   23.5809000000000         8.966443271318258E-128
   23.8203000000000         2.238897448341743E-127
   24.0597000000000         5.488355430268821E-127
   24.2991000000000         1.320616898086263E-126
   24.5385000000000         3.118770648698997E-126
   24.7779000000000         7.228039318894941E-126
   25.0173000000000         1.643840071349690E-125
   25.2567000000000         3.668467007290409E-125
   25.4961000000000         8.033252043345526E-125
   25.7355000000000         1.726180634698629E-124
   25.9749000000000         3.639859930561949E-124
   26.2143000000000         7.531983354505721E-124
   26.4537000000000         1.529633116981405E-123
   26.6931000000000         3.048918276912088E-123
   26.9325000000000         5.964951123997764E-123
   27.1719000000000         1.145458616454935E-122
   27.4113000000000         2.158977424149719E-122
   27.6507000000000         3.993551095253434E-122
   27.8901000000000         7.247725462702836E-122
   28.1295000000000         1.289980866937015E-121
   28.3689000000000         2.250096691805472E-121
   28.6083000000000         3.842448006972862E-121
   28.8477000000000         6.414645099051916E-121
   29.0871000000000         1.044815768402739E-120
   29.3265000000000         1.656126869138626E-120
   29.5659000000000         2.546498605296899E-120
   29.8053000000000         3.784182178616680E-120
   30.0447000000000         5.414516813672377E-120
   30.2841000000000         7.443387713985142E-120
   30.5235000000000         9.867319720889375E-120
   30.7629000000000         1.286200977880820E-119
   31.0023000000000         1.736358793254767E-119
   31.2417000000000         2.644202559070323E-119
   31.4811000000000         4.795498825573784E-119
   31.7205000000000         9.856643254678303E-119
   31.9599000000000         2.072098538390130E-118
   32.1993000000000         4.099604690321534E-118
   32.4387000000000         7.130416653585590E-118
   32.6781000000000         9.675326241251631E-118
   32.9175000000000         5.351911286793526E-118
   33.1569000000000        -2.484663229080548E-117
   33.3963000000000        -1.285487076094669E-116
   33.6357000000000        -4.117712105728977E-116
   33.8751000000000        -1.087990067182838E-115
   34.1145000000000        -2.546176856669732E-115
   34.3539000000000        -5.416365801404142E-115
   34.5933000000000        -1.055746978114107E-114
   34.8327000000000        -1.877694254659977E-114
   35.0721000000000        -2.987715971719559E-114
   35.3115000000000        -4.027458237777816E-114
   35.5509000000000        -3.796650960125707E-114
   35.7903000000000         6.818325349440095E-115
   36.0297000000000         1.568682143045614E-113
   36.2691000000000         5.289899253431208E-113
   36.5085000000000         1.315045109964050E-112
   36.7479000000000         2.784220351643882E-112
   36.9873000000000         5.222002558514777E-112
   37.2267000000000         8.717682928428821E-112
   37.4661000000000         1.264950118298592E-111
   37.7055000000000         1.464759077217890E-111
   37.9449000000000         8.785105338275850E-112
   38.1843000000000        -1.713476440992763E-111
   38.4237000000000        -8.485375387744786E-111
   38.6631000000000        -2.279738905861195E-110
   38.9025000000000        -4.894256142793110E-110
   39.1419000000000        -9.061541621625474E-110
   39.3813000000000        -1.467226864674917E-109
   39.6207000000000        -2.024925264582147E-109
   39.8601000000000        -2.134669434396543E-109
   40.0995000000000        -8.074573923896318E-110
   40.3389000000000         3.805728054366292E-109
   40.5783000000000         1.468800786958016E-108
   40.8177000000000         3.589995789988734E-108
   41.0571000000000         7.159924008914528E-108
   41.2965000000000         1.231092562475872E-107
   41.5359000000000         1.825223724642660E-107
   41.7753000000000         2.210413841940525E-107
   42.0147000000000         1.707649777827656E-107
   42.2541000000000        -9.903190545395494E-108
   42.4935000000000        -8.042409506904157E-107
   42.7329000000000        -2.248585782949349E-106
   42.9723000000000        -4.769396630972800E-106
   43.2117000000000        -8.562814055673752E-106
   43.4511000000000        -1.329569565184158E-105
   43.6905000000000        -1.739507939829006E-105
   43.9299000000000        -1.693474284904227E-105
   44.1693000000000        -4.169267623732020E-106
   44.4087000000000         3.391598183753534E-105
   44.6481000000000         1.160620824429927E-104
   44.8875000000000         2.642399594128607E-104
   45.1269000000000         4.948956494266958E-104
   45.3663000000000         7.992008033220777E-104
   45.6057000000000         1.106807155134111E-103
   45.8451000000000         1.229044383584052E-103
   46.0845000000000         7.837366567576977E-104
   46.3239000000000        -8.814680326370612E-104
   46.5633000000000        -4.722922617448268E-103
   46.8027000000000        -1.190438977616378E-102
   47.0421000000000        -2.342509886154256E-102
   47.2815000000000        -3.926856757957424E-102
   47.5209000000000        -5.684003437638516E-102
   47.7603000000000        -6.852506208811781E-102
   47.9997000000000        -5.845999756691523E-102
   48.2391000000000         8.070675918766957E-104
   48.4785000000000         1.500216269282632E-101
   48.7179000000000         4.399210926475088E-101
   48.9573000000000         9.174587119826497E-101
   49.1967000000000         1.594032515759558E-100
   49.4361000000000         2.387383656368434E-100
   49.6755000000000         3.031449458476336E-100
   49.9149000000000         2.957901781985965E-100
   50.1543000000000         1.173752364276050E-100
   50.3937000000000        -3.804363568559601E-100
   50.6331000000000        -1.384479936961770E-099
   50.8725000000000        -3.074321660503194E-099
   51.1119000000000        -5.516949729850860E-099
   51.3513000000000        -8.475822454564616E-099
   51.5907000000000        -1.111764132284550E-098
   51.8301000000000        -1.163108120616434E-098
   52.0695000000000        -6.836446317689797E-099
   52.3089000000000         8.024676722400800E-099
   52.5483000000000         3.897186817734817E-098
   52.7877000000000         9.190198063645320E-098
   53.0271000000000         1.694332330463449E-097
   53.2665000000000         2.652419399421147E-097
   53.5059000000000         3.554562701370165E-097
   53.7453000000000         3.875736775604642E-097
   53.9847000000000         2.691956522353043E-097
   54.2241000000000        -1.380991631483025E-097
   54.4635000000000        -1.010157587068194E-096
   54.7029000000000        -2.522357170237450E-096
   54.9423000000000        -4.763632888047037E-096
   55.1817000000000        -7.583196577397027E-096
   55.4211000000000        -1.035889016504383E-095
   55.6605000000000        -1.169962196651879E-095
   55.8999000000000        -9.140877268277941E-096
   56.1393000000000         1.031865917705644E-096
   56.3787000000000         2.359161432244398E-095
   56.6181000000000         6.344819361051732E-095
   56.8575000000000         1.235322293539990E-094
   57.0969000000000         2.010079793389501E-094
   57.3363000000000         2.815270078869761E-094
   57.5757000000000         3.317772036544405E-094
   57.8151000000000         2.916500777545572E-094
   58.0545000000000         6.908256823201367E-095
   58.2939000000000        -4.569655472374032E-094
   58.5333000000000        -1.417139853986180E-093
   58.7727000000000        -2.905242688988479E-093
   59.0121000000000        -4.893450294618314E-093
   59.2515000000000        -7.101557291682051E-093
   59.4909000000000        -8.823613632551083E-093
   59.7303000000000        -8.737335080905617E-093
   59.9697000000000        -4.757723432703267E-093
   60.2091000000000         5.953064125894754E-093
   60.4485000000000         2.664737074308266E-092
   60.6879000000000         6.009755882585790E-092
   60.9273000000000         1.068949999672712E-091
   61.1667000000000         1.627469710559535E-091
   61.4061000000000         2.147699768548083E-091
   61.6455000000000         2.371830788568985E-091
   61.8849000000000         1.874846014427171E-091
   62.1243000000000         5.172312445599252E-093
   62.3637000000000        -3.837306867671207E-091
   62.6031000000000        -1.051889337768365E-090
   62.8425000000000        -2.040446471386000E-090
   63.0819000000000        -3.308784382953015E-090
   63.3213000000000        -4.662575914362174E-090
   63.5607000000000        -5.665050683042968E-090
   63.8001000000000        -5.547962372464105E-090
   64.0395000000000        -3.155936387945703E-090
   64.2789000000000         3.020046223924691E-090
   64.5183000000000         1.464064299490350E-089
   64.7577000000000         3.305029393721316E-089
   64.9971000000000         5.844627712271812E-089
   65.2365000000000         8.862351126980924E-089
   65.4759000000000         1.173284874949954E-088
   65.7153000000000         1.324320260176149E-088
   65.9547000000000         1.144050946704958E-088
   66.1941000000000         3.595180486912952E-089
   66.4335000000000        -1.359209002881327E-088
   66.6729000000000        -4.337343661034562E-088
   66.9123000000000        -8.774438559871176E-088
   67.1517000000000        -1.454915923456037E-087
   67.3911000000000        -2.094637454992876E-087
   67.6305000000000        -2.632709682716759E-087
   67.8699000000000        -2.780136965300218E-087
   68.1093000000000        -2.102043343386182E-087
   68.3487000000000        -2.736665370083079E-089
   68.5881000000000         4.085371968595141E-087
   68.8275000000000         1.079572704661602E-086
   69.0669000000000         2.031282155321537E-086
   69.3063000000000         3.209281518055116E-086
   69.5457000000000         4.431304505277541E-086
   69.7851000000000         5.328470002322424E-086
   70.0245000000000         5.294315541485968E-086
   70.2639000000000         3.465644381023237E-086
   70.5033000000000        -1.229400607010003E-086
   70.7427000000000        -9.910658648158285E-086
   70.9821000000000        -2.342323791182803E-085
   71.2215000000000        -4.181176668273180E-085
   71.4609000000000        -6.357982463748778E-085
   71.7003000000000        -8.478163938465378E-085
   71.9397000000000        -9.808871717104069E-085
   72.1791000000000        -9.210780892035737E-085
   72.4185000000000        -5.138899835641635E-085
   72.6579000000000         4.227303546901756E-085
   72.8973000000000         2.065257024537939E-084
   73.1367000000000         4.524248689953944E-084
   73.3761000000000         7.752143080268302E-084
   73.6155000000000         1.142045232375885E-083
   73.8549000000000         1.477821617019378E-083
   74.0943000000000         1.651944685208865E-083
   74.3337000000000         1.470800396375096E-083
   74.5731000000000         6.831539710596334E-084
   74.8125000000000        -9.923170465168548E-084
   75.0519000000000        -3.807144336118919E-083
   75.2913000000000        -7.881950899708418E-083
   75.5307000000000        -1.306028069479788E-082
   75.7701000000000        -1.872395926967580E-082
   76.0095000000000        -2.359348365994553E-082
   76.2489000000000        -2.556059466579803E-082
   76.4883000000000        -2.162897011709913E-082
   76.7277000000000        -8.068475266649484E-083
   76.9671000000000         1.908952722970263E-082
   77.2065000000000         6.308607136326489E-082
   77.4459000000000         1.249019031784401E-081
   77.6853000000000         2.011511853289459E-081
   77.9247000000000         2.815552932357623E-081
   78.1641000000000         3.463927942425580E-081
   78.4035000000000         3.646393030238179E-081
   78.6429000000000         2.938706624143098E-081
   78.8823000000000         8.333429596216957E-082
   79.1217000000000        -3.182196532589290E-081
   79.3611000000000        -9.484771641392699E-081
   79.6005000000000        -1.810428396551969E-080
   79.8399000000000        -2.844668882882204E-080
   80.0793000000000        -3.897858935599185E-080
   80.3187000000000        -4.693200109963036E-080
   80.5581000000000        -4.812642072624905E-080
   80.7975000000000        -3.704574270431674E-080
   81.0369000000000        -7.340049271515974E-081
   81.2763000000000         4.706793764232759E-080
   81.5157000000000         1.301242479833003E-079
   81.7551000000000         2.409816320405393E-079
   81.9945000000000         3.706632618103734E-079
   82.2339000000000         4.984579095234763E-079
   82.4733000000000         5.888196209209321E-079
   82.7127000000000         5.899690115128139E-079
   82.9521000000000         4.358010990480013E-079
   83.1915000000000         5.297550922151036E-080
   83.4309000000000        -6.249699539770766E-079
   83.6703000000000        -1.635188078384783E-078
   83.9097000000000        -2.954752052848912E-078
   84.1491000000000        -4.463696278209423E-078
   84.3885000000000        -5.907142724257894E-078
   84.6279000000000        -6.865708882955715E-078
   84.8673000000000        -6.747640612684221E-078
   85.1067000000000        -4.819809000994644E-078
   85.3461000000000        -2.965245426496771E-079
   85.5855000000000         7.496690493509856E-078
   85.8249000000000         1.887465846308482E-077
   86.0643000000000         3.346464775335268E-077
   86.3037000000000         4.982790021573123E-077
   86.5431000000000         6.509170348388401E-077
   86.7825000000000         7.469150160373439E-077
   87.0219000000000         7.236146354611204E-077
   87.2613000000000         5.054202291966806E-077
   87.5007000000000         1.380863119540396E-078
   87.7401000000000        -8.152678198569346E-077
   87.9795000000000        -2.005993090271179E-076
   88.2189000000000        -3.510298529447847E-076
   88.4583000000000        -5.171814093097906E-076
   88.6977000000000        -6.692560640065054E-076
   88.9371000000000        -7.612251187744783E-076
   89.1765000000000        -7.313359281652420E-076
   89.4159000000000        -5.067317594982235E-076
   89.6553000000000        -1.371127320693607E-077
   89.8947000000000         8.052280340607384E-076
   90.1341000000000         1.967314471260139E-075
   90.3735000000000         3.419663987121681E-075
   90.6129000000000         5.007110597725196E-075
   90.8523000000000         6.443830984625051E-075
   91.0917000000000         7.297806479232346E-075
   91.3311000000000         6.999757674689690E-075
   91.5705000000000         4.889647199987347E-075
   91.8099000000000         3.131456038200661E-076
   92.0493000000000        -7.223552032656908E-075
   92.2887000000000        -1.784055124851107E-074
   92.5281000000000        -3.102616257404644E-074
   92.7675000000000        -4.536576946313127E-074
   93.0069000000000        -5.831174433697621E-074
   93.2463000000000        -6.607160593074743E-074
   93.4857000000000        -6.371090212555225E-074
   93.7251000000000        -4.557614646967523E-074
   93.9645000000000        -6.133397863858706E-075
   94.2039000000000         5.871892543387209E-074
   94.4433000000000         1.498762415839020E-073
   94.6827000000000         2.629170741389646E-073
   94.9221000000000         3.859270879928825E-073
   95.1615000000000         4.977024142392202E-073
   95.4009000000000         5.669509720645960E-073
   95.6403000000000         5.532483249383739E-073
   95.8797000000000         4.105549771429535E-073
   96.1191000000000         9.400413684837022E-074
   96.3585000000000        -4.296397401649126E-073
   96.5979000000000        -1.168022571362897E-072
   96.8373000000000        -2.086770722452620E-072
   97.0767000000000        -3.092735871917512E-072
   97.3161000000000        -4.020343873362023E-072
   97.5555000000000        -4.625739965345990E-072
   97.7949000000000        -4.594383777174095E-072
   98.0343000000000        -3.568033515080438E-072
   98.2737000000000        -1.196235679802198E-072
   98.5131000000000         2.784930461280441E-072
   98.7525000000000         8.448360381594869E-072
   98.9919000000000         1.555346770686861E-071
   99.2313000000000         2.342162338293576E-071
   99.4707000000000         3.083450356928430E-071
   99.7101000000000         3.598925261746820E-071
   99.9495000000000         3.655099948483587E-071
   100.188900000000         2.984503329791111E-071
   100.428300000000         1.322486363272769E-071
   100.667700000000        -1.536448122913974E-071
   100.907100000000        -5.663850570356200E-071
   101.146500000000        -1.090950304630034E-070
   101.385900000000        -1.681160871844377E-070
   101.625300000000        -2.252234713633830E-070
   101.864700000000        -2.677226925336717E-070
   102.104100000000        -2.790157344863667E-070
   102.343500000000        -2.398757209251122E-070
   102.582900000000        -1.309363867580284E-070
   102.822300000000         6.346334229163542E-071
   103.061700000000         3.501393832383547E-070
   103.301100000000         7.209794883065724E-070
   103.540500000000         1.146643981013244E-069
   103.779900000000         1.571200505742981E-069
   104.019300000000         1.909256148631950E-069
   104.258700000000         2.047465108986593E-069
   104.498100000000         1.852393382671018E-069
   104.737500000000         1.186484581511400E-069
   104.976900000000        -6.683426570455949E-071
   105.216300000000        -1.969140810055327E-069
   105.455700000000        -4.486211463917737E-069
   105.695100000000        -7.444955388175490E-069
   105.934500000000        -1.049538799144817E-068
   106.173900000000        -1.308768537345000E-068
   106.413300000000        -1.447653128625182E-068
   106.652700000000        -1.376585551736654E-068
   106.892100000000        -1.000584950500783E-068
   107.131500000000        -2.350012862916547E-069
   107.370900000000         9.727728648263865E-069
   107.610300000000         2.616738762044370E-068
   107.849700000000         4.603549412477613E-068
   108.089100000000         6.726025093008258E-068
   108.328500000000         8.645154490024982E-068
   108.567900000000         9.888301937497203E-068
   108.807300000000         9.872101403350181E-068
   109.046700000000         7.958039277127569E-068
   109.286100000000         3.546490609941827E-068
   109.525500000000        -3.789464797447966E-068
   109.764900000000        -1.413600207716804E-067
   110.004300000000        -2.705106962981565E-067
   110.243700000000        -4.138323459508289E-067
   110.483100000000        -5.513416593100603E-067
   110.722500000000        -6.541227390602520E-067
   110.961900000000        -6.853134081742729E-067
   111.201300000000        -6.030732673092026E-067
   111.440700000000        -3.659564606979492E-067
   111.680100000000         5.912868968167916E-068
   111.919500000000         6.865831780628470E-067
   112.158900000000         1.500158345374424E-066
   112.398300000000         2.440798819555316E-066
   112.637700000000         3.396444611113380E-066
   112.877100000000         4.196641031770705E-066
   113.116500000000         4.615308077982722E-066
   113.355900000000         4.385152174452242E-066
   113.595300000000         3.226759138422446E-066
   113.834700000000         8.941913064976692E-067
   114.074100000000        -2.763226667638219E-066
   114.313500000000        -7.726365160293043E-066
   114.552900000000        -1.372642061584623E-065
   114.792300000000        -2.017173066236911E-065
   115.031700000000        -2.609789340386762E-065
   115.271100000000        -3.016162915406927E-065
   115.510500000000        -3.070077655350357E-065
   115.749900000000        -2.588165250281246E-065
   115.989300000000        -1.394943588091221E-065
   116.228700000000         6.413857694866858E-066
   116.468100000000         3.563651608076174E-065
   116.707500000000         7.274540552953639E-065
   116.946900000000         1.148594591613623E-064
   117.186300000000         1.567824905296117E-064
   117.425700000000         1.908169907968690E-064
   117.665100000000         2.069394733118906E-064
   117.904500000000         1.934806320034500E-064
   118.143900000000         1.384317983657282E-064
   118.383300000000         3.144505657772739E-065
   118.622700000000        -1.334979130934621E-064
   118.862100000000        -3.549054012292583E-064
   119.101500000000        -6.204083345553245E-064
   119.340900000000        -9.037204872232796E-064
   119.580300000000        -1.162629231875693E-063
   119.819700000000        -1.338872718467680E-063
   120.059100000000        -1.360832076684236E-063
   120.298500000000        -1.149908311237538E-063
   120.537900000000        -6.312105913217951E-064
   120.777300000000         2.512887610153356E-064
   121.016700000000         1.515701646518170E-063
   121.256100000000         3.120811140354955E-063
   121.495500000000         4.944989819781735E-063
   121.734900000000         6.769364208766341E-063
   121.974300000000         8.270244934223844E-063
   122.213700000000         9.026575279788039E-063
   122.453100000000         8.548205024643532E-063
   122.692500000000         6.329841132840692E-063
   122.931900000000         1.933256187727527E-063
   123.171300000000        -4.903464973220058E-063
   123.410700000000        -1.413623177014511E-062
   123.650100000000        -2.527812234461944E-062
   123.889500000000        -3.727625204142087E-062
   124.128900000000        -4.843049339484133E-062
   124.368300000000        -5.638797037310781E-062
   124.607700000000        -5.824969706887378E-062
   124.847100000000        -5.082288702201193E-062
   125.086500000000        -3.104237774521900E-062
   125.325900000000         3.434263776673848E-063
   125.565300000000         5.348178283328629E-062
   125.804700000000         1.176735267947382E-061
   126.044100000000         1.914637379629671E-061
   126.283500000000         2.665358776402969E-061
   126.522900000000         3.305066871026261E-061
   126.762300000000         3.672002698927326E-061
   127.001700000000         3.577048105755880E-061
   127.241100000000         2.823850540375254E-061
   127.480500000000         1.239362013442127E-061
   127.719900000000        -1.285768878180486E-061
   127.959300000000        -4.749470303154138E-061
   128.198700000000        -8.988102604607145E-061
   128.438100000000        -1.363143223759032E-060
   128.677500000000        -1.807274709290575E-060
   128.916900000000        -2.146600047615913E-060
   129.156300000000        -2.276251737244078E-060
   129.395700000000        -2.079857753328795E-060
   129.635100000000        -1.444149610906594E-060
   129.874500000000        -2.795204519620180E-061
   130.113900000000         1.454335116998035E-060
   130.353300000000         3.719810994188084E-060
   130.592700000000         6.373346177408260E-060
   130.832100000000         9.142928308028956E-060
   131.071500000000         1.161734912367048E-059
   131.310900000000         1.325412115602121E-059
   131.550300000000         1.341280735780972E-059
   131.789700000000         1.141915435354550E-059
   132.029100000000         6.662572767936412E-060
   132.268500000000        -1.274977607078020E-060
   132.507900000000        -1.246670522891623E-059
   132.747300000000        -2.648061041428539E-059
   132.986700000000        -4.223414572928237E-059
   133.226100000000        -5.789432063044329E-059
   133.465500000000        -7.085894589890083E-059
   133.704900000000        -7.785630807068177E-059
   133.944300000000        -7.519666875497021E-059
   134.183700000000        -5.919797013197833E-059
   134.423100000000        -2.678887417252701E-059
   134.662500000000         2.373545455190590E-059
   134.901900000000         9.186451813289284E-059
   135.141300000000         1.740300702027102E-058
   135.380700000000         2.629094161875115E-058
   135.620100000000         3.470471704222770E-058
   135.859500000000         4.109872324594019E-058
   136.098900000000         4.361024371303695E-058
   136.338300000000         4.022730040630337E-058
   136.577700000000         2.904895809448280E-058
   136.817100000000         8.633887884183728E-059
   137.056500000000        -2.158283548554052E-058
   137.295900000000        -6.084366801287513E-058
   137.535300000000        -1.066524842616535E-057
   137.774700000000        -1.544664963277736E-057
   138.014100000000        -1.975881779488460E-057
   138.253500000000        -2.273539440345664E-057
   138.492900000000        -2.337076601709799E-057
   138.732300000000        -2.062210485550548E-057