  -1.79550000000000         0.000000000000000E+000
  -1.55610000000000         0.000000000000000E+000
  -1.31670000000000         0.000000000000000E+000
  -1.07730000000000         0.000000000000000E+000
 -0.837900000000000         0.000000000000000E+000
 -0.598500000000000         0.000000000000000E+000
 -0.359100000000000         0.000000000000000E+000
 -0.119700000000000         0.000000000000000E+000
  0.119700000000000         0.000000000000000E+000
  0.359100000000000         0.000000000000000E+000
  0.598500000000000         0.000000000000000E+000
  0.837900000000000         0.000000000000000E+000
   1.07730000000000         0.000000000000000E+000
   1.31670000000000         0.000000000000000E+000
   1.55610000000000         0.000000000000000E+000
   1.79550000000000         0.000000000000000E+000
   2.03490000000000         0.000000000000000E+000
   2.27430000000000         0.000000000000000E+000
   2.51370000000000         0.000000000000000E+000
   2.75310000000000         0.000000000000000E+000
   2.99250000000000         0.000000000000000E+000
   3.23190000000000         0.000000000000000E+000
   3.47130000000000         0.000000000000000E+000
   3.71070000000000         0.000000000000000E+000
   3.95010000000000         0.000000000000000E+000
   4.18950000000000         0.000000000000000E+000
   4.42890000000000         0.000000000000000E+000
   4.66830000000000         0.000000000000000E+000
   4.90770000000000         0.000000000000000E+000
   5.14710000000000         0.000000000000000E+000
   5.38650000000000         0.000000000000000E+000
   5.62590000000000         0.000000000000000E+000
   5.86530000000000         0.000000000000000E+000
   6.10470000000000         0.000000000000000E+000
   6.34410000000000         0.000000000000000E+000
   6.58350000000000         0.000000000000000E+000
   6.82290000000000         0.000000000000000E+000
   7.06230000000000         0.000000000000000E+000
   7.30170000000000         0.000000000000000E+000
   7.54110000000000         0.000000000000000E+000
   7.78050000000000         0.000000000000000E+000
   8.01990000000000         0.000000000000000E+000
   8.25930000000000         0.000000000000000E+000
   8.49870000000000         0.000000000000000E+000
   8.73810000000000         0.000000000000000E+000
   8.97750000000000         0.000000000000000E+000
   9.21690000000000         0.000000000000000E+000
   9.45630000000000         0.000000000000000E+000
   9.69570000000000         2.696471029580816E-182
   9.93510000000000        -1.192639731389501E-176
   10.1745000000000        -1.841605757011780E-175
   10.4139000000000         1.828168685669484E-172
   10.6533000000000         1.118311983646639E-170
   10.8927000000000         1.490164827972857E-169
   11.1321000000000        -9.277744139781601E-168
   11.3715000000000        -5.792137511983192E-166
   11.6109000000000        -1.798522769746633E-164
   11.8503000000000        -3.925740070455418E-163
   12.0897000000000        -6.682690307500420E-162
   12.3291000000000        -9.329533446030584E-161
   12.5685000000000        -1.099715597514468E-159
   12.8079000000000        -1.113921560765523E-158
   13.0473000000000        -9.788406547180799E-158
   13.2867000000000        -7.475505193605049E-157
   13.5261000000000        -4.919238133733733E-156
   13.7655000000000        -2.709392146306195E-155
   14.0049000000000        -1.142850913531735E-154
   14.2443000000000        -2.350660153160608E-154
   14.4837000000000         1.674269636634310E-153
   14.7231000000000         2.640339296178621E-152
   14.9625000000000         2.202485316218957E-151
   15.2019000000000         1.396698216423816E-150
   15.4413000000000         7.075663778205849E-150
   15.6807000000000         2.674468742203318E-149
   15.9201000000000         4.341894001382624E-149
   16.1595000000000        -4.276292190178855E-148
   16.3989000000000        -5.909329249751555E-147
   16.6383000000000        -4.852481780784645E-146
   16.8777000000000        -3.254319105000961E-145
   17.1171000000000        -1.932059050489808E-144
   17.3565000000000        -1.050699716261918E-143
   17.5959000000000        -5.330959389673532E-143
   17.8353000000000        -2.552380279165324E-142
   18.0747000000000        -1.162199619028708E-141
   18.3141000000000        -5.061655313727284E-141
   18.5535000000000        -2.117857656153368E-140
   18.7929000000000        -8.543354763806565E-140
   19.0323000000000        -3.332338781848825E-139
   19.2717000000000        -1.259828675396538E-138
   19.5111000000000        -4.625928844862305E-138
   19.7505000000000        -1.652535957335309E-137
   19.9899000000000        -5.751470515753585E-137
   20.2293000000000        -1.952439708054147E-136
   20.4687000000000        -6.470437426205784E-136
   20.7081000000000        -2.094752332669419E-135
   20.9475000000000        -6.627762573642622E-135
   21.1869000000000        -2.049945165852198E-134
   21.4263000000000        -6.198478130707933E-134
   21.6657000000000        -1.832098875624397E-133
   21.9051000000000        -5.291991327343963E-133
   22.1445000000000        -1.493191663183800E-132
   22.3839000000000        -4.113312075823947E-132
   22.6233000000000        -1.105424072114728E-131
   22.8627000000000        -2.895507281633905E-131
   23.1021000000000        -7.383639929778431E-131
   23.3415000000000        -1.830276708702458E-130
   23.5809000000000        -4.401639554597126E-130
   23.8203000000000        -1.024283181147222E-129
   24.0597000000000        -2.297901482071389E-129
   24.2991000000000        -4.943002804265773E-129
   24.5385000000000        -1.010880895184868E-128
   24.7779000000000        -1.937014483592501E-128
   25.0173000000000        -3.380736146494010E-128
   25.2567000000000        -5.023299166085561E-128
   25.4961000000000        -4.945191870371869E-128
   25.7355000000000         3.579038515967861E-128
   25.9749000000000         4.014448333316787E-127
   26.2143000000000         1.563498320619832E-126
   26.4537000000000         4.792133329893328E-126
   26.6931000000000         1.306306100969932E-125
   26.9325000000000         3.308709200526998E-125
   27.1719000000000         7.955771883820786E-125
   27.4113000000000         1.839345354148098E-124
   27.6507000000000         4.125058992121600E-124
   27.8901000000000         9.035133845102252E-124
   28.1295000000000         1.943608138243453E-123
   28.3689000000000         4.125555985605205E-123
   28.6083000000000         8.672927212173109E-123
   28.8477000000000         1.810351975400887E-122
   29.0871000000000         3.756505236729918E-122
   29.3265000000000         7.746419681649567E-122
   29.5659000000000         1.584830594546039E-121
   29.8053000000000         3.207711250147164E-121
   30.0447000000000         6.399278125116436E-121
   30.2841000000000         1.252913409832151E-120
   30.5235000000000         2.396006880909755E-120
   30.7629000000000         4.451561070025391E-120
   31.0023000000000         7.985116951217719E-120
   31.2417000000000         1.372020279277160E-119
   31.4811000000000         2.233199336651729E-119
   31.7205000000000         3.383072043449320E-119
   31.9599000000000         4.615436825459692E-119
   32.1993000000000         5.245192672027339E-119
   32.4387000000000         3.659166150408748E-119
   32.6781000000000        -3.289624867932452E-119
   32.9175000000000        -2.080679609580161E-118
   33.1569000000000        -5.584670394088176E-118
   33.3963000000000        -1.141789842026099E-117
   33.6357000000000        -1.912557576965316E-117
   33.8751000000000        -2.507167433851341E-117
   34.1145000000000        -1.816149075803832E-117
   34.3539000000000         2.751517259300132E-117
   34.5933000000000         1.633372737425034E-116
   34.8327000000000         4.776081305117627E-116
   35.0721000000000         1.098558228827570E-115
   35.3115000000000         2.165757350420961E-115
   35.5509000000000         3.722292179034096E-115
   35.7903000000000         5.443249289167884E-115
   36.0297000000000         6.072643955531626E-115
   36.2691000000000         2.415405358458527E-115
   36.5085000000000        -1.221402896146084E-114
   36.7479000000000        -4.992080606890322E-114
   36.9873000000000        -1.296719745491667E-113
   37.2267000000000        -2.759198627921546E-113
   37.4661000000000        -5.094490890316348E-113
   37.7055000000000        -8.214781548098045E-113
   37.9449000000000        -1.117102362056989E-112
   38.1843000000000        -1.110451841806437E-112
   38.4237000000000        -1.570409076707747E-113
   38.6631000000000         2.969921037656082E-112
   38.9025000000000         1.029339155190619E-111
   39.1419000000000         2.464521665023138E-111
   39.3813000000000         4.906205387026667E-111
   39.6207000000000         8.480671062530627E-111
   39.8601000000000         1.268329249972008E-110
   40.0995000000000         1.551727384433119E-110
   40.3389000000000         1.208933762486082E-110
   40.5783000000000        -7.321985472446779E-111
   40.8177000000000        -5.928502272502729E-110
   41.0571000000000        -1.679854122883373E-109
   41.2965000000000        -3.618364778378149E-109
   41.5359000000000        -6.606564869398430E-109
   41.7753000000000        -1.045272765345043E-108
   42.0147000000000        -1.399182297487779E-108
   42.2541000000000        -1.413033371239040E-108
   42.4935000000000        -4.523801205255955E-109
   42.7329000000000         2.584279124280461E-108
   42.9723000000000         9.335616892616962E-108
   43.2117000000000         2.180053240654755E-107
   43.4511000000000         4.160268680350139E-107
   43.6905000000000         6.822554816997607E-107
   43.9299000000000         9.563180117773032E-107
   44.1693000000000         1.067615042893739E-106
   44.4087000000000         6.595360433014252E-107
   44.6481000000000        -8.922579483567943E-107
   44.8875000000000        -4.524093770216687E-106
   45.1269000000000        -1.140022043312868E-105
   45.3663000000000        -2.254280778983855E-105
   45.6057000000000        -3.794367107420500E-105
   45.8451000000000        -5.487684450233680E-105
   46.0845000000000        -6.518042844406413E-105
   46.3239000000000        -5.154641343602986E-105
   46.5633000000000         1.647292185741024E-105
   46.8027000000000         1.847533505295540E-104
   47.0421000000000         5.111386222685952E-104
   47.2815000000000         1.049410242947295E-103
   47.5209000000000         1.810918170421338E-103
   47.7603000000000         2.692471010437511E-103
   47.9997000000000         3.361677533077653E-103
   48.2391000000000         3.102487029046431E-103
   48.4785000000000         6.506770894871450E-104
   48.7179000000000        -5.901482256207825E-103
   48.9573000000000        -1.897582953504726E-102
   49.1967000000000        -4.090000133736625E-102
   49.4361000000000        -7.246869248337295E-102
   49.6755000000000        -1.102830321314286E-101
   49.9149000000000        -1.425971113263053E-101
   50.1543000000000        -1.438397927502074E-101
   50.3937000000000        -6.894030300034689E-102
   50.6331000000000         1.497346141405648E-101
   50.8725000000000         5.975475263591272E-101
   51.1119000000000         1.356547272209898E-100
   51.3513000000000         2.457192816399346E-100
   51.5907000000000         3.791309475246103E-100
   51.8301000000000         4.979658885405875E-100
   52.0695000000000         5.202517540084878E-100
   52.3089000000000         3.032334778492863E-100
   52.5483000000000        -3.641387879416616E-100
   52.7877000000000        -1.743303090664145E-099
   53.0271000000000        -4.078295211910990E-099
   53.2665000000000        -7.447085079860263E-099
   53.5059000000000        -1.150187130250123E-098
   53.7453000000000        -1.508540329846544E-098
   53.9847000000000        -1.575645375193033E-098
   54.2241000000000        -9.346155170009656E-099
   54.4635000000000         1.019206700804485E-098
   54.7029000000000         5.018641822275502E-098
   54.9423000000000         1.172455676252853E-097
   55.1817000000000         2.130509009639945E-097
   55.4211000000000         3.272110923837155E-097
   55.6605000000000         4.269610827589014E-097
   55.8999000000000         4.447425258530486E-097
   56.1393000000000         2.670090366991742E-097
   56.3787000000000        -2.688564535235844E-097
   56.6181000000000        -1.358014922187390E-096
   56.8575000000000        -3.175737478120591E-096
   57.0969000000000        -5.769783601341405E-096
   57.3363000000000        -8.880688896840234E-096
   57.5757000000000        -1.168605963497356E-095
   57.8151000000000        -1.249516849320313E-095
   58.0545000000000        -8.473984425425438E-096
   58.2939000000000         4.438483031452192E-096
   58.5333000000000         3.115898433533599E-095
   58.7727000000000         7.626629255621633E-095
   59.0121000000000         1.415559180080969E-094
   59.2515000000000         2.219713142947953E-094
   59.4909000000000         2.998238799765568E-094
   59.7303000000000         3.378574956526905E-094
   59.9697000000000         2.728397542025013E-094
   60.2091000000000         1.302519536471890E-095
   60.4485000000000        -5.550799179042254E-094
   60.6879000000000        -1.543136526473865E-093
   60.9273000000000        -3.011850865649469E-093
   61.1667000000000        -4.888708767470686E-093
   61.4061000000000        -6.850464225602938E-093
   61.6455000000000        -8.180580983416621E-093
   61.8849000000000        -7.633113493339567E-093
   62.1243000000000        -3.365597558060746E-093
   62.3637000000000         6.957942413989438E-093
   62.6031000000000         2.575460563301918E-092
   62.8425000000000         5.463964948523118E-092
   63.0819000000000         9.293177750016982E-092
   63.3213000000000         1.355029573998629E-091
   63.5607000000000         1.701448223777010E-091
   63.8001000000000         1.749933975335016E-091
   64.0395000000000         1.170881222525215E-091
   64.2789000000000        -4.620397388359668E-092
   64.5183000000000        -3.605286881331833E-091
   64.7577000000000        -8.599231550227201E-091
   64.9971000000000        -1.541858758861887E-090
   65.2365000000000        -2.331212002265282E-090
   65.4759000000000        -3.035997280322633E-090
   65.7153000000000        -3.303740502382806E-090
   65.9547000000000        -2.596008288924378E-090
   66.1941000000000        -2.090576787627442E-091
   66.4335000000000         4.621415494328556E-090
   66.6729000000000         1.248818704224108E-089
   66.9123000000000         2.341605350563099E-089
   67.1517000000000         3.629066208091360E-089
   67.3911000000000         4.815926697763370E-089
   67.6305000000000         5.354538006887008E-089
   67.8699000000000         4.405404275875764E-089
   68.1093000000000         8.705769731205617E-090
   68.3487000000000        -6.441050093983837E-089
   68.5881000000000        -1.844988171907625E-088
   68.8275000000000        -3.518684125003519E-088
   69.0669000000000        -5.490516633173093E-088
   69.3063000000000        -7.299660396888389E-088
   69.5457000000000        -8.093253489243303E-088
   69.7851000000000        -6.565716168399992E-088
   70.0245000000000        -1.010696177977046E-088
   70.2639000000000         1.042351536573304E-087
   70.5033000000000         2.917209599915513E-087
   70.7427000000000         5.529684297272747E-087
   70.9821000000000         8.610738309538653E-087
   71.2215000000000         1.144644488300053E-086
   71.4609000000000         1.270881743519978E-086
   71.7003000000000         1.035052363098780E-086
   71.9397000000000         1.664577669369845E-087
   72.1791000000000        -1.635295776180302E-086
   72.4185000000000        -4.617716670377418E-086
   72.6579000000000        -8.832013037555279E-086
   72.8973000000000        -1.392244798520564E-085
   73.1367000000000        -1.886019315697871E-085
   73.3761000000000        -2.166446173148137E-085
   73.6155000000000        -1.919878980666403E-085
   73.8549000000000        -7.186661330142297E-086
   74.0943000000000         1.935106440746830E-085
   74.3337000000000         6.499278666394180E-085
   74.5731000000000         1.319073850632623E-084
   74.8125000000000         2.167925040141719E-084
   75.0519000000000         3.068398627107082E-084
   75.2913000000000         3.752163056085278E-084
   75.5307000000000         3.771647654156005E-084
   75.7701000000000         2.486299551667117E-084
   76.0095000000000        -8.980356665035750E-085
   76.2489000000000        -7.201305454625945E-084
   76.4883000000000        -1.701541022101869E-083
   76.7277000000000        -3.029487748366005E-083
   76.9671000000000        -4.578775079132450E-083
   77.2065000000000        -6.035127163326070E-083
   77.4459000000000        -6.827436227182321E-083
   77.6853000000000        -6.083464194816172E-083
   77.9247000000000        -2.644209812826031E-083
   78.1641000000000         4.815933468384012E-083
   78.4035000000000         1.750898927294781E-082
   78.6429000000000         3.604301090497786E-082
   78.8823000000000         5.969483956924446E-082
   79.1217000000000         8.547140388493621E-082
   79.3611000000000         1.070733170076644E-081
   79.6005000000000         1.140021162840235E-081
   79.8399000000000         9.121243877058112E-082
   80.0793000000000         1.988013487176145E-082
   80.3187000000000        -1.200074827459792E-081
   80.5581000000000        -3.445024420150805E-081
   80.7975000000000        -6.574205260177675E-081
   81.0369000000000        -1.038853446976657E-080
   81.2763000000000        -1.431285304509110E-080
   81.5157000000000        -1.725522234239141E-080
   81.7551000000000        -1.750504147570402E-080
   81.9945000000000        -1.273214931739830E-080
   82.2339000000000        -1.693334509821420E-082
   82.4733000000000         2.292725914378528E-080
   82.7127000000000         5.845147744363408E-080
   82.9521000000000         1.062029277263473E-079
   83.1915000000000         1.622549427905369E-079
   83.4309000000000         2.171008186880687E-079
   83.6703000000000         2.539390920648484E-079
   83.9097000000000         2.477008595542320E-079
   84.1491000000000         1.656788851934237E-079
   84.3885000000000        -2.917283724581605E-080
   84.6279000000000        -3.711353522537215E-079
   84.8673000000000        -8.798897471883883E-079
   85.1067000000000        -1.543649199134437E-078
   85.3461000000000        -2.298139857264313E-078
   85.5855000000000        -3.004140500717553E-078
   85.8249000000000        -3.428734359066535E-078
   86.0643000000000        -3.238262877954238E-078
   86.3037000000000        -2.013705684493912E-078
   86.5431000000000         6.989855402914528E-079
   86.7825000000000         5.291376480558429E-078
   87.0219000000000         1.193950730941984E-077
   87.2613000000000         2.039592338481530E-077
   87.5007000000000         2.974268960128471E-077
   87.7401000000000         3.814336992229756E-077
   87.9795000000000         4.265969342030721E-077
   88.2189000000000         3.922863420569168E-077
   88.4583000000000         2.292149274388884E-077
   88.6977000000000        -1.138153551426934E-077
   88.9371000000000        -6.778285951880920E-077
   89.1765000000000        -1.475634881492769E-076
   89.4159000000000        -2.468348465067420E-076
   89.6553000000000        -3.538759317086783E-076
   89.8947000000000        -4.466273726186103E-076
   90.1341000000000        -4.911007568284331E-076
   90.3735000000000        -4.417493785626649E-076
   90.6129000000000        -2.450616024040784E-076
   90.8523000000000         1.523244980526664E-076
   91.0917000000000         7.899564147953118E-076
   91.3311000000000         1.674038682087897E-075
   91.5705000000000         2.753003490814992E-075
   91.8099000000000         3.891032210799923E-075
   92.0493000000000         4.844809448131251E-075
   92.2887000000000         5.251507230285379E-075
   92.5281000000000         4.638504565986105E-075
   92.7675000000000         2.466881538558413E-075
   93.0069000000000        -1.779732889348930E-075
   93.2463000000000        -8.453018324432160E-075
   93.4857000000000        -1.754455966473142E-074
   93.7251000000000        -2.845035803030483E-074
   93.9645000000000        -3.972682094409725E-074
   94.2039000000000        -4.889227925393844E-074
   94.4433000000000        -5.235175553123428E-074
   94.6827000000000        -4.554255559217121E-074
   94.9221000000000        -2.340701127535971E-074
   95.1615000000000         1.871275441189206E-074
   95.4009000000000         8.370476833838631E-074
   95.6403000000000         1.708691538474121E-073
   95.8797000000000         2.738038366988738E-073
   96.1191000000000         3.783115004181815E-073
   96.3585000000000         4.608381932092948E-073
   96.5979000000000         4.881448069994046E-073
   96.8373000000000         4.190546907424353E-073
   97.0767000000000         2.091503750089681E-073
   97.3161000000000        -1.808657490115046E-073
   97.5555000000000        -7.728547506116386E-073
   97.7949000000000        -1.555424622904732E-072
   98.0343000000000        -2.466164292186529E-072
   98.2737000000000        -3.374870790799995E-072
   98.5131000000000        -4.072255807866242E-072
   98.7525000000000        -4.270043725907404E-072
   98.9919000000000        -3.619280245917190E-072
   99.2313000000000        -1.753541089808145E-072
   99.4707000000000         1.638018343360077E-072
   99.7101000000000         6.706749109065280E-072
   99.9495000000000         1.331516564628218E-071
   100.188900000000         2.089661136907913E-071
   100.428300000000         2.832934052386547E-071
   100.667700000000         3.386199782394123E-071
   100.907100000000         3.513736776656565E-071
   101.146500000000         2.936625143655516E-071
   101.385900000000         1.369945585079585E-071
   101.625300000000        -1.417105676286850E-071
   101.864700000000        -5.518446204827558E-071
   102.104100000000        -1.079117177941317E-070
   102.343500000000        -1.675092718376879E-070
   102.582900000000        -2.248320932225116E-070
   102.822300000000        -2.659939416539710E-070
   103.061700000000        -2.727263523836913E-070
   103.301100000000        -2.239089236917050E-070
   103.540500000000        -9.859365346719843E-071
   103.779900000000         1.193032958300534E-070
   104.019300000000         4.347402434727419E-070
   104.258700000000         8.342176063943939E-070
   104.498100000000         1.278386434138597E-069
   104.737500000000         1.696184830966844E-069
   104.976900000000         1.982633128044379E-069
   105.216300000000         2.002794630108812E-069
   105.455700000000         1.604442024976823E-069
   105.695100000000         6.414651839194832E-070
   105.934500000000        -9.911691100561277E-070
   106.173900000000        -3.312165916595334E-069
   106.413300000000        -6.202544226302031E-069
   106.652700000000        -9.355960745818095E-069
   106.892100000000        -1.224236969611431E-068
   107.131500000000        -1.410010313402491E-068
   107.370900000000        -1.397347191228446E-068
   107.610300000000        -1.081239147557318E-068
   107.849700000000        -3.646057418335445E-069
   108.089100000000         8.166778044954686E-069
   108.328500000000         2.462347055688633E-068
   108.567900000000         4.473208848140451E-068
   108.807300000000         6.619223495413226E-068
   109.046700000000         8.518427694797857E-068
   109.286100000000         9.636971629175589E-068
   109.525500000000         9.321490776009356E-068
   109.764900000000         6.874085633810874E-068
   110.004300000000         1.676545418404593E-068
   110.243700000000        -6.636514168122291E-068
   110.483100000000        -1.796648810742675E-067
   110.722500000000        -3.152627386790110E-067
   110.961900000000        -4.564288357205622E-067
   111.201300000000        -5.764312119963779E-067
   111.440700000000        -6.389000804470494E-067
   111.680100000000        -6.004121501548523E-067
   111.919500000000        -4.159118332697353E-067
   112.158900000000        -4.731089600418795E-068
   112.398300000000         5.248815755655271E-067
   112.637700000000         1.287759073874950E-066
   112.877100000000         2.181807432801299E-066
   113.116500000000         3.089040464640887E-066
   113.355900000000         3.827171168397179E-066
   113.595300000000         4.154153130161390E-066
   113.834700000000         3.787501138527247E-066
   114.074100000000         2.441997328410493E-066
   114.313500000000        -1.125710925426569E-067
   114.552900000000        -3.975297368022640E-066
   114.792300000000        -9.025959210343809E-066
   115.031700000000        -1.483673886430691E-065
   115.271100000000        -2.060198525983969E-065
   115.510500000000        -2.510965638158797E-065
   115.749900000000        -2.678153654291020E-065
   115.989300000000        -2.380898508527095E-065
   116.228700000000        -1.440500626940398E-065
   116.468100000000         2.819767613305892E-066
   116.707500000000         2.837094767571506E-065
   116.946900000000         6.131714366198438E-065
   117.186300000000         9.874780910710770E-065
   117.425700000000         1.353573147462290E-064
   117.665100000000         1.633025126346243E-064
   117.904500000000         1.724995443872292E-064
   118.143900000000         1.515200805940442E-064
   118.383300000000         8.920683533189608E-065
   118.622700000000        -2.295594248402871E-065
   118.862100000000        -1.878139493535021E-064
   119.101500000000        -3.991317623613172E-064
   119.340900000000        -6.382861595270126E-064
   119.580300000000        -8.717693743055644E-064
   119.819700000000        -1.050394055992095E-063
   120.059100000000        -1.111193290438390E-063
   120.298500000000        -9.829652372226199E-064
   120.537900000000        -5.961613419652741E-064
   120.777300000000         1.026907658278252E-064
   121.016700000000         1.132628165874132E-063
   121.256100000000         2.457608647034016E-063
   121.495500000000         3.966471091848131E-063
   121.734900000000         5.457661876361810E-063
   121.974300000000         6.633967293618509E-063
   122.213700000000         7.113077930517691E-063
   122.453100000000         6.459560211112079E-063
   122.692500000000         4.242377495762883E-063
   122.931900000000         1.192065559789884E-064
   123.171300000000        -6.055699960211432E-063
   123.410700000000        -1.410934330701384E-062
   123.650100000000        -2.342978612431410E-062
   123.889500000000        -3.287149373835229E-062
   124.128900000000        -4.071599893388687E-062
   124.368300000000        -4.472123219097447E-062
   124.607700000000        -4.229183546903136E-062
   124.847100000000        -3.079527046958441E-062
   125.086500000000        -8.032971477278278E-063
   125.325900000000         2.714861338425193E-062
   125.565300000000         7.415501776276678E-062
   125.804700000000         1.299356084128127E-061
   126.044100000000         1.883977622836361E-061
   126.283500000000         2.401066050962625E-061
   126.522900000000         2.724557109665871E-061
   126.762300000000         2.704926042623223E-061
   127.001700000000         2.185473180085490E-061
   127.241100000000         1.027339391160443E-061
   127.480500000000        -8.573082937630584E-062
   127.719900000000        -3.466199420696539E-061
   127.959300000000        -6.666342995135509E-061
   128.198700000000        -1.015843508947049E-060
   128.438100000000        -1.345487467801966E-060
   128.677500000000        -1.588135251056798E-060
   128.916900000000        -1.661219872661267E-060
   129.156300000000        -1.474819217516556E-060
   129.395700000000        -9.441871596255913E-061
   129.635100000000        -6.924864744508603E-063
   129.874500000000         1.356178452121895E-060
   130.113900000000         3.098668841199133E-060
   130.353300000000         5.087514499595513E-060
   130.592700000000         7.088066061133921E-060
   130.832100000000         8.760038588226608E-060
   131.071500000000         9.669969766230442E-060
   131.310900000000         9.325104903227804E-060
   131.550300000000         7.232090574271064E-060
   131.789700000000         2.981046834334027E-060
   132.029100000000        -3.648506722710200E-060
   132.268500000000        -1.256861002336736E-059
   132.507900000000        -2.326535804056921E-059
   132.747300000000        -3.470348060704319E-059
   132.986700000000        -4.527842970035750E-059
   133.226100000000        -5.284400667496655E-059
   133.465500000000        -5.484253305553136E-059
   133.704900000000        -4.855858178553587E-059
   133.944300000000        -3.150531672905727E-059
   134.183700000000        -1.934098046607040E-060
   134.423100000000         4.056634433502127E-059
   134.662500000000         9.444355465963226E-059
   134.901900000000         1.556202094963334E-058
   135.141300000000         2.171174882074234E-058
   135.380700000000         2.690003541716609E-058
   135.620100000000         2.987849377650769E-058
   135.859500000000         2.924291232765626E-058
   136.098900000000         2.359808849181967E-058
   136.338300000000         1.178815948793523E-058
   136.577700000000        -6.818613266252448E-059
   136.817100000000        -3.201489551919547E-058
   137.056500000000        -6.244800863556894E-058
   137.295900000000        -9.537519107073713E-058
   137.535300000000        -1.265442519235638E-057
   137.774700000000        -1.502685188027379E-057
   138.014100000000        -1.597609355898056E-057
   138.253500000000        -1.477761516014240E-057
   138.492900000000        -1.075793952087491E-057
   138.732300000000        -3.421622621693672E-058