  -1.79550000000000         0.000000000000000E+000
  -1.55610000000000         0.000000000000000E+000
  -1.31670000000000         0.000000000000000E+000
  -1.07730000000000         0.000000000000000E+000
 -0.837900000000000         0.000000000000000E+000
 -0.598500000000000         0.000000000000000E+000
 -0.359100000000000         0.000000000000000E+000
 -0.119700000000000         0.000000000000000E+000
  0.119700000000000         0.000000000000000E+000
  0.359100000000000         0.000000000000000E+000
  0.598500000000000         0.000000000000000E+000
  0.837900000000000         0.000000000000000E+000
   1.07730000000000         0.000000000000000E+000
   1.31670000000000         0.000000000000000E+000
   1.55610000000000         0.000000000000000E+000
   1.79550000000000         0.000000000000000E+000
   2.03490000000000         0.000000000000000E+000
   2.27430000000000         0.000000000000000E+000
   2.51370000000000         0.000000000000000E+000
   2.75310000000000         0.000000000000000E+000
   2.99250000000000         0.000000000000000E+000
   3.23190000000000         0.000000000000000E+000
   3.47130000000000         0.000000000000000E+000
   3.71070000000000         0.000000000000000E+000
   3.95010000000000         0.000000000000000E+000
   4.18950000000000         0.000000000000000E+000
   4.42890000000000         0.000000000000000E+000
   4.66830000000000         0.000000000000000E+000
   4.90770000000000         0.000000000000000E+000
   5.14710000000000         0.000000000000000E+000
   5.38650000000000         0.000000000000000E+000
   5.62590000000000         0.000000000000000E+000
   5.86530000000000         0.000000000000000E+000
   6.10470000000000         0.000000000000000E+000
   6.34410000000000         0.000000000000000E+000
   6.58350000000000         0.000000000000000E+000
   6.82290000000000         0.000000000000000E+000
   7.06230000000000         0.000000000000000E+000
   7.30170000000000         0.000000000000000E+000
   7.54110000000000         0.000000000000000E+000
   7.78050000000000         0.000000000000000E+000
   8.01990000000000         0.000000000000000E+000
   8.25930000000000         0.000000000000000E+000
   8.49870000000000         0.000000000000000E+000
   8.73810000000000         0.000000000000000E+000
   8.97750000000000         0.000000000000000E+000
   9.21690000000000         0.000000000000000E+000
   9.45630000000000         0.000000000000000E+000
   9.69570000000000         2.158145816021900E-181
   9.93510000000000        -3.477106832957614E-175
   10.1745000000000         8.051148738440008E-175
   10.4139000000000         4.469487467192698E-171
   10.6533000000000         1.498614935126493E-169
   10.8927000000000        -3.373206798511363E-168
   11.1321000000000        -3.877089217098515E-166
   11.3715000000000        -1.493111563427225E-164
   11.6109000000000        -3.770212307442072E-163
   11.8503000000000        -7.225585244874629E-162
   12.0897000000000        -1.122399322120870E-160
   12.3291000000000        -1.467274465679158E-159
   12.5685000000000        -1.653456598287190E-158
   12.8079000000000        -1.631995479900270E-157
   13.0473000000000        -1.425316768051397E-156
   13.2867000000000        -1.107012206436947E-155
   13.5261000000000        -7.638006899770950E-155
   13.7655000000000        -4.631124768090673E-154
   14.0049000000000        -2.389291430831192E-153
   14.2443000000000        -9.486953364370498E-153
   14.4837000000000        -1.609009452547317E-152
   14.7231000000000         1.840896990858805E-151
   14.9625000000000         2.760217163775838E-150
   15.2019000000000         2.502342869301027E-149
   15.4413000000000         1.866754387359829E-148
   15.6807000000000         1.239749587988938E-147
   15.9201000000000         7.578218608067040E-147
   16.1595000000000         4.340387282246384E-146
   16.3989000000000         2.354825450893164E-145
   16.6383000000000         1.219047042638434E-144
   16.8777000000000         6.052649054563834E-144
   17.1171000000000         2.893149929313684E-143
   17.3565000000000         1.335162187452201E-142
   17.5959000000000         5.962047752094807E-142
   17.8353000000000         2.580614781381920E-141
   18.0747000000000         1.084306133572318E-140
   18.3141000000000         4.428189683699722E-140
   18.5535000000000         1.759672184095448E-139
   18.7929000000000         6.811104522139214E-139
   19.0323000000000         2.570459644889567E-138
   19.2717000000000         9.467302485552220E-138
   19.5111000000000         3.406204788777928E-137
   19.7505000000000         1.198240499192948E-136
   19.9899000000000         4.125117863991626E-136
   20.2293000000000         1.390991512610985E-135
   20.4687000000000         4.597959837471830E-135
   20.7081000000000         1.491037695978820E-134
   20.9475000000000         4.746696711671730E-134
   21.1869000000000         1.484330926115865E-133
   21.4263000000000         4.561618834698725E-133
   21.6657000000000         1.378230314620168E-132
   21.9051000000000         4.095031495742039E-132
   22.1445000000000         1.196734934152795E-131
   22.3839000000000         3.440133110416486E-131
   22.6233000000000         9.727131880265958E-131
   22.8627000000000         2.705164453948214E-130
   23.1021000000000         7.398565304737509E-130
   23.3415000000000         1.989655083346700E-129
   23.5809000000000         5.260274503736640E-129
   23.8203000000000         1.366977417098028E-128
   24.0597000000000         3.491092349446825E-128
   24.2991000000000         8.760713304070838E-128
   24.5385000000000         2.159910136721517E-127
   24.7779000000000         5.231190004792655E-127
   25.0173000000000         1.244502978825041E-126
   25.2567000000000         2.908010496687007E-126
   25.4961000000000         6.674003032248480E-126
   25.7355000000000         1.504404189859950E-125
   25.9749000000000         3.330722936103815E-125
   26.2143000000000         7.243131309247095E-125
   26.4537000000000         1.547229709766477E-124
   26.6931000000000         3.246815127291848E-124
   26.9325000000000         6.693807563786871E-124
   27.1719000000000         1.355945426229154E-123
   27.4113000000000         2.698999461993292E-123
   27.6507000000000         5.279414411404843E-123
   27.8901000000000         1.014862774131199E-122
   28.1295000000000         1.917168358021504E-122
   28.3689000000000         3.558792420301874E-122
   28.6083000000000         6.489999998937884E-122
   28.8477000000000         1.162340521214301E-121
   29.0871000000000         2.043319491723913E-121
   29.3265000000000         3.523107036757268E-121
   29.5659000000000         5.952059975088081E-121
   29.8053000000000         9.840471361481633E-121
   30.0447000000000         1.589768686113982E-120
   30.2841000000000         2.505808972931045E-120
   30.5235000000000         3.848447376031602E-120
   30.7629000000000         5.756605159210870E-120
   31.0023000000000         8.401915077156715E-120
   31.2417000000000         1.204237319758439E-119
   31.4811000000000         1.719828620779565E-119
   31.7205000000000         2.510261276871554E-119
   31.9599000000000         3.865601419567239E-119
   32.1993000000000         6.408510136139811E-119
   32.4387000000000         1.130099905140635E-118
   32.6781000000000         2.028009802867582E-118
   32.9175000000000         3.480435481250588E-118
   33.1569000000000         5.239591825990366E-118
   33.3963000000000         5.574729036091872E-118
   33.6357000000000        -1.457563561855120E-118
   33.8751000000000        -3.208943601779184E-117
   34.1145000000000        -1.250765868805356E-116
   34.3539000000000        -3.639911423764034E-116
   34.5933000000000        -9.133304045740338E-116
   34.8327000000000        -2.067743175557543E-115
   35.0721000000000        -4.298306837471094E-115
   35.3115000000000        -8.241201032874057E-115
   35.5509000000000        -1.449232659236190E-114
   35.7903000000000        -2.291940241806044E-114
   36.0297000000000        -3.095570392673474E-114
   36.2691000000000        -3.000151786462888E-114
   36.5085000000000         1.270329235115044E-115
   36.7479000000000         1.079105150933582E-113
   36.9873000000000         3.741209400643422E-113
   37.2267000000000         9.396166555898461E-113
   37.4661000000000         2.004743353475316E-112
   37.7055000000000         3.794842816980503E-112
   37.9449000000000         6.424430275953483E-112
   38.1843000000000         9.557512854711655E-112
   38.4237000000000         1.170856164709286E-111
   38.6631000000000         8.996441549898376E-112
   38.9025000000000        -6.781400235168390E-112
   39.1419000000000        -5.060937901903220E-111
   39.3813000000000        -1.463711913602543E-110
   39.6207000000000        -3.262232379713965E-110
   39.8601000000000        -6.221285303193659E-110
   40.0995000000000        -1.040376765772466E-109
   40.3389000000000        -1.504902289982863E-109
   40.5783000000000        -1.751312557879319E-109
   40.8177000000000        -1.155918431071563E-109
   41.0571000000000         1.496987006879377E-109
   41.2965000000000         8.253413868545848E-109
   41.5359000000000         2.206552274360629E-108
   41.7753000000000         4.633841953739283E-108
   42.0147000000000         8.327971971700723E-108
   42.2541000000000         1.300079637786995E-107
   42.4935000000000         1.710604556235287E-107
   42.7329000000000         1.660200005756466E-107
   42.9723000000000         3.210778764448952E-108
   43.2117000000000        -3.751498019837676E-107
   43.4511000000000        -1.273162473383859E-106
   43.6905000000000        -2.933182840432729E-106
   43.9299000000000        -5.590156260184984E-106
   44.1693000000000        -9.217699758608974E-106
   44.4087000000000        -1.308419382402064E-105
   44.6481000000000        -1.500688292860601E-105
   44.8875000000000        -1.027778018186891E-105
   45.1269000000000         9.595538245123461E-106
   45.3663000000000         5.783249429449240E-105
   45.6057000000000         1.518735344961455E-104
   45.8451000000000         3.093483048234206E-104
   46.0845000000000         5.372625093186429E-104
   46.3239000000000         8.100945112311586E-104
   46.5633000000000         1.032407499928688E-103
   46.8027000000000         9.840386473228797E-104
   47.0421000000000         2.534011222852535E-104
   47.2815000000000        -1.819784101740691E-103
   47.5209000000000        -6.143543607571521E-103
   47.7603000000000        -1.372493962599412E-102
   47.9997000000000        -2.523366867183327E-102
   48.2391000000000        -4.009287814382658E-102
   48.4785000000000        -5.490583266744996E-102
   48.7179000000000        -6.112069370077497E-102
   48.9573000000000        -4.212263870069262E-102
   49.1967000000000         2.945714028567564E-102
   49.4361000000000         1.923946846669613E-101
   49.6755000000000         4.921588206201511E-101
   49.9149000000000         9.656624792593418E-101
   50.1543000000000         1.608690469672353E-100
   50.3937000000000         2.318988978137605E-100
   50.6331000000000         2.811250432190684E-100
   50.8725000000000         2.510033760644461E-100
   51.1119000000000         4.468507914726693E-101
   51.3513000000000        -4.778226267890276E-100
   51.5907000000000        -1.486099720537414E-099
   51.8301000000000        -3.131555076131596E-099
   52.0695000000000        -5.443615145002704E-099
   52.3089000000000        -8.147488086353927E-099
   52.5483000000000        -1.039144786650729E-098
   52.7877000000000        -1.040183790780794E-098
   53.0271000000000        -5.145108550159148E-099
   53.2665000000000         9.822239255805657E-099
   53.5059000000000         3.999122861083132E-098
   53.7453000000000         9.053225568420691E-098
   53.9847000000000         1.632860448924517E-097
   54.2241000000000         2.514680722320412E-097
   54.4635000000000         3.317353106175764E-097
   54.7029000000000         3.541080337163278E-097
   54.9423000000000         2.319185146258492E-097
   55.1817000000000        -1.632860474522208E-097
   55.4211000000000        -9.931015017248369E-097
   55.6605000000000        -2.416609398336904E-096
   55.8999000000000        -4.510650240958005E-096
   56.1393000000000        -7.128576332294466E-096
   56.3787000000000        -9.687363752683652E-096
   56.6181000000000        -1.089406008004377E-095
   56.8575000000000        -8.464390693848229E-096
   57.0969000000000         1.045202292686282E-096
   57.3363000000000         2.207503695396725E-095
   57.5757000000000         5.923984884098943E-095
   57.8151000000000         1.154195952636482E-094
   58.0545000000000         1.883144959366042E-094
   58.2939000000000         2.651686816297978E-094
   58.5333000000000         3.158330933721244E-094
   58.7727000000000         2.852778756324477E-094
   59.0121000000000         8.821634301409506E-095
   59.2515000000000        -3.893003745315283E-094
   59.4909000000000        -1.273824100138659E-093
   59.7303000000000        -2.664049946755464E-093
   59.9697000000000        -4.555033086969761E-093
   60.2091000000000        -6.718692585339583E-093
   60.4485000000000        -8.541167929423037E-093
   60.6879000000000        -8.836419568425479E-093
   60.9273000000000        -5.687338280879169E-093
   61.1667000000000         3.588147726991382E-093
   61.4061000000000         2.219104672893031E-092
   61.6455000000000         5.310291996156367E-092
   61.8849000000000         9.760831519555200E-092
   62.1243000000000         1.528588954018818E-091
   62.3637000000000         2.084059130411263E-091
   62.6031000000000         2.419604194173264E-091
   62.8425000000000         2.152286653871843E-091
   63.0819000000000         7.155410862823807E-092
   63.3213000000000        -2.617546898488891E-091
   63.5607000000000        -8.622867176572705E-091
   63.8001000000000        -1.787496169630456E-090
   64.0395000000000        -3.030672438360760E-090
   64.2789000000000        -4.454722869494107E-090
   64.5183000000000        -5.705687324225241E-090
   64.7577000000000        -6.117561977000988E-090
   64.9971000000000        -4.635246285541355E-090
   65.2365000000000         1.967634810352612E-091
   65.4759000000000         1.010799582997124E-089
   65.7153000000000         2.674360069247590E-089
   65.9547000000000         5.096919750563147E-089
   66.1941000000000         8.175162029037657E-089
   66.4335000000000         1.145945258584309E-088
   66.6729000000000         1.396474838576478E-088
   66.9123000000000         1.398421017223715E-088
   67.1517000000000         8.974834143297353E-089
   67.3911000000000        -4.373008403126938E-089
   67.6305000000000        -2.972571253855479E-088
   67.8699000000000        -7.016709718511750E-088
   68.1093000000000        -1.265421028921395E-087
   68.3487000000000        -1.949644150823368E-087
   68.5881000000000        -2.635435720234239E-087
   68.8275000000000        -3.087084980647076E-087
   69.0669000000000        -2.920005646102519E-087
   69.3063000000000        -1.588750570084323E-087
   69.5457000000000         1.581819482975087E-087
   69.7851000000000         7.292074726795378E-087
   70.0245000000000         1.605620188083871E-086
   70.2639000000000         2.785462621755443E-086
   70.5033000000000         4.163929313824195E-086
   70.7427000000000         5.471936155719771E-086
   70.9821000000000         6.211939761334987E-086
   71.2215000000000         5.609502323381866E-086
   71.4609000000000         2.610733861072012E-086
   71.7003000000000        -4.031944399598410E-086
   71.9397000000000        -1.553365849807229E-085
   72.1791000000000        -3.265706846699102E-085
   72.4185000000000        -5.505939433956450E-085
   72.6579000000000        -8.040694498598031E-085
   72.8973000000000        -1.033317282053031E-084
   73.1367000000000        -1.144200360163410E-084
   73.3761000000000        -9.957880686256216E-085
   73.6155000000000        -4.030821620999868E-085
   73.8549000000000         8.441568193677517E-085
   74.0943000000000         2.938370246139457E-084
   74.3337000000000         5.979352157898933E-084
   74.5731000000000         9.863284487710335E-084
   74.8125000000000         1.413874848076972E-083
   75.0519000000000         1.784549215578801E-083
   75.2913000000000         1.937027156317021E-083
   75.5307000000000         1.637771889588828E-083
   75.7701000000000         5.900011139793294E-084
   76.0095000000000        -1.530883955919166E-083
   76.2489000000000        -5.003967254990576E-083
   76.4883000000000        -9.941988557362281E-083
   76.7277000000000        -1.611961718151442E-082
   76.9671000000000        -2.275966916479986E-082
   77.2065000000000        -2.830565529126678E-082
   77.4459000000000        -3.023602978477660E-082
   77.6853000000000        -2.500798143863849E-082
   77.9247000000000        -8.251483944501129E-083
   78.1641000000000         2.464161187546982E-082
   78.4035000000000         7.738729622047619E-082
   78.6429000000000         1.510313195705327E-081
   78.8823000000000         2.415177641183166E-081
   79.1217000000000         3.367802938366309E-081
   79.3611000000000         4.138049042282942E-081
   79.6005000000000         4.364700499370286E-081
   79.8399000000000         3.553752716283537E-081
   80.0793000000000         1.112458062231364E-081
   80.3187000000000        -3.562791537283582E-081
   80.5581000000000        -1.092782487934094E-080
   80.7975000000000        -2.105109697157255E-080
   81.0369000000000        -3.329754800614132E-080
   81.2763000000000        -4.596467458697696E-080
   81.5157000000000        -5.593422658119799E-080
   81.7551000000000        -5.844605083027081E-080
   81.9945000000000        -4.714664903044871E-080
   82.2339000000000        -1.460366093097625E-080
   82.4733000000000         4.650712632395310E-080
   82.7127000000000         1.413645556681664E-079
   82.9521000000000         2.700345013890464E-079
   83.1915000000000         4.236812365869610E-079
   83.4309000000000         5.803641232405621E-079
   83.6703000000000         7.012285069026455E-079
   83.9097000000000         7.283764027486323E-079
   84.1491000000000         5.861804852310029E-079
   84.3885000000000         1.881595996859751E-079
   84.6279000000000        -5.484135762431020E-079
   84.8673000000000        -1.678476731327335E-078
   85.1067000000000        -3.195263094356346E-078
   85.3461000000000        -4.988284085981603E-078
   85.5855000000000        -6.798299598944035E-078
   85.8249000000000        -8.178662087533851E-078
   86.0643000000000        -8.477273355410305E-078
   86.3037000000000        -6.857946683973419E-078
   86.5431000000000        -2.382865457328463E-078
   86.7825000000000         5.822774912398103E-078
   87.0219000000000         1.830916151097847E-077
   87.2613000000000         3.494275435844049E-077
   87.5007000000000         5.447302981860276E-077
   87.7401000000000         7.408244580298288E-077
   87.9795000000000         8.901936950855743E-077
   88.2189000000000         9.245947339941851E-077
   88.4583000000000         7.578122798756104E-077
   88.6977000000000         2.946209546003352E-077
   88.9371000000000        -5.521368154001788E-077
   89.1765000000000        -1.835170665883150E-076
   89.4159000000000        -3.537350396325526E-076
   89.6553000000000        -5.529950057005857E-076
   89.8947000000000        -7.530407971947130E-076
   90.1341000000000        -9.069370697186592E-076
   90.3735000000000        -9.480819070325346E-076
   90.6129000000000        -7.932377308374569E-076
   90.8523000000000        -3.514242295057372E-076
   91.0917000000000         4.597004329959677E-076
   91.3311000000000         1.689079607645769E-075
   91.5705000000000         3.319631414060150E-075
   91.8099000000000         5.230420441073195E-075
   92.0493000000000         7.159156581664796E-075
   92.2887000000000         8.673893907682031E-075
   92.5281000000000         9.166147137946147E-075
   92.7675000000000         7.880217769347990E-075
   93.0069000000000         3.994269089601843E-075
   93.2463000000000        -3.233663273813046E-075
   93.4857000000000        -1.424831530210907E-074
   93.7251000000000        -2.891438948894950E-074
   93.9645000000000        -4.619254018967269E-074
   94.2039000000000        -6.382221039679259E-074
   94.4433000000000        -7.808656041063323E-074
   94.6827000000000        -8.376114931137033E-074
   94.9221000000000        -7.436734020890842E-074
   95.1615000000000        -4.285513890564669E-074
   95.4009000000000         1.718156233536233E-074
   95.6403000000000         1.097115617896874E-073
   95.8797000000000         2.339495284122776E-073
   96.1191000000000         3.817173696846763E-073
   96.3585000000000         5.348728098896184E-073
   96.5979000000000         6.634045826359224E-073
   96.8373000000000         7.249942252841501E-073
   97.0767000000000         6.669861130497137E-073
   97.3161000000000         4.317260091390266E-073
   97.5555000000000        -3.394949016557876E-074
   97.7949000000000        -7.647370636304812E-073
   98.0343000000000        -1.758839614110944E-072
   98.2737000000000        -2.957434585899764E-072
   98.5131000000000        -4.224588647614253E-072
   98.7525000000000        -5.332131772156871E-072
   98.9919000000000        -5.955479425099783E-072
   99.2313000000000        -5.687421137578271E-072
   99.4707000000000        -4.077014338949526E-072
   99.7101000000000        -6.994093713366743E-073
   99.9495000000000         4.740824598419459E-072
   100.188900000000         1.227588260901032E-071
   100.428300000000         2.152142991218304E-071
   100.667700000000         3.152492536082557E-071
   100.907100000000         4.064784613005040E-071
   101.146500000000         4.652468047053064E-071
   101.385900000000         4.614902115090424E-071
   101.625300000000         3.613823212077197E-071
   101.864700000000         1.321935441941179E-071
   102.104100000000        -2.504334261660748E-071
   102.343500000000        -7.929708987317383E-071
   102.582900000000        -1.472986808026597E-070
   102.822300000000        -2.228045450671210E-070
   103.061700000000        -2.946731754113609E-070
   103.301100000000        -3.464744913732661E-070
   103.540500000000        -3.569547713487292E-070
   103.779900000000        -3.017181786925282E-070
   104.019300000000        -1.564323770190036E-070
   104.258700000000         9.827740037712914E-071
   104.498100000000         4.703322351869406E-070
   104.737500000000         9.485521064060111E-070
   104.976900000000         1.494772209095113E-069
   105.216300000000         2.037161882287819E-069
   105.455700000000         2.466695448483942E-069
   105.695100000000         2.639113648223885E-069
   105.934500000000         2.384843884572775E-069
   106.173900000000         1.529058666016111E-069
   106.413300000000        -7.681268823045436E-071
   106.652700000000        -2.512368215105947E-069
   106.892100000000        -5.736877409100739E-069
   107.131500000000        -9.534845452032358E-069
   107.370900000000        -1.346749827816809E-068
   107.610300000000        -1.684263201803220E-068
   107.849700000000        -1.871805101833390E-068
   108.089100000000        -1.795506720657855E-068
   108.328500000000        -1.333723967982797E-068
   108.567900000000        -3.764670089198104E-069
   108.807300000000         1.147511870573713E-068
   109.046700000000         3.237284179652547E-068
   109.286100000000         5.783150500676253E-068
   109.525500000000         8.532274568273569E-068
   109.764900000000         1.106421546519222E-067
   110.004300000000         1.278598872210347E-067
   110.243700000000         1.295740133800566E-067
   110.483100000000         1.075704311483000E-067
   110.722500000000         5.396815725516781E-068
   110.961900000000        -3.712343454317146E-068
   111.201300000000        -1.674919551036217E-067
   111.440700000000        -3.324240278664732E-067
   111.680100000000        -5.183299290491713E-067
   111.919500000000        -7.008470254825049E-067
   112.158900000000        -8.440144196447565E-067
   112.398300000000        -9.012041986599045E-067
   112.637700000000        -8.185060370411236E-067
   112.877100000000        -5.411496191501526E-067
   113.116500000000        -2.327379965556741E-068
   113.355900000000         7.591162179152720E-067
   113.595300000000         1.792829655563100E-066
   113.834700000000         3.011476274585486E-066
   114.074100000000         4.281371107674735E-066
   114.313500000000         5.392898899226706E-066
   114.552900000000         6.061610469220502E-066
   114.792300000000         5.943628479367498E-066
   115.031700000000         4.669556999969759E-066
   115.271100000000         1.899753658567930E-066
   115.510500000000        -2.598683831098415E-066
   115.749900000000        -8.856655278878708E-066
   115.989300000000        -1.659796531229509E-065
   116.228700000000        -2.513875043671524E-065
   116.468100000000        -3.331194223993840E-065
   116.707500000000        -3.944272120439517E-065
   116.946900000000        -4.140428929879713E-065
   117.186300000000        -3.678299072033783E-065
   117.425700000000        -2.317611760294879E-065
   117.665100000000         1.366927585107085E-066
   117.904500000000         3.777016236582438E-065
   118.143900000000         8.526222878095095E-065
   118.383300000000         1.406881482594615E-064
   118.622700000000         1.979162581407753E-064
   118.862100000000         2.474932875676277E-064
   119.101500000000         2.767298508732845E-064
   119.340900000000         2.704093483619061E-064
   119.580300000000         2.122944919474117E-064
   119.819700000000         8.754661044913408E-065
   120.059100000000        -1.139352262841419E-064
   120.298500000000        -3.934095608958922E-064
   120.537900000000        -7.387878546082806E-064
   120.777300000000        -1.120342316966316E-063
   121.016700000000        -1.487494827389087E-063
   121.256100000000        -1.767778899394016E-063
   121.495500000000        -1.869201919830911E-063
   121.734900000000        -1.687215903520140E-063
   121.974300000000        -1.117261648705438E-063
   122.213700000000        -7.332013893232076E-065
   122.453100000000         1.487955702843108E-063
   122.692500000000         3.539149348344716E-063
   122.931900000000         5.953121127594497E-063
   123.171300000000         8.477892381447544E-063
   123.410700000000         1.072163448550801E-062
   123.650100000000         1.215519578531450E-062
   123.889500000000         1.214000823718209E-062
   124.128900000000         9.988430712601043E-063
   124.368300000000         5.061187315597229E-063
   124.607700000000        -3.097783739099464E-063
   124.847100000000        -1.459518240209841E-062
   125.086500000000        -2.900536066234221E-062
   125.325900000000        -4.519465085117601E-062
   125.565300000000        -6.118711527810615E-062
   125.804700000000        -7.411441251385310E-062
   126.044100000000        -8.029756221947038E-062
   126.283500000000        -7.550747324800846E-062
   126.522900000000        -5.544158410430990E-062
   126.762300000000        -1.643357672697829E-062
   127.001700000000         4.361954471054277E-062
   127.241100000000         1.241735730255037E-061
   127.480500000000         2.209117552160828E-061
   127.719900000000         3.247530135951340E-061
   127.959300000000         4.212252270918775E-061
   128.198700000000         4.904771054062530E-061
   128.438100000000         5.082160465014103E-061
   128.677500000000         4.478300324249293E-061
   128.916900000000         2.838648395906919E-061
   129.156300000000        -3.127067948526092E-063
   129.395700000000        -4.205763345033019E-061
   129.635100000000        -9.572271573656490E-061
   129.874500000000        -1.576645602622135E-060
   130.113900000000        -2.212084024648830E-060
   130.353300000000        -2.764171068889493E-060
   130.592700000000        -3.103066966299289E-060
   130.832100000000        -3.076691353184840E-060
   131.071500000000        -2.526312941426443E-060
   131.310900000000        -1.310116834446562E-060
   131.550300000000         6.657042357108252E-061
   131.789700000000         3.410244949769652E-060
   132.029100000000         6.809244349034442E-060
   132.268500000000         1.059009151730140E-059
   132.507900000000         1.429786670995957E-059
   132.747300000000         1.729114560452421E-059
   132.986700000000         1.876675822200558E-059
   133.226100000000         1.782183227515785E-059
   133.465500000000         1.355884618238272E-059
   133.704900000000         5.234766673029271E-060
   133.944300000000        -7.551441592742001E-060
   134.183700000000        -2.464734840899888E-059
   134.423100000000        -4.513603060072895E-059
   134.662500000000        -6.716004639302956E-059
   134.901900000000        -8.782372726928775E-059
   135.141300000000        -1.032224358110870E-058
   135.380700000000        -1.086470703186033E-058
   135.620100000000        -9.900374571819108E-059
   135.859500000000        -6.947032874955599E-059
   136.098900000000        -1.638226355880399E-059
   136.338300000000         6.169986150564112E-059
   136.577700000000         1.628372017972283E-058
   136.817100000000         2.806231855281745E-058
   137.056500000000         4.033574541653006E-058
   137.295900000000         5.137220904307458E-058
   137.535300000000         5.892157846474474E-058
   137.774700000000         6.035844231351667E-058
   138.014100000000         5.294246671681254E-058
   138.253500000000         3.420224633376011E-058
   138.492900000000         2.431834862778745E-059
   138.732300000000        -4.273291416267948E-058