  -1.79550000000000         0.000000000000000E+000
  -1.55610000000000         0.000000000000000E+000
  -1.31670000000000         0.000000000000000E+000
  -1.07730000000000         0.000000000000000E+000
 -0.837900000000000         0.000000000000000E+000
 -0.598500000000000         0.000000000000000E+000
 -0.359100000000000         0.000000000000000E+000
 -0.119700000000000         0.000000000000000E+000
  0.119700000000000         0.000000000000000E+000
  0.359100000000000         0.000000000000000E+000
  0.598500000000000         0.000000000000000E+000
  0.837900000000000         0.000000000000000E+000
   1.07730000000000         0.000000000000000E+000
   1.31670000000000         0.000000000000000E+000
   1.55610000000000         0.000000000000000E+000
   1.79550000000000         0.000000000000000E+000
   2.03490000000000         0.000000000000000E+000
   2.27430000000000         0.000000000000000E+000
   2.51370000000000         0.000000000000000E+000
   2.75310000000000         0.000000000000000E+000
   2.99250000000000         0.000000000000000E+000
   3.23190000000000         0.000000000000000E+000
   3.47130000000000         0.000000000000000E+000
   3.71070000000000         0.000000000000000E+000
   3.95010000000000         0.000000000000000E+000
   4.18950000000000         0.000000000000000E+000
   4.42890000000000         0.000000000000000E+000
   4.66830000000000         0.000000000000000E+000
   4.90770000000000         0.000000000000000E+000
   5.14710000000000         0.000000000000000E+000
   5.38650000000000         0.000000000000000E+000
   5.62590000000000         0.000000000000000E+000
   5.86530000000000         0.000000000000000E+000
   6.10470000000000         0.000000000000000E+000
   6.34410000000000         0.000000000000000E+000
   6.58350000000000         0.000000000000000E+000
   6.82290000000000         0.000000000000000E+000
   7.06230000000000         0.000000000000000E+000
   7.30170000000000         0.000000000000000E+000
   7.54110000000000         0.000000000000000E+000
   7.78050000000000         0.000000000000000E+000
   8.01990000000000         0.000000000000000E+000
   8.25930000000000         0.000000000000000E+000
   8.49870000000000         0.000000000000000E+000
   8.73810000000000         0.000000000000000E+000
   8.97750000000000        -2.150545416127740E-188
   9.21690000000000         1.844030414875024E-181
   9.45630000000000         6.763697929443098E-179
   9.69570000000000        -1.608596975883712E-174
   9.93510000000000        -9.526453529235090E-173
   10.1745000000000        -2.701124648470975E-171
   10.4139000000000        -4.885145592925500E-170
   10.6533000000000        -6.471603984754554E-169
   10.8927000000000        -7.258744977214488E-168
   11.1321000000000        -8.353934526019268E-167
   11.3715000000000        -1.074058293810502E-165
   11.6109000000000        -1.347388476712749E-164
   11.8503000000000        -1.374566992852638E-163
   12.0897000000000        -8.989824480539388E-163
   12.3291000000000         9.472263483539655E-163
   12.5685000000000         1.344668641396907E-160
   12.8079000000000         2.464819730925578E-159
   13.0473000000000         3.150058899974083E-158
   13.2867000000000         3.295479332791753E-157
   13.5261000000000         2.987926297076365E-156
   13.7655000000000         2.416382488241396E-155
   14.0049000000000         1.773542107700001E-154
   14.2443000000000         1.195224379067920E-153
   14.4837000000000         7.457694386099315E-153
   14.7231000000000         4.335079304901647E-152
   14.9625000000000         2.358673515535591E-151
   15.2019000000000         1.205495438680744E-150
   15.4413000000000         5.802771038371573E-150
   15.6807000000000         2.635501256215480E-149
   15.9201000000000         1.130533852365339E-148
   16.1595000000000         4.580902828095252E-148
   16.3989000000000         1.751711891344137E-147
   16.6383000000000         6.306686925590683E-147
   16.8777000000000         2.128299011703953E-146
   17.1171000000000         6.678687654327205E-146
   17.3565000000000         1.920464580365878E-145
   17.5959000000000         4.912485518744883E-145
   17.8353000000000         1.039108333799467E-144
   18.0747000000000         1.365324447029007E-144
   18.3141000000000        -1.961218908100113E-144
   18.5535000000000        -2.423791236449855E-143
   18.7929000000000        -1.209888128903744E-142
   19.0323000000000        -4.674480321108828E-142
   19.2717000000000        -1.552511414400384E-141
   19.5111000000000        -4.569536019457282E-141
   19.7505000000000        -1.194451926168186E-140
   19.9899000000000        -2.709051511872837E-140
   20.2293000000000        -4.928162243383096E-140
   20.4687000000000        -4.991954151465480E-140
   20.7081000000000         1.079297899936343E-139
   20.9475000000000         8.961323584487773E-139
   21.1869000000000         3.663362144986099E-138
   21.4263000000000         1.169819925595807E-137
   21.6657000000000         3.167472941914419E-137
   21.9051000000000         7.352376710640363E-137
   22.1445000000000         1.406549040963202E-136
   22.3839000000000         1.860908466192951E-136
   22.6233000000000        -2.575149808404855E-137
   22.8627000000000        -1.271841950047162E-135
   23.1021000000000        -5.606303860924814E-135
   23.3415000000000        -1.749495966367528E-134
   23.5809000000000        -4.438233959100299E-134
   23.8203000000000        -9.224369749628864E-134
   24.0597000000000        -1.419978899422238E-133
   24.2991000000000        -7.017353771825543E-134
   24.5385000000000         5.659607518718890E-133
   24.7779000000000         3.019856003559460E-132
   25.0173000000000         1.028989620322508E-131
   25.2567000000000         2.843500692911025E-131
   25.4961000000000         6.710331040769161E-131
   25.7355000000000         1.346192128021647E-130
   25.9749000000000         2.140817095912059E-130
   26.2143000000000         1.876945716744182E-130
   26.4537000000000        -3.581998650696121E-130
   26.6931000000000        -2.562062638773403E-129
   26.9325000000000        -9.086563336724984E-129
   27.1719000000000        -2.528403780397685E-128
   27.4113000000000        -6.004718717797710E-128
   27.6507000000000        -1.236050540043815E-127
   27.8901000000000        -2.144338192087164E-127
   28.1295000000000        -2.766615732638270E-127
   28.3689000000000        -8.973084642562709E-128
   28.6083000000000         9.768866079402947E-127
   28.8477000000000         4.438256879694311E-126
   29.0871000000000         1.347299327328879E-125
   29.3265000000000         3.389574360244953E-125
   29.5659000000000         7.459029049900106E-125
   29.8053000000000         1.451016730073407E-124
   30.0447000000000         2.447556060492404E-124
   30.2841000000000         3.316049560237009E-124
   30.5235000000000         2.502985810874274E-124
   30.7629000000000        -4.120680652899136E-124
   31.0023000000000        -2.574135068551091E-123
   31.2417000000000        -8.010223878600896E-123
   31.4811000000000        -1.967252643327879E-122
   31.7205000000000        -4.152870187173894E-122
   31.9599000000000        -7.676264027515973E-122
   32.1993000000000        -1.219186427371052E-121
   32.4387000000000        -1.526156977006252E-121
   32.6781000000000        -9.414113626259922E-122
   32.9175000000000         2.309403939830877E-121
   33.1569000000000         1.181991405107070E-120
   33.3963000000000         3.392167503182537E-120
   33.6357000000000         7.810904832833196E-120
   33.8751000000000         1.553243793166949E-119
   34.1145000000000         2.705810655892181E-119
   34.3539000000000         4.034677186689678E-119
   34.5933000000000         4.663849228393991E-119
   34.8327000000000         2.275833583012283E-119
   35.0721000000000        -8.112507008510637E-119
   35.3115000000000        -3.575271719616432E-118
   35.5509000000000        -9.556475641742446E-118
   35.7903000000000        -2.076502641792845E-117
   36.0297000000000        -3.911986976766147E-117
   36.2691000000000        -6.458334472864455E-117
   36.5085000000000        -9.091940944008547E-117
   36.7479000000000        -9.756449685903216E-117
   36.9873000000000        -3.612741064510925E-117
   37.2267000000000         1.887014016931590E-116
   37.4661000000000         7.400794773674292E-116
   37.7055000000000         1.859088013440930E-115
   37.9449000000000         3.834485914303689E-115
   38.1843000000000         6.875589446320105E-115
   38.4237000000000         1.079477854931212E-114
   38.6631000000000         1.436778323051304E-114
   38.9025000000000         1.422523636236794E-114
   39.1419000000000         3.192092766002226E-115
   39.3813000000000        -3.177019112600031E-114
   39.6207000000000        -1.112999479872203E-113
   39.8601000000000        -2.632478033840965E-113
   40.0995000000000        -5.165772066519138E-113
   40.3389000000000        -8.834460784645933E-113
   40.5783000000000        -1.320513957260236E-112
   40.8177000000000        -1.658647263448155E-112
   41.0571000000000        -1.492185488467577E-112
   41.2965000000000        -3.002859259910422E-114
   41.5359000000000         4.060808438045245E-112
   41.7753000000000         1.273206088674221E-111
   42.0147000000000         2.836889188399701E-111
   42.2541000000000         5.302063578549632E-111
   42.4935000000000         8.655770653308197E-111
   42.7329000000000         1.231231306701996E-110
   42.9723000000000         1.452595430168956E-110
   43.2117000000000         1.154950190409702E-110
   43.4511000000000        -3.366204402774260E-111
   43.6905000000000        -4.079315320981548E-110
   43.9299000000000        -1.150031818552737E-109
   44.1693000000000        -2.414962870959087E-109
   44.4087000000000        -4.299579990288086E-109
   44.6481000000000        -6.696261930298204E-109
   44.8875000000000        -9.037494627576634E-109
   45.1269000000000        -9.909318847001692E-109
   45.3663000000000        -6.551571767853664E-109
   45.6057000000000         5.647839383535081E-109
   45.8451000000000         3.339543833246499E-108
   46.0845000000000         8.495003358582276E-108
   46.3239000000000         1.679377207376835E-107
   46.5633000000000         2.843037232916688E-107
   46.8027000000000         4.209502836800549E-107
   47.0421000000000         5.348201145062241E-107
   47.2815000000000         5.323477282479821E-107
   47.5209000000000         2.460449074821150E-107
   47.7603000000000        -5.836215724105923E-107
   47.9997000000000        -2.304215427951919E-106
   48.2391000000000        -5.296276381935282E-106
   48.4785000000000        -9.824435076610995E-106
   48.7179000000000        -1.574076775319396E-105
   48.9573000000000        -2.198745688836810E-105
   49.1967000000000        -2.587487576310491E-105
   49.4361000000000        -2.219152303172092E-105
   49.6755000000000        -2.362373256037474E-106
   49.9149000000000         4.586095495764317E-105
   50.1543000000000         1.373116699522110E-104
   50.3937000000000         2.855899231538527E-104
   50.6331000000000         4.947594843515645E-104
   50.8725000000000         7.446759241382873E-104
   51.1119000000000         9.686842089350630E-104
   51.3513000000000         1.024461823944620E-103
   51.5907000000000         6.630871678974085E-104
   51.8301000000000        -4.911689747933490E-104
   52.0695000000000        -2.926852160301585E-103
   52.3089000000000        -7.159793155901033E-103
   52.5483000000000        -1.352484108425585E-102
   52.7877000000000        -2.178633831709985E-102
   53.0271000000000        -3.051964086170142E-102
   53.2665000000000        -3.626261002232552E-102
   53.5059000000000        -3.254133740094452E-102
   53.7453000000000        -9.062524057583469E-103
   53.9847000000000         4.834839667845614E-102
   54.2241000000000         1.561092797215374E-101
   54.4635000000000         3.281886478101762E-101
   54.7029000000000         5.667276226032262E-101
   54.9423000000000         8.464696248095012E-101
   55.1817000000000         1.092441775772843E-100
   55.4211000000000         1.152676898071178E-100
   55.6605000000000         7.721276780326549E-101
   55.8999000000000        -4.192252981198662E-101
   56.1393000000000        -2.881803135380789E-100
   56.3787000000000        -7.072656121145434E-100
   56.6181000000000        -1.324122692147818E-099
   56.8575000000000        -2.107278850920711E-099
   57.0969000000000        -2.915449246128729E-099
   57.3363000000000        -3.428606991228136E-099
   57.5757000000000        -3.074941729712358E-099
   57.8151000000000        -9.801037414896043E-100
   58.0545000000000         4.013913153142536E-099
   58.2939000000000         1.318799263455772E-098
   58.5333000000000         2.754809156006003E-098
   58.7727000000000         4.708627420470228E-098
   59.0121000000000         6.962058585884180E-098
   59.2515000000000         8.921804114356955E-098
   59.4909000000000         9.438152441433603E-098
   59.7303000000000         6.647987123740176E-098
   59.9697000000000        -2.066658812418378E-098
   60.2091000000000        -1.985933637253236E-097
   60.4485000000000        -4.973962046648442E-097
   60.6879000000000        -9.320009677780305E-097
   60.9273000000000        -1.479398929518001E-096
   61.1667000000000        -2.046063871678193E-096
   61.4061000000000        -2.427807737318754E-096
   61.6455000000000        -2.269734489619872E-096
   61.8849000000000        -1.042103318947054E-096
   62.1243000000000         1.941466683403459E-096
   62.3637000000000         7.425455970791736E-096
   62.6031000000000         1.598654929853059E-095
   62.8425000000000         2.763298312321434E-095
   63.0819000000000         4.119907071792995E-095
   63.3213000000000         5.355154086357732E-095
   63.5607000000000         5.871278116774487E-095
   63.8001000000000         4.714551424014807E-095
   64.0395000000000         5.633275184660279E-096
   64.2789000000000        -8.158867758275738E-095
   64.5183000000000        -2.295979672877742E-094
   64.7577000000000        -4.465071780135363E-094
   64.9971000000000        -7.233825695732359E-094
   65.2365000000000        -1.020230697293912E-093
   65.4759000000000        -1.249228970715596E-093
   65.7153000000000        -1.258539603729404E-093
   65.9547000000000        -8.231246749027805E-094
   66.1941000000000         3.472457214766057E-094
   66.4335000000000         2.568808963691576E-093
   66.6729000000000         6.096992833634030E-093
   66.9123000000000         1.097649507395259E-092
   67.1517000000000         1.682017915186939E-092
   67.3911000000000         2.252597411387434E-092
   67.6305000000000         2.597138456136865E-092
   67.8699000000000         2.377052444143925E-092
   68.1093000000000         1.123696674680687E-092
   68.3487000000000        -1.724087934041757E-092
   68.5881000000000        -6.715386292374782E-092
   68.8275000000000        -1.418872591802467E-091
   69.0669000000000        -2.396001523908454E-091
   69.3063000000000        -3.489761031655887E-091
   69.5457000000000        -4.442396694062613E-091
   69.7851000000000        -4.804396888522813E-091
   70.0245000000000        -3.908186458039966E-091
   70.2639000000000        -8.903407065979097E-092
   70.5033000000000         5.201283703663115E-091
   70.7427000000000         1.517464289538899E-090
   70.9821000000000         2.929903121164490E-090
   71.2215000000000         4.673453903432192E-090
   71.4609000000000         6.481568369763676E-090
   71.7003000000000         7.829343557238545E-090
   71.9397000000000         7.874434886548036E-090
   72.1791000000000         5.448293598493986E-090
   72.4185000000000        -8.557674260260933E-091
   72.6579000000000        -1.244216231122075E-089
   72.8973000000000        -3.026581408430720E-089
   73.1367000000000        -5.414299006688779E-089
   73.3761000000000        -8.183189583859491E-089
   73.6155000000000        -1.079773533324346E-088
   73.8549000000000        -1.231360719684325E-088
   74.0943000000000        -1.132551941061229E-088
   74.3337000000000        -6.014606640723889E-089
   74.5731000000000         5.636464906861376E-089
   74.8125000000000         2.538810590672216E-088
   75.0519000000000         5.399020959996626E-088
   75.2913000000000         9.011694269098581E-088
   75.5307000000000         1.290614148447795E-087
   75.7701000000000         1.613935187937301E-087
   76.0095000000000         1.719601868270432E-087
   76.2489000000000         1.398089110574056E-087
   76.4883000000000         3.980148673051158E-088
   76.7277000000000        -1.532135435770501E-087
   76.9671000000000        -4.568823850033205E-087
   77.2065000000000        -8.700777001708473E-087
   77.4459000000000        -1.358285366097528E-086
   77.6853000000000        -1.837374368992510E-086
   77.9247000000000        -2.159320452638516E-086
   78.1641000000000        -2.105667684978719E-086
   78.4035000000000        -1.396721882566233E-086
   78.6429000000000         2.739879368320943E-087
   78.8823000000000         3.170545617725509E-086
   79.1217000000000         7.404329883206473E-086
   79.3611000000000         1.278328362839034E-085
   79.6005000000000         1.863400964409591E-085
   79.8399000000000         2.362809255028591E-085
   80.0793000000000         2.566682488704924E-085
   80.3187000000000         2.190270821149716E-085
   80.5581000000000         8.995660695773388E-086
   80.7975000000000        -1.629246576528305E-085
   81.0369000000000        -5.608183749894924E-085
   81.2763000000000        -1.099139623853592E-084
   81.5157000000000        -1.729355060012215E-084
   81.7551000000000        -2.339864474190043E-084
   81.9945000000000        -2.740758158923380E-084
   82.2339000000000        -2.659787916505131E-084
   82.4733000000000        -1.759141904372164E-084
   82.7127000000000         3.162293127040549E-085
   82.9521000000000         3.849078254479429E-084
   83.1915000000000         8.914157302203935E-084
   83.4309000000000         1.520101978826220E-083
   83.6703000000000         2.181546337911196E-083
   83.9097000000000         2.710093490547989E-083
   84.1491000000000         2.854627494580589E-083
   84.3885000000000         2.287081254110788E-083
   84.6279000000000         6.394664472097029E-084
   84.8673000000000        -2.419942254341937E-083
   85.1067000000000        -7.063937051685257E-083
   85.3461000000000        -1.313773150984544E-082
   85.5855000000000        -1.995835974027121E-082
   85.8249000000000        -2.611567444414312E-082
   86.0643000000000        -2.933298087729196E-082
   86.3037000000000        -2.647152162177181E-082
   86.5431000000000        -1.378478692778243E-082
   86.7825000000000         1.246338766432291E-082
   87.0219000000000         5.492112362135994E-082
   87.2613000000000         1.135738137026365E-081
   87.5007000000000         1.837470718562991E-081
   87.7401000000000         2.539357625794790E-081
   87.9795000000000         3.039403754505251E-081
   88.2189000000000         3.040627805065028E-081
   88.4583000000000         2.163753563852136E-081
   88.6977000000000        -7.477207428677426E-084
   88.9371000000000        -3.836721219047533E-081
   89.1765000000000        -9.493141119473409E-081
   89.4159000000000        -1.675762518636158E-080
   89.6553000000000        -2.479208735295931E-080
   89.8947000000000        -3.190794801052788E-080
   90.1341000000000        -3.539670711161477E-080
   90.3735000000000        -3.151493347668460E-080
   90.6129000000000        -1.574202031715398E-080
   90.8523000000000         1.655770134536200E-080
   91.0917000000000         6.894921418919372E-080
   91.3311000000000         1.421512260563158E-079
   91.5705000000000         2.317137534513832E-079
   91.8099000000000         3.253689446928117E-079
   92.0493000000000         4.005224409088574E-079
   92.2887000000000         4.226557130310642E-079
   92.5281000000000         3.457299144941442E-079
   92.7675000000000         1.159477866777121E-079
   93.0069000000000        -3.196655856390016E-079
   93.2463000000000        -9.986022968043853E-079
   93.4857000000000        -1.921540094715044E-078
   93.7251000000000        -3.025050138510780E-078
   93.9645000000000        -4.151104385982289E-078
   94.2039000000000        -5.018949487005445E-078
   94.4433000000000        -5.208299435105426E-078
   94.6827000000000        -4.166314761450922E-078
   94.9221000000000        -1.253685474243096E-078
   95.1615000000000         4.153868525518689E-078
   95.4009000000000         1.249477495001933E-077
   95.6403000000000         2.377516123160557E-077
   95.8797000000000         3.725501027303708E-077
   96.1191000000000         5.109784054810360E-077
   96.3585000000000         6.204574417504026E-077
   96.5979000000000         6.521882779507365E-077
   96.8373000000000         5.417681009916930E-077
   97.0767000000000         2.141225941941931E-077
   97.3161000000000        -4.054289694157355E-077
   97.5555000000000        -1.372398694910860E-076
   97.7949000000000        -2.695857464987700E-076
   98.0343000000000        -4.303403427197016E-076
   98.2737000000000        -6.001508187413784E-076
   98.5131000000000        -7.437663559971710E-076
   98.7525000000000        -8.074740479464963E-076
   98.9919000000000        -7.192183034339332E-076
   99.2313000000000        -3.932237369181612E-076
   99.4707000000000         2.588925699079499E-076
   99.7101000000000         1.308728314778988E-075
   99.9495000000000         2.782383599235192E-075
   100.188900000000         4.622895158207735E-075
   100.428300000000         6.646691386365321E-075
   100.667700000000         8.500289141746048E-075
   100.907100000000         9.627579045785503E-075
   101.146500000000         9.262503030520504E-075
   101.385900000000         6.465896244490658E-075
   101.625300000000         2.274997854500467E-076
   101.864700000000        -1.034700854992045E-074
   102.104100000000        -2.575063111856168E-074
   102.343500000000        -4.569185008100280E-074
   102.582900000000        -6.863698556926153E-074
   102.822300000000        -9.133390382624682E-074
   103.061700000000        -1.084136645516274E-073
   103.301100000000        -1.122120055786794E-073
   103.540500000000        -9.299500249126862E-074
   103.779900000000        -3.980135696360491E-074
   104.019300000000         5.788796635894607E-074
   104.258700000000         2.074922995508296E-073
   104.498100000000         4.096439981037164E-073
   104.737500000000         6.536326691013217E-073
   104.976900000000         9.124389299165378E-073
   105.216300000000         1.138198644631066E-072
   105.455700000000         1.259377039805000E-072
   105.695100000000         1.181363968687514E-072
   105.934500000000         7.925275604767748E-073
   106.173900000000        -2.215404156664557E-074
   106.413300000000        -1.358093431176584E-072
   106.652700000000        -3.257864062630059E-072
   106.892100000000        -5.668564851226886E-072
   107.131500000000        -8.393156330900416E-072
   107.370900000000        -1.104253798615771E-071
   107.610300000000        -1.299915059262076E-071
   107.849700000000        -1.340703787499531E-071
   108.089100000000        -1.120678065045539E-071
   108.328500000000        -5.235373462713876E-072
   108.567900000000         5.590503168763414E-072
   108.807300000000         2.199587540775734E-071
   109.046700000000         4.397455590104246E-071
   109.286100000000         7.034345128112926E-071
   109.525500000000         9.827388369870529E-071
   109.764900000000         1.228843322144494E-070
   110.004300000000         1.370165066271311E-070
   110.243700000000         1.313509263700240E-070
   110.483100000000         9.504014968901737E-071
   110.722500000000         1.703573229431726E-071
   110.961900000000        -1.117546989856174E-070
   111.201300000000        -2.954348672619986E-070
   111.440700000000        -5.293196550058562E-070
   111.680100000000        -7.956952721918163E-070
   111.919500000000        -1.059748025191617E-069
   112.158900000000        -1.266587737510679E-069
   112.398300000000        -1.340604028973778E-069
   112.637700000000        -1.188633630370224E-069
   112.877100000000        -7.084951819897141E-070
   113.116500000000         1.957427501967039E-070
   113.355900000000         1.590967775694959E-069
   113.595300000000         3.484966707860440E-069
   113.834700000000         5.790965506066311E-069
   114.074100000000         8.290749140495016E-069
   114.313500000000         1.060286396951375E-068
   114.552900000000         1.216504199256876E-068
   114.792300000000         1.224228400151374E-068
   115.031700000000         9.973357509920390E-069
   115.271100000000         4.468008556152864E-069
   115.510500000000        -5.035928611242124E-069
   115.749900000000        -1.895295529967658E-068
   115.989300000000        -3.707602732020165E-068
   116.228700000000        -5.827152214554823E-068
   116.468100000000        -8.018485700870239E-068
   116.707500000000        -9.901923533609641E-068
   116.946900000000        -1.094698014547757E-067
   117.186300000000        -1.049101415854801E-067
   117.425700000000        -7.793202945408509E-068
   117.665100000000        -2.132613291462286E-068
   117.904500000000         7.044549796520388E-068
   118.143900000000         1.993004635151568E-067
   118.383300000000         3.612240720745634E-067
   118.622700000000         5.438364774546604E-067
   118.862100000000         7.242314860794015E-067
   119.101500000000         8.676352966451560E-067
   119.340900000000         9.275677177090491E-067
   119.580300000000         8.482650970334012E-067
   119.819700000000         5.700992358238818E-067
   120.059100000000         3.855226334608990E-068
   120.298500000000        -7.830604763385782E-067
   120.537900000000        -1.897519965614982E-066
   120.777300000000        -3.255508100104753E-066
   121.016700000000        -4.737527138661452E-066
   121.256100000000        -6.139298022982016E-066
   121.495500000000        -7.165080809415595E-066
   121.734900000000        -7.434174857548088E-066
   121.974300000000        -6.506124583939912E-066
   122.213700000000        -3.929556420588762E-066
   122.453100000000         6.822201619429996E-067
   122.692500000000         7.548968757348953E-066
   122.931900000000         1.659961281505481E-065
   123.171300000000         2.733799358167188E-065
   123.410700000000         3.871712368549007E-065
   123.650100000000         4.904856980074616E-065
   123.889500000000         5.598049509758225E-065
   124.128900000000         5.658220308352212E-065
   124.368300000000         4.757272378863443E-065
   124.607700000000         2.572388748497491E-065
   124.847100000000        -1.154758961962812E-065
   125.086500000000        -6.541067192731503E-065
   125.325900000000        -1.347216650256227E-064
   125.565300000000        -2.150913879939334E-064
   125.804700000000        -2.980637811751080E-064
   126.044100000000        -3.706025320292970E-064
   126.283500000000        -4.151228689950537E-064
   126.522900000000        -4.103243077075615E-064
   126.762300000000        -3.330632474439201E-064
   127.001700000000        -1.614381234899812E-064
   127.241100000000         1.208673558812652E-064
   127.480500000000         5.191320938281640E-064
   127.719900000000         1.021446077525522E-063
   127.959300000000         1.592580438876334E-063
   128.198700000000         2.168933267403886E-063
   128.438100000000         2.655913142186896E-063
   128.677500000000         2.929340572199336E-063
   128.916900000000         2.842497863509561E-063
   129.156300000000         2.240254921858654E-063
   129.395700000000         9.811608931680826E-064
   129.635100000000        -1.032542022919338E-063
   129.874500000000        -3.818377885221909E-063
   130.113900000000        -7.273695915676682E-063
   130.353300000000        -1.113744634522957E-062
   130.592700000000        -1.496082393122757E-062
   130.832100000000        -1.809568431622062E-062
   131.071500000000        -1.971069590908478E-062
   131.310900000000        -1.884506330201925E-062
   131.550300000000        -1.450784177107680E-062
   131.789700000000        -5.826908444470950E-063
   132.029100000000         7.754725517849236E-063
   132.268500000000         2.624640045733837E-062
   132.507900000000         4.886311182175774E-062
   132.747300000000         7.379870160495446E-062
   132.986700000000         9.806475309386979E-062
   133.226100000000         1.174503856177713E-061
   133.465500000000         1.266625974859192E-061
   133.704900000000         1.197034617610929E-061
   133.944300000000         9.052651680804071E-062
   134.183700000000         3.398780878355592E-062
   134.423100000000        -5.293394621700724E-062
   134.662500000000        -1.697280989997231E-061
   134.901900000000        -3.108986453177959E-061
   135.141300000000        -4.646808952724409E-061
   135.380700000000        -6.122068482067101E-061
   135.620100000000        -7.274448346988924E-061
   135.859500000000        -7.782535972402161E-061
   136.098900000000        -7.288572672709287E-061
   136.338300000000        -5.439507381506631E-061
   136.577700000000        -1.944737228016303E-061
   136.817100000000         3.351573800200658E-061
   137.056500000000         1.038890574410827E-060
   137.295900000000         1.880852155698274E-060
   137.535300000000         2.788413231967440E-060
   137.774700000000         3.648123778781661E-060
   138.014100000000         4.306347592336678E-060
   138.253500000000         4.576450755757161E-060
   138.492900000000         4.254131376440035E-060
   138.732300000000         3.141854762896683E-060