  -1.79550000000000         0.000000000000000E+000
  -1.55610000000000         0.000000000000000E+000
  -1.31670000000000         0.000000000000000E+000
  -1.07730000000000         0.000000000000000E+000
 -0.837900000000000         0.000000000000000E+000
 -0.598500000000000         0.000000000000000E+000
 -0.359100000000000         0.000000000000000E+000
 -0.119700000000000         0.000000000000000E+000
  0.119700000000000         0.000000000000000E+000
  0.359100000000000         0.000000000000000E+000
  0.598500000000000         0.000000000000000E+000
  0.837900000000000         0.000000000000000E+000
   1.07730000000000         0.000000000000000E+000
   1.31670000000000         0.000000000000000E+000
   1.55610000000000         0.000000000000000E+000
   1.79550000000000         0.000000000000000E+000
   2.03490000000000         0.000000000000000E+000
   2.27430000000000         0.000000000000000E+000
   2.51370000000000         0.000000000000000E+000
   2.75310000000000         0.000000000000000E+000
   2.99250000000000         0.000000000000000E+000
   3.23190000000000         0.000000000000000E+000
   3.47130000000000         0.000000000000000E+000
   3.71070000000000         0.000000000000000E+000
   3.95010000000000         0.000000000000000E+000
   4.18950000000000         0.000000000000000E+000
   4.42890000000000         0.000000000000000E+000
   4.66830000000000         0.000000000000000E+000
   4.90770000000000         0.000000000000000E+000
   5.14710000000000         0.000000000000000E+000
   5.38650000000000         0.000000000000000E+000
   5.62590000000000         0.000000000000000E+000
   5.86530000000000         0.000000000000000E+000
   6.10470000000000         0.000000000000000E+000
   6.34410000000000         0.000000000000000E+000
   6.58350000000000         0.000000000000000E+000
   6.82290000000000         0.000000000000000E+000
   7.06230000000000         0.000000000000000E+000
   7.30170000000000         0.000000000000000E+000
   7.54110000000000         0.000000000000000E+000
   7.78050000000000         0.000000000000000E+000
   8.01990000000000         0.000000000000000E+000
   8.25930000000000         0.000000000000000E+000
   8.49870000000000         0.000000000000000E+000
   8.73810000000000         0.000000000000000E+000
   8.97750000000000         1.521589640194470E-187
   9.21690000000000        -1.905264887098212E-181
   9.45630000000000         2.426266612483201E-178
   9.69570000000000        -1.777216469819915E-174
   9.93510000000000        -1.075757200629244E-172
   10.1745000000000        -3.276811397295804E-171
   10.4139000000000        -6.989505308781876E-170
   10.6533000000000        -1.243498927475641E-168
   10.8927000000000        -2.037093868652832E-167
   11.1321000000000        -3.112561098309581E-166
   11.3715000000000        -4.251047489375824E-165
   11.6109000000000        -4.926437049890786E-164
   11.8503000000000        -4.563379851635498E-163
   12.0897000000000        -2.935485695278567E-162
   12.3291000000000        -3.695140039156515E-162
   12.5685000000000         2.404535670710958E-160
   12.8079000000000         4.624929789668031E-159
   13.0473000000000         5.827481323310218E-158
   13.2867000000000         5.959936450170634E-157
   13.5261000000000         5.285593726423169E-156
   13.7655000000000         4.192595295096334E-155
   14.0049000000000         3.028045650283593E-154
   14.2443000000000         2.014603126308929E-153
   14.4837000000000         1.244882327043412E-152
   14.7231000000000         7.188121813962777E-152
   14.9625000000000         3.896335067712873E-151
   15.2019000000000         1.989717470840455E-150
   15.4413000000000         9.598255355284874E-150
   15.6807000000000         4.382423815499601E-149
   15.9201000000000         1.896352256460019E-148
   16.1595000000000         7.781590862140254E-148
   16.3989000000000         3.027539062506522E-147
   16.6383000000000         1.115570113524653E-146
   16.8777000000000         3.883657719727695E-146
   17.1171000000000         1.271831259035523E-145
   17.3565000000000         3.888372320266555E-145
   17.5959000000000         1.094804072799603E-144
   17.8353000000000         2.763588531845645E-144
   18.0747000000000         5.869396730459487E-144
   18.3141000000000         8.373577534466080E-144
   18.5535000000000        -5.548026554953143E-144
   18.7929000000000        -1.065917071489039E-142
   19.0323000000000        -5.497095592015354E-142
   19.2717000000000        -2.133391656126298E-141
   19.5111000000000        -7.071906636527665E-141
   19.7505000000000        -2.076081213492593E-140
   19.9899000000000        -5.426963162382673E-140
   20.2293000000000        -1.239999838627573E-139
   20.4687000000000        -2.322144982133140E-139
   20.7081000000000        -2.741732210696108E-139
   20.9475000000000         2.768969138064007E-139
   21.1869000000000         3.246858270841140E-138
   21.4263000000000         1.380317105816423E-137
   21.6657000000000         4.421364873519596E-137
   21.9051000000000         1.178171883056451E-136
   22.1445000000000         2.622548416833291E-136
   22.3839000000000         4.498806878816453E-136
   22.6233000000000         3.584720289197896E-136
   22.8627000000000        -1.370949269198048E-135
   23.1021000000000        -9.077580966712716E-135
   23.3415000000000        -3.443405020189645E-134
   23.5809000000000        -1.044659854383795E-133
   23.8203000000000        -2.716845922163766E-133
   24.0597000000000        -6.119646473244470E-133
   24.2991000000000        -1.155233934426918E-132
   24.5385000000000        -1.588356838543533E-132
   24.7779000000000        -3.348795198948749E-133
   25.0173000000000         7.819393475420153E-132
   25.2567000000000         3.698836952420074E-131
   25.4961000000000         1.200142357163044E-130
   25.7355000000000         3.224094850857737E-130
   25.9749000000000         7.496844989469477E-130
   26.2143000000000         1.505183703979426E-129
   26.4537000000000         2.473560809736610E-129
   26.6931000000000         2.625863894431969E-129
   26.9325000000000        -1.791781305549202E-129
   27.1719000000000        -2.132104266537604E-128
   27.4113000000000        -8.116582478224692E-128
   27.6507000000000        -2.338174564892680E-127
   27.8901000000000        -5.729295149395040E-127
   28.1295000000000        -1.230159911291607E-126
   28.3689000000000        -2.298404929798599E-126
   28.6083000000000        -3.540434321170143E-126
   28.8477000000000        -3.580926348831141E-126
   29.0871000000000         1.978576035170950E-126
   29.3265000000000         2.439072780131285E-125
   29.5659000000000         8.850325552111994E-125
   29.8053000000000         2.424636844358470E-124
   30.0447000000000         5.666483626871196E-124
   30.2841000000000         1.167595369731381E-123
   30.5235000000000         2.118946972248826E-123
   30.7629000000000         3.264934466400411E-123
   31.0023000000000         3.723851556222640E-123
   31.2417000000000         8.225268044574626E-124
   31.4811000000000        -1.189724424125500E-122
   31.7205000000000        -4.788610361901682E-122
   31.9599000000000        -1.317010813709683E-121
   32.1993000000000        -3.018807772187241E-121
   32.4387000000000        -6.060866560645527E-121
   32.6781000000000        -1.073300130784074E-120
   32.9175000000000        -1.632784912198895E-120
   33.1569000000000        -1.927589713464870E-120
   33.3963000000000        -9.467336776265815E-121
   33.6357000000000         3.605878276500484E-120
   33.8751000000000         1.622832434586231E-119
   34.1145000000000         4.462261959436772E-119
   34.3539000000000         1.000216808547682E-118
   34.5933000000000         1.949290328775136E-118
   34.8327000000000         3.343157898685655E-118
   35.0721000000000         4.932180853848153E-118
   35.3115000000000         5.699130307506397E-118
   35.5509000000000         3.012455691962628E-118
   35.7903000000000        -8.700287346446803E-118
   36.0297000000000        -3.967016577834798E-117
   36.2691000000000        -1.062866935169379E-116
   36.5085000000000        -2.306582799245077E-116
   36.7479000000000        -4.344873020692612E-116
   36.9873000000000        -7.203336112521030E-116
   37.2267000000000        -1.029176593965648E-115
   37.4661000000000        -1.159303783177444E-115
   37.7055000000000        -6.314604024618659E-116
   37.9449000000000         1.503705097242238E-115
   38.1843000000000         6.884363253162013E-115
   38.4237000000000         1.797071448555169E-114
   38.6631000000000         3.783045138437726E-114
   38.9025000000000         6.907001734618276E-114
   39.1419000000000         1.110672445591953E-113
   39.3813000000000         1.542934111347042E-113
   39.6207000000000         1.703133204233363E-113
   39.8601000000000         9.645160902396317E-114
   40.0995000000000        -1.841072230341069E-113
   40.3389000000000        -8.616419989083129E-113
   40.5783000000000        -2.204922126938816E-112
   40.8177000000000        -4.523822717527555E-112
   41.0571000000000        -8.040540864311630E-112
   41.2965000000000        -1.259536963290190E-111
   41.5359000000000        -1.709229285053869E-111
   41.7753000000000        -1.859294580407503E-111
   42.0147000000000        -1.103114775335227E-111
   42.2541000000000         1.629780951845196E-111
   42.4935000000000         7.993960986735966E-111
   42.7329000000000         2.019779362089192E-110
   42.9723000000000         4.060231570411704E-110
   43.2117000000000         7.059891666630988E-110
   43.4511000000000         1.082840485761105E-109
   43.6905000000000         1.443866479422212E-109
   43.9299000000000         1.560459044698110E-109
   44.1693000000000         9.860544190903409E-110
   44.4087000000000        -1.031010906096748E-109
   44.6481000000000        -5.600769056017980E-109
   44.8875000000000        -1.413353874533020E-108
   45.1269000000000        -2.803990733269251E-108
   45.3663000000000        -4.799717324687264E-108
   45.6057000000000        -7.254147461242415E-108
   45.8451000000000        -9.574810614926344E-108
   46.0845000000000        -1.038875616805802E-107
   46.3239000000000        -7.129401835899744E-108
   46.5633000000000         4.361394238233007E-108
   46.8027000000000         3.000323128620613E-107
   47.0421000000000         7.703153352243969E-107
   47.2815000000000         1.523275110494227E-106
   47.5209000000000         2.586891542444041E-106
   47.7603000000000         3.880766440846622E-106
   47.9997000000000         5.110057195367112E-106
   48.2391000000000         5.619542776190786E-106
   48.4785000000000         4.222712364488871E-106
   48.7179000000000        -9.492939081034953E-107
   48.9573000000000        -1.248667040100513E-105
   49.1967000000000        -3.347005497941313E-105
   49.4361000000000        -6.673442188071905E-105
   49.6755000000000        -1.133218321587386E-104
   49.9149000000000        -1.697921969915616E-104
   50.1543000000000        -2.241477532298512E-104
   50.3937000000000        -2.504223359864127E-104
   50.6331000000000        -2.026163155444625E-104
   50.8725000000000        -9.756675785790720E-106
   51.1119000000000         4.244735986353031E-104
   51.3513000000000         1.211887266723061E-103
   51.5907000000000         2.451614212042495E-103
   51.8301000000000         4.173495796961471E-103
   52.0695000000000         6.242858878840971E-103
   52.3089000000000         8.220575694515884E-103
   52.5483000000000         9.183912418188005E-103
   52.7877000000000         7.536844226854907E-103
   53.0271000000000         8.773160591845510E-104
   53.2665000000000        -1.395443349674002E-102
   53.5059000000000        -4.045074931893613E-102
   53.7453000000000        -8.136522862303323E-102
   53.9847000000000        -1.366797895274574E-101
   54.2241000000000        -2.003306759771967E-101
   54.4635000000000        -2.556166874246427E-101
   54.7029000000000        -2.696981983748774E-101
   54.9423000000000        -1.884959907151799E-101
   55.1817000000000         6.527495052532794E-102
   55.4211000000000         5.862398911902106E-101
   55.6605000000000         1.465695454751353E-100
   55.8999000000000         2.747223191262333E-100
   56.1393000000000         4.349366303923582E-100
   56.3787000000000         5.949678411049205E-100
   56.6181000000000         6.835010242649704E-100
   56.8575000000000         5.744464137698886E-100
   57.0969000000000         7.679229330237850E-101
   57.3363000000000        -1.058361628498523E-099
   57.5757000000000        -3.095291423738113E-099
   57.8151000000000        -6.210728207676362E-099
   58.0545000000000        -1.030212952149836E-098
   58.2939000000000        -1.468398563302800E-098
   58.5333000000000        -1.767146016446333E-098
   58.7727000000000        -1.610155315536341E-098
   59.0121000000000        -4.933492679430273E-099
   59.2515000000000         2.278893590979467E-098
   59.4909000000000         7.514251410410950E-098
   59.7303000000000         1.590186334110059E-097
   59.9697000000000         2.754685005721165E-097
   60.2091000000000         4.118820089333812E-097
   60.4485000000000         5.305924031238342E-097
   60.6879000000000         5.545894834059664E-097
   60.9273000000000         3.531391872038178E-097
   61.1667000000000        -2.664455939676770E-097
   61.4061000000000        -1.549763473699957E-096
   61.6455000000000        -3.751997328799636E-096
   61.8849000000000        -7.037693911216975E-096
   62.1243000000000        -1.129850026666948E-095
   62.3637000000000        -1.586887218120220E-095
   62.6031000000000        -1.913945803615925E-095
   62.8425000000000        -1.811067095327671E-095
   63.0819000000000        -8.003738289420519E-096
   63.3213000000000         1.784101795092501E-095
   63.5607000000000         6.740203503017535E-095
   63.8001000000000         1.482135811731678E-094
   64.0395000000000         2.637414767489538E-094
   64.2789000000000         4.072409404996674E-094
   64.5183000000000         5.527126624178950E-094
   64.7577000000000         6.433036797815885E-094
   64.9971000000000         5.789034879383266E-094
   65.2365000000000         2.069485937554985E-094
   65.4759000000000        -6.763788370212183E-094
   65.7153000000000        -2.303538644077911E-093
   65.9547000000000        -4.876861289824345E-093
   66.1941000000000        -8.456802648082642E-093
   66.4335000000000        -1.278255293458063E-092
   66.6729000000000        -1.702033197930393E-092
   66.9123000000000        -1.945707403348463E-092
   67.1517000000000        -1.719650169903361E-092
   67.3911000000000        -5.973778514764953E-093
   67.6305000000000         1.971733641514205E-092
   67.8699000000000         6.590419433187743E-092
   68.1093000000000         1.374680770438722E-091
   68.3487000000000         2.351573631186769E-091
   68.5881000000000         3.510049553908349E-091
   68.8275000000000         4.621678662306866E-091
   69.0669000000000         5.237902349339126E-091
   69.3063000000000         4.624439690558934E-091
   69.5457000000000         1.730517681719438E-091
   69.7851000000000        -4.761389201161468E-091
   70.0245000000000        -1.624261652990329E-090
   70.2639000000000        -3.376765445100990E-090
   70.5033000000000        -5.735375554674954E-090
   70.7427000000000        -8.494846747425248E-090
   70.9821000000000        -1.110954731945125E-089
   71.2215000000000        -1.254610238555373E-089
   71.4609000000000        -1.115855942675361E-089
   71.7003000000000        -4.649621534739579E-090
   71.9397000000000         9.787251866325485E-090
   72.1791000000000         3.502119374096728E-089
   72.4185000000000         7.309430526452280E-089
   72.6579000000000         1.237679101615387E-088
   72.8973000000000         1.824564286331122E-088
   73.1367000000000         2.376558891436420E-088
   73.3761000000000         2.682358191046642E-088
   73.6155000000000         2.413425569651803E-088
   73.8549000000000         1.121420844127034E-088
   74.0943000000000        -1.728527108393379E-088
   74.3337000000000        -6.667039159004824E-088
   74.5731000000000        -1.404944390422258E-087
   74.8125000000000        -2.378684147177276E-087
   75.0519000000000        -3.497676205739294E-087
   75.2913000000000        -4.545997144685910E-087
   75.5307000000000        -5.137595210455435E-087
   75.7701000000000        -4.685274211912454E-087
   76.0095000000000        -2.404233689484264E-087
   76.2489000000000         2.621190890521868E-087
   76.4883000000000         1.127376844988137E-086
   76.7277000000000         2.410948392983341E-086
   76.9671000000000         4.091170037144614E-086
   77.2065000000000         6.009879277230387E-086
   77.4459000000000         7.803887244339985E-086
   77.6853000000000         8.839719763056600E-086
   77.9247000000000         8.173566756852827E-086
   78.1641000000000         4.568942313484762E-086
   78.4035000000000        -3.385849764487374E-086
   78.6429000000000        -1.701331656710292E-085
   78.8823000000000        -3.709295024156697E-085
   79.1217000000000        -6.319612596447141E-085
   79.3611000000000        -9.283120741804284E-085
   79.6005000000000        -1.204917290781794E-084
   79.8399000000000        -1.368014277987334E-084
   80.0793000000000        -1.280744555741139E-084
   80.3187000000000        -7.674018244340237E-085
   80.5581000000000         3.681255167807447E-085
   80.7975000000000         2.303864783784740E-084
   81.0369000000000         5.136474012906072E-084
   81.2763000000000         8.791684245228760E-084
   81.5157000000000         1.291315101587974E-083
   81.7551000000000         1.674389853587065E-083
   81.9945000000000         1.902724519662676E-083
   82.2339000000000         1.796887663903653E-083
   82.4733000000000         1.131604357838358E-083
   82.7127000000000        -3.380568649323396E-084
   82.9521000000000        -2.825801691990179E-083
   83.1915000000000        -6.434069524366623E-083
   83.4309000000000        -1.104497543131657E-082
   83.6703000000000        -1.619027248883654E-082
   83.9097000000000        -2.091979343589439E-082
   84.1491000000000        -2.370221328805026E-082
   84.3885000000000        -2.240755533905032E-082
   84.6279000000000        -1.443430563310198E-082
   84.8673000000000         2.949807406265880E-083
   85.1067000000000         3.199212500761690E-082
   85.3461000000000         7.353275717394971E-082
   85.5855000000000         1.258025074416167E-081
   85.8249000000000         1.830599851196463E-081
   86.0643000000000         2.343113440940382E-081
   86.3037000000000         2.625022198674129E-081
   86.5431000000000         2.447154092246345E-081
   86.7825000000000         1.540101005704535E-081
   87.0219000000000        -3.645645016819121E-082
   87.2613000000000        -3.465434250330051E-081
   87.5007000000000        -7.793894422370335E-081
   87.7401000000000        -1.309418802323437E-080
   87.9795000000000        -1.869671951089455E-080
   88.2189000000000        -2.341275851740774E-080
   88.4583000000000        -2.549195057644821E-080
   88.6977000000000        -2.269531627900237E-080
   88.9371000000000        -1.254142812839103E-080
   89.1765000000000         7.223303243397495E-081
   89.4159000000000         3.790388859814017E-080
   89.6553000000000         7.890703433179722E-080
   89.8947000000000         1.266578011764256E-079
   90.1341000000000         1.735758802750611E-079
   90.3735000000000         2.074166839306591E-079
   90.6129000000000         2.113883823226285E-079
   90.8523000000000         1.655240183291371E-079
   91.0917000000000         4.977483789747024E-080
   91.3311000000000        -1.508532812402279E-079
   91.5705000000000        -4.391229307168332E-079
   91.8099000000000        -7.968891955421128E-079
   92.0493000000000        -1.176219156633657E-078
   92.2887000000000        -1.492512867508855E-078
   92.5281000000000        -1.622766682171643E-078
   92.7675000000000        -1.412847916965420E-078
   93.0069000000000        -6.978427998600957E-079
   93.2463000000000         6.612080572916329E-079
   93.4857000000000         2.722988870943314E-078
   93.7251000000000         5.396644120183977E-078
   93.9645000000000         8.365913950284805E-078
   94.2039000000000         1.102232743551485E-077
   94.4433000000000         1.243120413838883E-077
   94.6827000000000         1.136150197951204E-077
   94.9221000000000         6.414614236384137E-078
   95.1615000000000        -3.715118878212020E-078
   95.4009000000000        -1.982778603562998E-077
   95.6403000000000        -4.165861508259026E-077
   95.8797000000000        -6.721906614797372E-077
   96.1191000000000        -9.214249103831828E-077
   96.3585000000000        -1.092069268014123E-076
   96.5979000000000        -1.082773283672941E-076
   96.8373000000000        -7.696397839009959E-077
   97.0767000000000        -2.309316730816697E-078
   97.3161000000000         1.262372131505980E-076
   97.5555000000000         3.124487001236998E-076
   97.7949000000000         5.477252328307122E-076
   98.0343000000000         8.048612229548821E-076
   98.2737000000000         1.032307582919706E-075
   98.5131000000000         1.150680278524029E-075
   98.7525000000000         1.053859740593140E-075
   98.9919000000000         6.174318781829808E-076
   99.2313000000000        -2.827754370778782E-076
   99.4707000000000        -1.739962920821621E-075
   99.7101000000000        -3.772916352512809E-075
   99.9495000000000        -6.272030186607799E-075
   100.188900000000        -8.940877198211754E-075
   100.428300000000        -1.124432913284485E-074
   100.667700000000        -1.237967844959765E-074
   100.907100000000        -1.129223280571274E-074
   101.146500000000        -6.760029757018920E-075
   101.385900000000         2.428216953626638E-075
   101.625300000000         1.718422863610981E-074
   101.864700000000         3.771700665919591E-074
   102.104100000000         6.303605600905197E-074
   102.343500000000         9.041557707859185E-074
   102.582900000000         1.149165319722335E-073
   102.822300000000         1.291097526338583E-073
   103.061700000000         1.231855356564783E-073
   103.301100000000         8.566173460575064E-074
   103.540500000000         4.898048393919703E-075
   103.779900000000        -1.284282696881823E-073
   104.019300000000        -3.178475519690433E-073
   104.258700000000        -5.567810224900699E-073
   104.498100000000        -8.238152059194289E-073
   104.737500000000        -1.078343991743573E-072
   104.976900000000        -1.257732171105661E-072
   105.216300000000        -1.277504055909273E-072
   105.455700000000        -1.036293092294297E-072
   105.695100000000        -4.272870880486527E-073
   105.934500000000         6.424635503782269E-073
   106.173900000000         2.224370192176747E-072
   106.413300000000         4.293216304896999E-072
   106.652700000000         6.707689789776372E-072
   106.892100000000         9.172198885400435E-072
   107.131500000000         1.120856203235755E-071
   107.370900000000         1.214896123926291E-071
   107.610300000000         1.116357486185969E-071
   107.849700000000         7.336723734632330E-072
   108.089100000000        -1.967877329895938E-073
   108.328500000000        -1.204913831840617E-071
   108.567900000000        -2.831475177152177E-071
   108.807300000000        -4.826194208865048E-071
   109.046700000000        -7.001831390010662E-071
   109.286100000000        -9.030875841274364E-071
   109.525500000000        -1.043262233946202E-070
   109.764900000000        -1.058323740304393E-070
   110.004300000000        -8.759216418216403E-071
   110.243700000000        -4.223659924773892E-071
   110.483100000000         3.638519246714570E-071
   110.722500000000         1.513657908733959E-070
   110.961900000000         3.005069663091242E-070
   111.201300000000         4.739157098197466E-070
   111.440700000000         6.517971851875972E-070
   111.680100000000         8.029660401836757E-070
   111.919500000000         8.847299245028554E-070
   112.158900000000         8.448753300914862E-070
   112.398300000000         6.264633925491755E-070
   112.637700000000         1.759768725771159E-070
   112.877100000000        -5.449913997687548E-070
   113.116500000000        -1.544879881654530E-069
   113.355900000000        -2.785272592850662E-069
   113.595300000000        -4.164072158510204E-069
   113.834700000000        -5.501840943841286E-069
   114.074100000000        -6.535375287812033E-069
   114.313500000000        -6.923258185663480E-069
   114.552900000000        -6.268284171147565E-069
   114.792300000000        -4.160984562027015E-069
   115.031700000000        -2.467334564048703E-070
   115.271100000000         5.684114384781019E-069
   115.510500000000         1.358797564503258E-068
   115.749900000000         2.305216971751880E-068
   115.989300000000         3.318824766455201E-068
   116.228700000000         4.255766122260016E-068
   116.468100000000         4.915811267025010E-068
   116.707500000000         5.050156586707665E-068
   116.946900000000         4.381334300914164E-068
   117.186300000000         2.637433836008744E-068
   117.425700000000        -3.986213730544073E-069
   117.665100000000        -4.826249556310954E-068
   117.904500000000        -1.055535762348391E-067
   118.143900000000        -1.723357010616042E-067
   118.383300000000        -2.418446593210724E-067
   118.622700000000        -3.037223577518176E-067
   118.862100000000        -3.441059431436942E-067
   119.101500000000        -3.463426289471607E-067
   119.340900000000        -2.924895481897055E-067
   119.580300000000        -1.656971076919678E-067
   119.819700000000         4.652926430688597E-068
   120.059100000000         3.483414001577237E-067
   120.298500000000         7.311723079813380E-067
   120.537900000000         1.169517769631936E-066
   120.777300000000         1.617628875232851E-066
   121.016700000000         2.008040291741428E-066
   121.256100000000         2.252952254563305E-066
   121.495500000000         2.249451806511052E-066
   121.734900000000         1.889354645451602E-066
   121.974300000000         1.074036288590345E-066
   122.213700000000        -2.660178167481877E-067
   122.453100000000        -2.148067904595611E-066
   122.692500000000        -4.512525537038120E-066
   122.931900000000        -7.200143092047719E-066
   123.171300000000        -9.935236846944884E-066
   123.410700000000        -1.231994903884980E-065
   123.650100000000        -1.384483250508944E-065
   123.889500000000        -1.392061761694984E-065
   124.128900000000        -1.193469504307853E-065
   124.368300000000        -7.333483679275289E-066
   124.607700000000         2.715763157954681E-067
   124.847100000000         1.098103578349788E-065
   125.086500000000         2.447908566477850E-065
   125.325900000000         3.991659245710503E-065
   125.565300000000         5.582679372552643E-065
   125.804700000000         7.009798952851610E-065
   126.044100000000         8.002821571281768E-065
   126.283500000000         8.248420349833908E-065
   126.522900000000         7.418017101954457E-065
   126.762300000000         5.208074734988762E-065
   127.001700000000         1.391668807863637E-065
   127.241100000000        -4.121726803951995E-065
   127.480500000000        -1.122345754886384E-064
   127.719900000000        -1.954728144053701E-064
   127.959300000000        -2.842458437762341E-064
   128.198700000000        -3.686373045295860E-064
   128.438100000000        -4.356437962246118E-064
   128.677500000000        -4.697666700236271E-064
   128.916900000000        -4.541270657437400E-064
   129.156300000000        -3.721384198695904E-064
   129.395700000000        -2.097146275979848E-064
   129.635100000000         4.207735459734389E-065
   129.874500000000         3.840902341284481E-064
   130.113900000000         8.061459854164587E-064
   130.353300000000         1.284391610628200E-063
   130.592700000000         1.779355939645118E-063
   130.832100000000         2.235147576889786E-063
   131.071500000000         2.580251085926569E-063
   131.310900000000         2.730360103552582E-063
   131.550300000000         2.593625898575860E-063
   131.789700000000         2.078591934002114E-063
   132.029100000000         1.104923000024042E-063
   132.268500000000        -3.831857424919896E-064
   132.507900000000        -2.401327402828652E-063
   132.747300000000        -4.907709029424622E-063
   132.986700000000        -7.785721705063959E-063
   133.226100000000        -1.082803819769398E-062
   133.465500000000        -1.372464282817308E-062
   133.704900000000        -1.605786075776974E-062
   133.944300000000        -1.730808837931355E-062
   134.183700000000        -1.687441829307951E-062
   134.423100000000        -1.411453297941092E-062
   134.662500000000        -8.407886977249539E-063
   134.901900000000         7.549608156158702E-064
   135.141300000000         1.365625295717543E-062
   135.380700000000         3.021116713927971E-062
   135.620100000000         4.981228428511514E-062
   135.859500000000         7.117310814735749E-062
   136.098900000000         9.219314867389504E-062
   136.338300000000         1.098753621437313E-061
   136.577700000000         1.203343352890774E-061
   136.817100000000         1.189388263667376E-061
   137.056500000000         1.006329814699074E-061
   137.295900000000         6.047425545337264E-062
   137.535300000000        -5.589728977105759E-063
   137.774700000000        -9.971057224971440E-062
   138.014100000000        -2.209401247704092E-061
   138.253500000000        -3.639410055790198E-061
   138.492900000000        -5.177663354538191E-061
   138.732300000000        -6.649337764485713E-061