  -1.79550000000000         0.000000000000000E+000
  -1.55610000000000         0.000000000000000E+000
  -1.31670000000000         0.000000000000000E+000
  -1.07730000000000         0.000000000000000E+000
 -0.837900000000000         0.000000000000000E+000
 -0.598500000000000         0.000000000000000E+000
 -0.359100000000000         0.000000000000000E+000
 -0.119700000000000         0.000000000000000E+000
  0.119700000000000         0.000000000000000E+000
  0.359100000000000         0.000000000000000E+000
  0.598500000000000         0.000000000000000E+000
  0.837900000000000         0.000000000000000E+000
   1.07730000000000         0.000000000000000E+000
   1.31670000000000         0.000000000000000E+000
   1.55610000000000         0.000000000000000E+000
   1.79550000000000         0.000000000000000E+000
   2.03490000000000         0.000000000000000E+000
   2.27430000000000         0.000000000000000E+000
   2.51370000000000         0.000000000000000E+000
   2.75310000000000         0.000000000000000E+000
   2.99250000000000         0.000000000000000E+000
   3.23190000000000         0.000000000000000E+000
   3.47130000000000         0.000000000000000E+000
   3.71070000000000         0.000000000000000E+000
   3.95010000000000         0.000000000000000E+000
   4.18950000000000         0.000000000000000E+000
   4.42890000000000         0.000000000000000E+000
   4.66830000000000         0.000000000000000E+000
   4.90770000000000         0.000000000000000E+000
   5.14710000000000         0.000000000000000E+000
   5.38650000000000         0.000000000000000E+000
   5.62590000000000         0.000000000000000E+000
   5.86530000000000         0.000000000000000E+000
   6.10470000000000         0.000000000000000E+000
   6.34410000000000         0.000000000000000E+000
   6.58350000000000         0.000000000000000E+000
   6.82290000000000         0.000000000000000E+000
   7.06230000000000         0.000000000000000E+000
   7.30170000000000         0.000000000000000E+000
   7.54110000000000         0.000000000000000E+000
   7.78050000000000         0.000000000000000E+000
   8.01990000000000         0.000000000000000E+000
   8.25930000000000         0.000000000000000E+000
   8.49870000000000         0.000000000000000E+000
   8.73810000000000         0.000000000000000E+000
   8.97750000000000         0.000000000000000E+000
   9.21690000000000         3.952466084013858E-196
   9.45630000000000        -3.994152679670475E-190
   9.69570000000000         5.504867037715514E-185
   9.93510000000000         3.258030190956648E-183
   10.1745000000000         1.289261274584505E-181
   10.4139000000000        -2.246711516213388E-180
   10.6533000000000        -6.029076902106328E-178
   10.8927000000000        -3.600515143504455E-176
   11.1321000000000        -1.306011489727521E-174
   11.3715000000000        -3.434967893682763E-173
   11.6109000000000        -7.092533383738705E-172
   11.8503000000000        -1.204235983205416E-170
   12.0897000000000        -1.733606166052093E-169
   12.3291000000000        -2.162522323306228E-168
   12.5685000000000        -2.375560910979335E-167
   12.8079000000000        -2.326778208044148E-166
   13.0473000000000        -2.051820973873275E-165
   13.2867000000000        -1.641501515018529E-164
   13.5261000000000        -1.198588586310669E-163
   13.7655000000000        -8.024756951453652E-163
   14.0049000000000        -4.942913267043612E-162
   14.2443000000000        -2.806952063146208E-161
   14.4837000000000        -1.470619549963377E-160
   14.7231000000000        -7.101512522644153E-160
   14.9625000000000        -3.150069694274797E-159
   15.2019000000000        -1.274323954785026E-158
   15.4413000000000        -4.634704696537908E-158
   15.6807000000000        -1.470611627422091E-157
   15.9201000000000        -3.773438196328411E-157
   16.1595000000000        -5.749549883590288E-157
   16.3989000000000         1.173549914628138E-156
   16.6383000000000         1.539041210344468E-155
   16.8777000000000         8.652701068445297E-155
   17.1171000000000         3.721794589241011E-154
   17.3565000000000         1.350687699900724E-153
   17.5959000000000         4.248313324874190E-153
   17.8353000000000         1.156848059048169E-152
   18.0747000000000         2.659896746130679E-152
   18.3141000000000         4.825773184267644E-152
   18.5535000000000         5.620675936260948E-152
   18.7929000000000         2.601620981258131E-153
   19.0323000000000        -3.952679370924695E-152
   19.2717000000000         1.071559622061823E-150
   19.5111000000000         9.160158116319152E-150
   19.7505000000000         4.415244817977145E-149
   19.9899000000000         1.517024473114327E-148
   20.2293000000000         3.597998647069194E-148
   20.4687000000000         2.852093329054970E-148
   20.7081000000000        -2.712438087883247E-147
   20.9475000000000        -2.012755261923361E-146
   21.1869000000000        -9.150513585928227E-146
   21.4263000000000        -3.290496436174497E-145
   21.6657000000000        -9.879608206541411E-145
   21.9051000000000        -2.457941482680319E-144
   22.1445000000000        -4.639265952266496E-144
   22.3839000000000        -3.818423136840687E-144
   22.6233000000000         1.823598787885475E-143
   22.8627000000000         1.248457760147701E-142
   23.1021000000000         4.939105726406610E-142
   23.3415000000000         1.533775213191825E-141
   23.5809000000000         3.945409671746160E-141
   23.8203000000000         8.204241300016045E-141
   24.0597000000000         1.166312046744065E-140
   24.2991000000000        -1.603564463191927E-141
   24.5385000000000        -8.902094923400481E-140
   24.7779000000000        -4.140213611332279E-139
   25.0173000000000        -1.361555080771294E-138
   25.2567000000000        -3.658052479646518E-138
   25.4961000000000        -8.197671108094326E-138
   25.7355000000000        -1.452859914050644E-137
   25.9749000000000        -1.514124491117159E-137
   26.2143000000000         2.089358277712149E-137
   26.4537000000000         1.866906805440254E-136
   26.6931000000000         7.132809103046075E-136
   26.9325000000000         2.079933224529400E-135
   27.1719000000000         5.070335759209663E-135
   27.4113000000000         1.041397224510876E-134
   27.6507000000000         1.697105974596402E-134
   27.8901000000000         1.600162528338722E-134
   28.1295000000000        -2.331713566755273E-134
   28.3689000000000        -1.845918741197763E-133
   28.6083000000000        -6.576115467483235E-133
   28.8477000000000        -1.804305363060027E-132
   29.0871000000000        -4.165669397690182E-132
   29.3265000000000        -8.172846227563515E-132
   29.5659000000000        -1.296016031199588E-131
   29.8053000000000        -1.300432839748246E-131
   30.0447000000000         9.655861862500584E-132
   30.2841000000000         1.006137417412809E-130
   30.5235000000000         3.573112595071911E-130
   30.7629000000000         9.553545906728269E-130
   31.0023000000000         2.143588712147604E-129
   31.2417000000000         4.111083785025078E-129
   31.4811000000000         6.501516486180522E-129
   31.7205000000000         7.136771674703539E-129
   31.9599000000000        -7.594181194338752E-130
   32.1993000000000        -3.368432401024438E-128
   32.4387000000000        -1.255954136176207E-127
   32.6781000000000        -3.358925538087688E-127
   32.9175000000000        -7.479339864724015E-127
   33.1569000000000        -1.432107108653529E-126
   33.3963000000000        -2.317072563897619E-126
   33.6357000000000        -2.865657017850459E-126
   33.8751000000000        -1.397946389414000E-126
   34.1145000000000         6.112208068730393E-126
   34.3539000000000         2.780118470858171E-125
   34.5933000000000         7.772503717138039E-125
   34.8327000000000         1.757881309032536E-124
   35.0721000000000         3.409203561911552E-124
   35.3115000000000         5.674329657062922E-124
   35.5509000000000         7.668777908173175E-124
   35.7903000000000         6.496707897803128E-124
   36.0297000000000        -4.806986299430531E-124
   36.2691000000000        -4.025578758566125E-123
   36.5085000000000        -1.240514595793012E-122
   36.7479000000000        -2.911572867536330E-122
   36.9873000000000        -5.786563236220239E-122
   37.2267000000000        -9.946106582357793E-122
   37.4661000000000        -1.441827918151677E-121
   37.7055000000000        -1.564510273218402E-121
   37.9449000000000        -4.844207644919847E-122
   38.1843000000000         3.581310866175179E-121
   38.4237000000000         1.374104592389990E-120
   38.6631000000000         3.460261460237739E-120
   38.9025000000000         7.151769518187591E-120
   39.1419000000000         1.275615080781851E-119
   39.3813000000000         1.960210208690775E-119
   39.6207000000000         2.452749922529146E-119
   39.8601000000000         1.927792844370657E-119
   40.0995000000000        -1.330190296283110E-119
   40.3389000000000        -1.036809395411154E-118
   40.5783000000000        -2.983942899456330E-118
   40.8177000000000        -6.557301899674126E-118
   41.0571000000000        -1.223880968097939E-117
   41.2965000000000        -1.984244692730885E-117
   41.5359000000000        -2.735653264958859E-117
   41.7753000000000        -2.893192135252953E-117
   42.0147000000000        -1.188192169050005E-117
   42.2541000000000         4.698172014374727E-117
   42.4935000000000         1.842975321587242E-116
   42.7329000000000         4.490320495917791E-116
   42.9723000000000         8.907683726697502E-116
   43.2117000000000         1.526613076650000E-115
   43.4511000000000         2.271475660924275E-115
   43.6905000000000         2.814453666883463E-115
   43.9299000000000         2.429843807795222E-115
   44.1693000000000        -2.658698122857780E-116
   44.4087000000000        -7.546292893991301E-115
   44.6481000000000        -2.263161214556046E-114
   44.8875000000000        -4.924356087009627E-114
   45.1269000000000        -9.011388432719299E-114
   45.3663000000000        -1.436634112921652E-113
   45.6057000000000        -1.979248136531572E-113
   45.8451000000000        -2.209618442177240E-113
   46.0845000000000        -1.479317141450054E-113
   46.3239000000000         1.328879763253274E-113
   46.5633000000000         7.886485249783351E-113
   46.8027000000000         2.031911171583578E-112
   47.0421000000000         4.069661128574251E-112
   47.2815000000000         6.978490274848310E-112
   47.5209000000000         1.046536254436683E-111
   47.7603000000000         1.347647131195778E-111
   47.9997000000000         1.364423178182785E-111
   48.2391000000000         6.634060472228635E-112
   48.4785000000000        -1.440810291979839E-111
   48.7179000000000        -5.887878712921626E-111
   48.9573000000000        -1.374618985853187E-110
   49.1967000000000        -2.584732222095298E-110
   49.4361000000000        -4.203699945994366E-110
   49.6755000000000        -5.989756649873729E-110
   49.9149000000000        -7.286443245728544E-110
   50.1543000000000        -6.785119410392674E-110
   50.3937000000000        -2.288140898604177E-110
   50.6331000000000         9.414330488931931E-110
   50.8725000000000         3.235183730864570E-109
   51.1119000000000         7.055824831343768E-109
   51.3513000000000         1.262342448771824E-108
   51.5907000000000         1.964675233440638E-108
   51.8301000000000         2.682345447495278E-108
   52.0695000000000         3.118441394007279E-108
   52.3089000000000         2.738535956654011E-108
   52.5483000000000         7.189700168690853E-109
   52.7877000000000        -4.042086856956034E-108
   53.0271000000000        -1.278556313499844E-107
   53.2665000000000        -2.654235608176176E-107
   53.5059000000000        -4.549285760957630E-107
   53.7453000000000        -6.799093149281930E-107
   53.9847000000000        -8.930389788323416E-107
   54.2241000000000        -1.002933479844783E-106
   54.4635000000000        -8.651395493944674E-107
   54.7029000000000        -2.850186651257867E-107
   54.9423000000000         9.574158312725451E-107
   55.1817000000000         3.050834245079663E-106
   55.4211000000000         6.059810826756414E-106
   55.6605000000000         9.806059599061100E-106
   55.8999000000000         1.375979450128128E-105
   56.1393000000000         1.701436319092393E-105
   56.3787000000000         1.845760711738445E-105
   56.6181000000000         1.727641163527448E-105
   56.8575000000000         1.389766500460853E-105
   57.0969000000000         1.131895458732788E-105
   57.3363000000000         1.643880025319765E-105
   57.5757000000000         4.038607105280550E-105
   57.8151000000000         9.594901853930984E-105
   58.0545000000000         1.891267589832941E-104
   58.2939000000000         3.009370806055077E-104
   58.5333000000000         3.556916350999007E-104
   58.7727000000000         1.743275366533508E-104
   59.0121000000000        -5.819897673327780E-104
   59.2515000000000        -2.459527007758709E-103
   59.4909000000000        -6.210398699587538E-103
   59.7303000000000        -1.266980334754866E-102
   59.9697000000000        -2.240268960789919E-102
   60.2091000000000        -3.497777329020431E-102
   60.4485000000000        -4.772154974242280E-102
   60.6879000000000        -5.386594273854465E-102
   60.9273000000000        -4.018784406845414E-102
   61.1667000000000         1.538062177717971E-102
   61.4061000000000         1.450430476348825E-101
   61.6455000000000         3.892448823839798E-101
   61.8849000000000         7.882930199018013E-101
   62.1243000000000         1.362944676627591E-100
   62.3637000000000         2.078680065191103E-100
   62.6031000000000         2.789084345801369E-100
   62.8425000000000         3.157395821316823E-100
   63.0819000000000         2.563796223999262E-100
   63.3213000000000         2.163801215722298E-102
   63.5607000000000        -5.849670670730601E-100
   63.8001000000000        -1.671380876787183E-099
   64.0395000000000        -3.414820115305976E-099
   64.2789000000000        -5.886072714481347E-099
   64.5183000000000        -8.932579746452366E-099
   64.7577000000000        -1.197178374404710E-098
   64.9971000000000        -1.371670914946385E-098
   65.2365000000000        -1.186691432344149E-098
   65.4759000000000        -2.850387088201422E-099
   65.7153000000000         1.822014997679769E-098
   65.9547000000000         5.711200677579556E-098
   66.1941000000000         1.191836177540588E-097
   66.4335000000000         2.067808101345444E-097
   66.6729000000000         3.148545357139060E-097
   66.9123000000000         4.245108308234990E-097
   67.1517000000000         4.946818613083382E-097
   67.3911000000000         4.530362646582400E-097
   67.6305000000000         1.887630623025364E-097
   67.8699000000000        -4.479744047641827E-097
   68.1093000000000        -1.632428885252656E-096
   68.3487000000000        -3.527243268437922E-096
   68.5881000000000        -6.207823653020323E-096
   68.8275000000000        -9.539459237055521E-096
   69.0669000000000        -1.299990501570450E-095
   69.3063000000000        -1.545443503448227E-095
   69.5457000000000        -1.491499736219949E-095
   69.7851000000000        -8.353888691894450E-096
   70.0245000000000         8.304024509783919E-096
   70.2639000000000         3.982202337931436E-095
   70.5033000000000         9.067309095925299E-095
   70.7427000000000         1.631508366897755E-094
   70.9821000000000         2.543013805539053E-094
   71.2215000000000         3.515478038904385E-094
   71.4609000000000         4.272038749902858E-094
   71.7003000000000         4.326555183312219E-094
   71.9397000000000         2.938807835715130E-094
   72.1791000000000        -8.881757509922239E-095
   72.4185000000000        -8.325830165216027E-094
   72.6579000000000        -2.049655435094139E-093
   72.8973000000000        -3.804524516881685E-093
   73.1367000000000        -6.044866684507216E-093
   73.3761000000000        -8.503746593390354E-093
   73.6155000000000        -1.057768067346779E-092
   73.8549000000000        -1.119757218568426E-092
   74.0943000000000        -8.728174897682481E-093
   74.3337000000000        -9.564086629021289E-094
   74.5731000000000         1.474284588642018E-092
   74.8125000000000         4.094868200933199E-092
   75.0519000000000         7.931545712967503E-092
   75.2913000000000         1.291601014695075E-091
   75.5307000000000         1.854673790960146E-091
   75.7701000000000         2.364059316979014E-091
   76.0095000000000         2.606889907454494E-091
   76.2489000000000         2.254700179085149E-091
   76.4883000000000         8.592782420384363E-092
   76.7277000000000        -2.117799061719734E-091
   76.9671000000000        -7.220406645844271E-091
   77.2065000000000        -1.483400425695457E-090
   77.4459000000000        -2.492171476820266E-090
   77.6853000000000        -3.665139740557356E-090
   77.9247000000000        -4.793015828182019E-090
   78.1641000000000        -5.490557327305679E-090
   78.4035000000000        -5.155544566740887E-090
   78.6429000000000        -2.956847135228061E-090
   78.8823000000000         2.119187411735389E-090
   79.1217000000000         1.112674173413534E-089
   79.3611000000000         2.488176381867495E-089
   79.6005000000000         4.351025269422377E-089
   79.8399000000000         6.580739826183182E-089
   80.0793000000000         8.843319213805090E-089
   80.3187000000000         1.050399769413436E-088
   80.5581000000000         1.055284977460498E-088
   80.7975000000000         7.575815318863396E-089
   81.0369000000000        -1.819686295687338E-090
   81.2763000000000        -1.460088561991837E-088
   81.5157000000000        -3.725372317640739E-088
   81.7551000000000        -6.869627059949612E-088
   81.9945000000000        -1.074533886706073E-087
   82.2339000000000        -1.487353317256592E-087
   82.4733000000000        -1.830238284576969E-087
   82.7127000000000        -1.948181701528483E-087
   82.9521000000000        -1.620231904415847E-087
   83.1915000000000        -5.667291977836268E-088
   83.4309000000000         1.521268053008343E-087
   83.6703000000000         4.920566478751270E-087
   83.9097000000000         9.773587333629432E-087
   84.1491000000000         1.594058318266494E-086
   84.3885000000000         2.281031847744188E-086
   84.6279000000000         2.908765488921324E-086
   84.8673000000000         3.259723566416882E-086
   85.1067000000000         3.016881805480285E-086
   85.3461000000000         1.769900281394918E-086
   85.5855000000000        -9.489468025920458E-087
   85.8249000000000        -5.585518777928115E-086
   86.0643000000000        -1.242870535912545E-085
   86.3037000000000        -2.141207769273197E-085
   86.5431000000000        -3.185586762118788E-085
   86.7825000000000        -4.217116479227744E-085
   87.0219000000000        -4.957460178124647E-085
   87.2613000000000        -4.989539884979420E-085
   87.5007000000000        -3.759413033553876E-085
   87.7401000000000        -6.147178683991280E-086
   87.9795000000000         5.102841928544299E-085
   88.2189000000000         1.389435715017619E-084
   88.4583000000000         2.585899574641921E-084
   88.6977000000000         4.036938528390545E-084
   88.9371000000000         5.569007944488113E-084
   89.1765000000000         6.859301638159570E-084
   89.4159000000000         7.406356966460915E-084
   89.6553000000000         6.523563272535865E-084
   89.8947000000000         3.373672645538820E-084
   90.1341000000000        -2.934769786754497E-084
   90.3735000000000        -1.316847286706765E-083
   90.6129000000000        -2.769287298636098E-083
   90.8523000000000        -4.609606044932812E-083
   91.0917000000000        -6.673382290367814E-083
   91.3311000000000        -8.624979773924725E-083
   91.5705000000000        -9.916808106747242E-083
   91.8099000000000        -9.770553072831600E-083
   92.0493000000000        -7.200003693288682E-083
   92.2887000000000        -1.098709265336015E-083
   92.5281000000000         9.583706654921572E-083
   92.7675000000000         2.555731259528679E-082
   93.0069000000000         4.679253676207176E-082
   93.2463000000000         7.202033190072756E-082
   93.4857000000000         9.817926184817138E-082
   93.7251000000000         1.199005367840367E-081
   93.9645000000000         1.291734963987862E-081
   94.2039000000000         1.153868408791758E-081
   94.4433000000000         6.598403307241266E-082
   94.6827000000000        -3.201107601391453E-082
   94.9221000000000        -1.893703369496553E-081
   95.1615000000000        -4.108073258806412E-081
   95.4009000000000        -6.899479141353757E-081
   95.6403000000000        -1.003472207926362E-080
   95.8797000000000        -1.305175196900909E-080
   96.1191000000000        -1.521182981766073E-080
   96.3585000000000        -1.548089976194808E-080
   96.5979000000000        -1.256261453355241E-080
   96.8373000000000        -5.008439019366639E-081
   97.0767000000000         8.570291066223126E-081
   97.3161000000000         2.916956330471265E-080
   97.5555000000000         5.693401941118299E-080
   97.7949000000000         9.059028101583574E-080
   98.0343000000000         1.268232187167823E-079
   98.2737000000000         1.596885758287558E-079
   98.5131000000000         1.802041549812870E-079
   98.7525000000000         1.763108747629006E-079
   98.9919000000000         1.334348817213099E-079
   99.2313000000000         3.589943792951794E-080
   99.4707000000000        -1.305857138374250E-079
   99.7101000000000        -3.752073164413842E-079
   99.9495000000000        -6.971049858077713E-079
   100.188900000000        -1.079440237864028E-078
   100.428300000000        -1.483046599858839E-078
   100.667700000000        -1.840639504259351E-078
   100.907100000000        -2.053025701170192E-078
   101.146500000000        -1.989207902515337E-078
   101.385900000000        -1.492645911547499E-078
   101.625300000000        -3.960946107428646E-079
   101.864700000000         1.452751374680182E-078
   102.104100000000         4.153277871772170E-078
   102.343500000000         7.701481811020005E-078
   102.582900000000         1.192904135382770E-077
   102.822300000000         1.643702280964268E-077
   103.061700000000         2.053324358914000E-077
   103.301100000000         2.318689404688660E-077
   103.540500000000         2.301885448407362E-077
   103.779900000000         1.835053652143263E-077
   104.019300000000         7.337013207416738E-078
   104.258700000000        -1.178968959247663E-077
   104.498100000000        -4.034568969916604E-077
   104.737500000000        -7.867818396737386E-077
   104.976900000000        -1.255150666906369E-076
   105.216300000000        -1.772197125408968E-076
   105.455700000000        -2.270302923425644E-076
   105.695100000000        -2.644147052532743E-076
   105.934500000000        -2.747320350459601E-076
   106.173900000000        -2.394533308913720E-076
   106.413300000000        -1.372480481615581E-076
   106.652700000000         5.372805972517002E-077
   106.892100000000         3.520238924300233E-076
   107.131500000000         7.673314557085222E-076
   107.370900000000         1.293131223791289E-075
   107.610300000000         1.897826435224831E-075
   107.849700000000         2.515125058479570E-075
   108.089100000000         3.035064261714369E-075
   108.328500000000         3.297843371411247E-075
   108.567900000000         3.093468611740777E-075
   108.807300000000         2.170987532546921E-075
   109.046700000000         2.616014586956649E-076
   109.286100000000        -2.880088952992772E-075
   109.525500000000        -7.413376121553692E-075
   109.764900000000        -1.332615603642313E-074
   110.004300000000        -2.032980240793767E-074
   110.243700000000        -2.774273760235790E-074
   110.483100000000        -3.437897351546715E-074
   110.722500000000        -3.846722378529634E-074
   110.961900000000        -3.763617006788098E-074
   111.201300000000        -2.901042788173682E-074
   111.440700000000        -9.467181960571748E-075
   111.680100000000         2.389802012343315E-074
   111.919500000000         7.306024490182955E-074
   112.158900000000         1.381004558062606E-073
   112.398300000000         2.160251415127485E-073
   112.637700000000         2.994757747469841E-073
   112.877100000000         3.755208895094621E-073
   113.116500000000         4.248248272884708E-073
   113.355900000000         4.215900134086984E-073
   113.595300000000         3.347537080247519E-073
   113.834700000000         1.309568869667439E-073
   114.074100000000        -2.202438212506270E-073
   114.313500000000        -7.386208028560410E-073
   114.552900000000        -1.423009805080730E-072
   114.792300000000        -2.239091871607524E-072
   115.031700000000        -3.106503245986887E-072
   115.271100000000        -3.887443152003684E-072
   115.510500000000        -4.379923426873662E-072
   115.749900000000        -4.319714849094078E-072
   115.989300000000        -3.395672211517542E-072
   116.228700000000        -1.283173645011423E-072
   116.468100000000         2.300451287008223E-072
   116.707500000000         7.516756731987233E-072
   116.946900000000         1.430521953466292E-071
   117.186300000000         2.226782473943731E-071
   117.425700000000         3.055355012750798E-071
   117.665100000000         3.776523443905973E-071
   117.904500000000         4.191958843765847E-071
   118.143900000000         4.049797148829932E-071
   118.383300000000         3.062887392489641E-071
   118.622700000000         9.440203948485290E-072
   118.862100000000        -2.539235985864544E-071
   119.101500000000        -7.489814658124643E-071
   119.340900000000        -1.378994528011734E-070
   119.580300000000        -2.100191150983673E-070
   119.819700000000        -2.827535914899721E-070
   120.059100000000        -3.428240936082623E-070
   120.298500000000        -3.720800615636779E-070
   120.537900000000        -3.482716188125199E-070
   120.777300000000        -2.470121002859087E-070
   121.016700000000        -4.519732422939955E-071
   121.256100000000         2.739857912977205E-070
   121.495500000000         7.145588221780445E-070
   121.734900000000         1.260190140152921E-069
   121.974300000000         1.866428767396171E-069
   122.213700000000         2.454078368750125E-069
   122.453100000000         2.905544880073239E-069
   122.692500000000         3.066389853089477E-069
   122.931900000000         2.754508364924432E-069
   123.171300000000         1.779181486263722E-069
   123.410700000000        -2.842155372764334E-071
   123.650100000000        -2.773029228687295E-069
   123.889500000000        -6.443109782181773E-069
   124.128900000000        -1.085327165463415E-068
   124.368300000000        -1.558900986185902E-068
   124.607700000000        -1.996509222324468E-068
   124.847100000000        -2.301206999484519E-068
   125.086500000000        -2.350752743832409E-068
   125.325900000000        -2.006883544647647E-068
   125.565300000000        -1.132133728585102E-068
   125.804700000000         3.850886221436049E-069
   126.044100000000         2.597595170262859E-068
   126.283500000000         5.460735788813629E-068
   126.522900000000         8.792049131126990E-068
   126.762300000000         1.223566470446829E-067
   127.001700000000         1.524015590174983E-067
   127.241100000000         1.706036393981677E-067
   127.480500000000         1.679452396839632E-067
   127.719900000000         1.346719601346815E-067
   127.959300000000         6.165398405136987E-068
   128.198700000000        -5.770570310503693E-068
   128.438100000000        -2.250913156323538E-067
   128.677500000000        -4.346169885287188E-067
   128.916900000000        -6.702281839062178E-067
   129.156300000000        -9.036465570876963E-067
   129.395700000000        -1.093476262162016E-066
   129.635100000000        -1.186176403922459E-066
   129.874500000000        -1.119607590338139E-066
   130.113900000000        -8.297409137382047E-067
   130.353300000000        -2.608392784242881E-067
   130.592700000000         6.210406851233749E-067
   130.832100000000         1.812026324706105E-066
   131.071500000000         3.253494030717574E-066
   131.310900000000         4.816727844254594E-066
   131.550300000000         6.292552030347646E-066
   131.789700000000         7.390004950213470E-066
   132.029100000000         7.748416878479661E-066
   132.268500000000         6.966929813872658E-066
   132.507900000000         4.654329458270515E-066
   132.747300000000         4.998709956624247E-067
   132.986700000000        -5.637509062601542E-066
   133.226100000000        -1.362851869625913E-065
   133.465500000000        -2.297335610687095E-065
   133.704900000000        -3.271932088728378E-065
   133.944300000000        -4.141809364476609E-065
   134.183700000000        -4.714757498690816E-065
   134.423100000000        -4.762324767875549E-065
   134.662500000000        -4.041989077940836E-065
   134.901900000000        -2.331499175699554E-065
   135.141300000000         5.250353784373101E-066
   135.380700000000         4.561890343815291E-065
   135.620100000000         9.632563893042072E-065
   135.859500000000         1.535490375745092E-064
   136.098900000000         2.107156376647928E-064
   136.338300000000         2.583904216458187E-064
   136.577700000000         2.845949822930953E-064
   136.817100000000         2.756851662500563E-064
   137.056500000000         2.178832025871579E-064
   137.295900000000         9.949110173606123E-065
   137.535300000000        -8.628965376757939E-065
   137.774700000000        -3.381396525978501E-064
   138.014100000000        -6.433661232811470E-064
   138.253500000000        -9.751317994735920E-064
   138.492900000000        -1.290829747912378E-063
   138.732300000000        -1.532355833915615E-063