  -1.79550000000000         0.000000000000000E+000
  -1.55610000000000         0.000000000000000E+000
  -1.31670000000000         0.000000000000000E+000
  -1.07730000000000         0.000000000000000E+000
 -0.837900000000000         0.000000000000000E+000
 -0.598500000000000         0.000000000000000E+000
 -0.359100000000000         0.000000000000000E+000
 -0.119700000000000         0.000000000000000E+000
  0.119700000000000         0.000000000000000E+000
  0.359100000000000         0.000000000000000E+000
  0.598500000000000         0.000000000000000E+000
  0.837900000000000         0.000000000000000E+000
   1.07730000000000         0.000000000000000E+000
   1.31670000000000         0.000000000000000E+000
   1.55610000000000         0.000000000000000E+000
   1.79550000000000         0.000000000000000E+000
   2.03490000000000         0.000000000000000E+000
   2.27430000000000         0.000000000000000E+000
   2.51370000000000         0.000000000000000E+000
   2.75310000000000         0.000000000000000E+000
   2.99250000000000         0.000000000000000E+000
   3.23190000000000         0.000000000000000E+000
   3.47130000000000         0.000000000000000E+000
   3.71070000000000         0.000000000000000E+000
   3.95010000000000         0.000000000000000E+000
   4.18950000000000         0.000000000000000E+000
   4.42890000000000         0.000000000000000E+000
   4.66830000000000         0.000000000000000E+000
   4.90770000000000         0.000000000000000E+000
   5.14710000000000         0.000000000000000E+000
   5.38650000000000         0.000000000000000E+000
   5.62590000000000         0.000000000000000E+000
   5.86530000000000         0.000000000000000E+000
   6.10470000000000         0.000000000000000E+000
   6.34410000000000         0.000000000000000E+000
   6.58350000000000         0.000000000000000E+000
   6.82290000000000         0.000000000000000E+000
   7.06230000000000         0.000000000000000E+000
   7.30170000000000         0.000000000000000E+000
   7.54110000000000         0.000000000000000E+000
   7.78050000000000         0.000000000000000E+000
   8.01990000000000         0.000000000000000E+000
   8.25930000000000         0.000000000000000E+000
   8.49870000000000         0.000000000000000E+000
   8.73810000000000         0.000000000000000E+000
   8.97750000000000         6.896358977389622E-195
   9.21690000000000        -6.969108556343942E-189
   9.45630000000000         9.605165309557362E-184
   9.69570000000000         5.492589121765478E-182
   9.93510000000000         2.136801132372045E-180
   10.1745000000000        -4.364339107549110E-179
   10.4139000000000        -1.043902817910042E-176
   10.6533000000000        -6.072264824924240E-175
   10.8927000000000        -2.154167259117653E-173
   11.1321000000000        -5.543945687947178E-172
   11.3715000000000        -1.119932928935299E-170
   11.6109000000000        -1.859669159365143E-169
   11.8503000000000        -2.616977389859271E-168
   12.0897000000000        -3.189265718473053E-167
   12.3291000000000        -3.420540539560072E-166
   12.5685000000000        -3.268564144071790E-165
   12.8079000000000        -2.809552671315995E-164
   13.0473000000000        -2.188716539197331E-163
   13.2867000000000        -1.554300840247542E-162
   13.5261000000000        -1.010555128131902E-161
   13.7655000000000        -6.033289739567430E-161
   14.0049000000000        -3.312753094187748E-160
   14.2443000000000        -1.672690271356077E-159
   14.4837000000000        -7.748710102030379E-159
   14.7231000000000        -3.274737150489535E-158
   14.9625000000000        -1.248116708431669E-157
   15.2019000000000        -4.189434454270134E-157
   15.4413000000000        -1.170956986578484E-156
   15.6807000000000        -2.260743426266201E-156
   15.9201000000000         5.700600736812154E-157
   16.1595000000000         3.395630666253063E-155
   16.3989000000000         2.175509311748701E-154
   16.6383000000000         9.931494077750720E-154
   16.8777000000000         3.742924731395460E-153
   17.1171000000000         1.208911642684013E-152
   17.3565000000000         3.348522699112100E-152
   17.5959000000000         7.716558244389218E-152
   17.8353000000000         1.345315322073215E-151
   18.0747000000000         1.156517985046254E-151
   18.3141000000000        -2.392108240078859E-151
   18.5535000000000        -1.074012061295058E-150
   18.7929000000000         2.002486669689801E-151
   19.0323000000000         2.012157291135063E-149
   19.2717000000000         1.217453282064508E-148
   19.5111000000000         4.694221555209900E-148
   19.7505000000000         1.266004559369200E-147
   19.9899000000000         1.754375814637987E-147
   20.2293000000000        -4.932408108772856E-147
   20.4687000000000        -5.100220770855224E-146
   20.7081000000000        -2.515594735683823E-145
   20.9475000000000        -9.415502818013131E-145
   21.1869000000000        -2.899320923411962E-144
   21.4263000000000        -7.352108153957085E-144
   21.6657000000000        -1.415173768781266E-143
   21.9051000000000        -1.241169980716202E-143
   22.1445000000000         5.238254514404898E-143
   22.3839000000000         3.704884635752153E-142
   22.6233000000000         1.475342790285026E-141
   22.8627000000000         4.579378837129995E-141
   23.1021000000000         1.170427886629121E-140
   23.3415000000000         2.393497350315306E-140
   23.5809000000000         3.223034559588112E-140
   23.8203000000000        -1.395776514603984E-140
   24.0597000000000        -2.918317113107395E-139
   24.2991000000000        -1.293799449894931E-138
   24.5385000000000        -4.145406455578001E-138
   24.7779000000000        -1.086211260082194E-137
   25.0173000000000        -2.353704644577815E-137
   25.2567000000000        -3.913852491107646E-137
   25.4961000000000        -3.125520226290289E-137
   25.7355000000000         9.977398002362766E-137
   25.9749000000000         6.394340323615749E-136
   26.2143000000000         2.264123656373787E-135
   26.4537000000000         6.295206339325026E-135
   26.6931000000000         1.465760761665041E-134
   26.9325000000000         2.833158886591778E-134
   27.1719000000000         4.105979846613948E-134
   27.4113000000000         2.117258851242839E-134
   27.6507000000000        -1.313245862398976E-133
   27.8901000000000        -6.691283780385790E-133
   28.1295000000000        -2.127917564401181E-132
   28.3689000000000        -5.439401451559898E-132
   28.6083000000000        -1.175443034771481E-131
   28.8477000000000        -2.119386146929652E-131
   29.0871000000000        -2.871654203810795E-131
   29.3265000000000        -1.361202460619366E-131
   29.5659000000000         8.275956528305206E-131
   29.8053000000000         3.961511678365647E-130
   30.0447000000000         1.191674703655499E-129
   30.2841000000000         2.891865522325898E-129
   30.5235000000000         5.955884793432434E-129
   30.7629000000000         1.029779248855119E-128
   31.0023000000000         1.359673465553848E-128
   31.2417000000000         7.379518628755999E-129
   31.4811000000000        -3.062476423292339E-128
   31.7205000000000        -1.488587275530170E-127
   31.9599000000000        -4.367071273399504E-127
   32.1993000000000        -1.029205283407730E-126
   32.4387000000000        -2.065628611066995E-126
   32.6781000000000        -3.520083494598460E-126
   32.9175000000000        -4.748219921802118E-126
   33.1569000000000        -3.503473475232257E-126
   33.3963000000000         5.869257543944279E-126
   33.6357000000000         3.518080711367143E-125
   33.8751000000000         1.054300299221309E-124
   34.1145000000000         2.473955387931489E-124
   34.3539000000000         4.926489822256034E-124
   34.5933000000000         8.399451927834504E-124
   34.8327000000000         1.170238523697652E-123
   35.0721000000000         1.070979876369348E-123
   35.3115000000000        -4.722852872244612E-124
   35.5509000000000        -5.525018096411144E-123
   35.7903000000000        -1.767790435931029E-122
   36.0297000000000        -4.212897024131805E-122
   36.2691000000000        -8.435679617347678E-122
   36.5085000000000        -1.453615854951563E-121
   36.7479000000000        -2.100650011516874E-121
   36.9873000000000        -2.241319285148345E-121
   37.2267000000000        -5.454831261902560E-122
   37.4661000000000         5.662563971352280E-121
   37.7055000000000         2.098625608495520E-120
   37.9449000000000         5.209421007860688E-120
   38.1843000000000         1.063296543198983E-119
   38.4237000000000         1.867281965138543E-119
   38.6631000000000         2.801055810827025E-119
   38.9025000000000         3.337627750246310E-119
   39.1419000000000         2.166321522021299E-119
   39.3813000000000        -3.351029587170275E-119
   39.6207000000000        -1.775353155928074E-118
   39.8601000000000        -4.768650361798532E-118
   40.0995000000000        -1.008494592994367E-117
   40.3389000000000        -1.820450489671570E-117
   40.5783000000000        -2.837477807880568E-117
   40.8177000000000        -3.678349279435479E-117
   41.0571000000000        -3.353778251365318E-117
   41.2965000000000         1.562516777353424E-118
   41.5359000000000         1.036198303357042E-116
   41.7753000000000         3.249803073014341E-116
   42.0147000000000         7.295746008752358E-116
   42.2541000000000         1.368852550841209E-115
   42.4935000000000         2.223232570043841E-115
   42.7329000000000         3.088370565178546E-115
   42.9723000000000         3.386850251887693E-115
   43.2117000000000         1.902170496800795E-115
   43.4511000000000        -3.522531236108356E-115
   43.6905000000000        -1.618477872918563E-114
   43.9299000000000        -4.032470065781200E-114
   44.1693000000000        -7.999512603606837E-114
   44.4087000000000        -1.361817271154712E-113
   44.6481000000000        -2.011194351962931E-113
   44.8875000000000        -2.487835910536738E-113
   45.1269000000000        -2.212298273509495E-113
   45.3663000000000        -1.242097509193173E-114
   45.6057000000000         5.448104352433787E-113
   45.8451000000000         1.676203189631092E-112
   46.0845000000000         3.625562800024536E-112
   46.3239000000000         6.542059307672458E-112
   46.5633000000000         1.025087953021365E-111
   46.8027000000000         1.386240787127645E-111
   47.0421000000000         1.519880160725169E-111
   47.2815000000000         1.008583703837116E-111
   47.5209000000000        -8.301237323459897E-112
   47.7603000000000        -4.961143281695048E-111
   47.9997000000000        -1.252422999064998E-110
   48.2391000000000        -2.448336115006922E-110
   48.4785000000000        -4.087865308179742E-110
   48.7179000000000        -5.952019293339978E-110
   48.9573000000000        -7.402977676736477E-110
   49.1967000000000        -7.133792565110888E-110
   49.4361000000000        -2.915409171429924E-110
   49.6755000000000         8.538648696800218E-110
   49.9149000000000         3.137212341614771E-109
   50.1543000000000         6.971715484151457E-109
   50.3937000000000         1.257231926193166E-108
   50.6331000000000         1.960316314347839E-108
   50.8725000000000         2.664155547787288E-108
   51.1119000000000         3.048135787629874E-108
   51.3513000000000         2.539989960828141E-108
   51.5907000000000         2.676111991518846E-109
   51.8301000000000        -4.912976320337146E-108
   52.0695000000000        -1.423779065920982E-107
   52.3089000000000        -2.860919533642754E-107
   52.5483000000000        -4.783420075600088E-107
   52.7877000000000        -6.948622259172855E-107
   53.0271000000000        -8.747356885532075E-107
   53.2665000000000        -9.062109082667679E-107
   53.5059000000000        -6.189890549662363E-107
   53.7453000000000         2.067804384304076E-107
   53.9847000000000         1.801272236768944E-106
   54.2241000000000         4.321728008805740E-106
   54.4635000000000         7.717828297741789E-106
   54.7029000000000         1.155620902942492E-105
   54.9423000000000         1.484817441488688E-105
   55.1817000000000         1.597488164629115E-105
   55.4211000000000         1.286410454268396E-105
   55.6605000000000         3.620268471155091E-106
   55.8999000000000        -1.219922216739157E-105
   56.1393000000000        -3.160443511979146E-105
   56.3787000000000        -4.579185726378211E-105
   56.6181000000000        -3.834340705139284E-105
   56.8575000000000         1.395922648073289E-105
   57.0969000000000         1.343262794125108E-104
   57.3363000000000         3.285054939935835E-104
   57.5757000000000         5.516380181673983E-104
   57.8151000000000         6.563120582973710E-104
   58.0545000000000         3.251058092570164E-104
   58.2939000000000        -9.955229051433372E-104
   58.5333000000000        -4.119855698508014E-103
   58.7727000000000        -1.003192340255364E-102
   59.0121000000000        -1.956331821686983E-102
   59.2515000000000        -3.268639524533453E-102
   59.4909000000000        -4.725914193957965E-102
   59.7303000000000        -5.711650353238660E-102
   59.9697000000000        -4.959135205659969E-102
   60.2091000000000        -2.943392488346046E-103
   60.4485000000000         1.151476480133891E-101
   60.6879000000000         3.458676569279711E-101
   60.9273000000000         7.309133173986086E-101
   61.1667000000000         1.292809439570608E-100
   61.4061000000000         1.998511471022908E-100
   61.6455000000000         2.701795961093282E-100
   61.8849000000000         3.063972923257192E-100
   62.1243000000000         2.461663275386365E-100
   62.3637000000000        -9.301846849872723E-102
   62.6031000000000        -5.968918486253417E-100
   62.8425000000000        -1.678365840864021E-099
   63.0819000000000        -3.399892474371109E-099
   63.3213000000000        -5.808782732111861E-099
   63.5607000000000        -8.711610225531473E-099
   63.8001000000000        -1.146393952028270E-098
   64.0395000000000        -1.269906457623762E-098
   64.2789000000000        -1.003717928899888E-098
   64.5183000000000         1.274251204502629E-100
   64.7577000000000         2.258288774320202E-098
   64.9971000000000         6.272155310720237E-098
   65.2365000000000         1.250468905698128E-097
   65.4759000000000         2.103212959605754E-097
   65.7153000000000         3.109507222176637E-097
   65.9547000000000         4.044459899970165E-097
   66.1941000000000         4.453765540665628E-097
   66.4335000000000         3.572795327024764E-097
   66.6729000000000         2.761305816461341E-098
   66.9123000000000        -6.889485029887759E-097
   67.1517000000000        -1.951003712548868E-096
   67.3911000000000        -3.884460624298241E-096
   67.6305000000000        -6.498847102283269E-096
   67.8699000000000        -9.556699696570764E-096
   68.1093000000000        -1.239453239574836E-095
   68.3487000000000        -1.371023635036380E-095
   68.5881000000000        -1.135976950613787E-095
   68.8275000000000        -2.247511612046454E-096
   69.0669000000000         1.755146289336580E-095
   69.3063000000000         5.223947663401994E-095
   69.5457000000000         1.050675805013485E-094
   69.7851000000000         1.761715017733230E-094
   70.0245000000000         2.592823898344454E-094
   70.2639000000000         3.373280861302551E-094
   70.5033000000000         3.773475416225036E-094
   70.7427000000000         3.258075244782646E-094
   70.9821000000000         1.063623880154954E-094
   71.2215000000000        -3.767137182395943E-094
   71.4609000000000        -1.224943934587774E-093
   71.7003000000000        -2.516496931912162E-093
   71.9397000000000        -4.256038730755919E-093
   72.1791000000000        -6.299986298795670E-093
   72.4185000000000        -8.258375281530143E-093
   72.6579000000000        -9.383607012780629E-093
   72.8973000000000        -8.470652505637342E-093
   73.1367000000000        -3.813099674443748E-093
   73.3761000000000         6.716628469071958E-093
   73.6155000000000         2.537048845765497E-092
   73.8549000000000         5.390266253593898E-092
   74.0943000000000         9.251702332234397E-092
   74.3337000000000         1.383207446795413E-091
   74.5731000000000         1.833213912948183E-091
   74.8125000000000         2.121870220914170E-091
   75.0519000000000         2.002686544314254E-091
   75.2913000000000         1.127615977892819E-091
   75.5307000000000        -9.367482031136408E-092
   75.7701000000000        -4.650915361771659E-091
   76.0095000000000        -1.038205927735005E-090
   76.2489000000000        -1.820256937033071E-090
   76.4883000000000        -2.759710761712583E-090
   76.7277000000000        -3.708676942227409E-090
   76.9671000000000        -4.381236485438327E-090
   77.2065000000000        -4.316892377382130E-090
   77.4459000000000        -2.864952910895299E-090
   77.6853000000000         7.867792586525157E-091
   77.9247000000000         7.508582590230156E-090
   78.1641000000000         1.801625791868374E-089
   78.4035000000000         3.251802352839828E-089
   78.6429000000000         5.020447797736168E-089
   78.8823000000000         6.859811348610485E-089
   79.1217000000000         8.283497245864011E-089
   79.3611000000000         8.503343416689202E-089
   79.6005000000000         6.401161445906663E-089
   79.8399000000000         5.734335640881417E-090
   80.0793000000000        -1.050211345846932E-088
   80.3187000000000        -2.812353914336536E-088
   80.5581000000000        -5.279640440931429E-088
   80.7975000000000        -8.341568018993709E-088
   81.0369000000000        -1.162250698089820E-087
   81.2763000000000        -1.436674491530163E-087
   81.5157000000000        -1.533649960776302E-087
   81.7551000000000        -1.276264081259689E-087
   81.9945000000000        -4.405376054904530E-088
   82.2339000000000         1.220233527813907E-087
   82.4733000000000         3.924834893709914E-087
   82.7127000000000         7.780053274095682E-087
   82.9521000000000         1.265962367488589E-086
   83.1915000000000         1.805011247416351E-086
   83.4309000000000         2.287990190861023E-086
   83.6703000000000         2.536490259928629E-086
   83.9097000000000         2.292655535659941E-086
   84.1491000000000         1.226156880891703E-086
   84.3885000000000        -1.033631982709448E-086
   84.6279000000000        -4.829247367960034E-086
   84.8673000000000        -1.036076403819622E-085
   85.1067000000000        -1.752047487049511E-085
   85.3461000000000        -2.568146835868558E-085
   85.5855000000000        -3.346093044064326E-085
   85.8249000000000        -3.850154845937712E-085
   86.0643000000000        -3.734248166380140E-085
   86.3037000000000        -2.548172147943998E-085
   86.5431000000000         2.241972889728506E-086
   86.7825000000000         5.080684484325063E-085
   87.0219000000000         1.235796243676114E-084
   87.2613000000000         2.202328709340036E-084
   87.5007000000000         3.340585370641176E-084
   87.7401000000000         4.489196801158912E-084
   87.9795000000000         5.363512206945354E-084
   88.2189000000000         5.536542858488338E-084
   88.4583000000000         4.441888174284256E-084
   88.6977000000000         1.413839219828750E-084
   88.9371000000000        -4.218561623114299E-084
   89.1765000000000        -1.296820381101233E-083
   89.4159000000000        -2.494835358771471E-083
   89.6553000000000        -3.955685881844676E-083
   89.8947000000000        -5.511118029856511E-083
   90.1341000000000        -6.848890270824365E-083
   90.3735000000000        -7.486512575961232E-083
   90.6129000000000        -6.767802518817597E-083
   90.8523000000000        -3.898940806804835E-083
   91.0917000000000         1.957322327646104E-083
   91.3311000000000         1.151181264799420E-082
   91.5705000000000         2.509202843397402E-082
   91.8099000000000         4.229967751506444E-082
   92.0493000000000         6.160529855008147E-082
   92.2887000000000         7.993252227451319E-082
   92.5281000000000         9.232197069022509E-082
   92.7675000000000         9.180599483985238E-082
   93.0069000000000         6.966334961378010E-082
   93.2463000000000         1.624666666645772E-082
   93.4857000000000        -7.742928421685203E-082
   93.7251000000000        -2.172012340988180E-081
   93.9645000000000        -4.023497747145633E-081
   94.2039000000000        -6.214392896602539E-081
   94.4433000000000        -8.478502940650850E-081
   94.6827000000000        -1.035800163340222E-080
   94.9221000000000        -1.118043786632503E-080
   95.1615000000000        -1.006826438899890E-080
   95.4009000000000        -5.999352589258465E-081
   95.6403000000000         2.062610022766274E-081
   95.8797000000000         1.495230768884460E-080
   96.1191000000000         3.299476595213116E-080
   96.3585000000000         5.561374845989646E-080
   96.5979000000000         8.088814150717392E-080
   96.8373000000000         1.051178937912171E-079
   97.0767000000000         1.224961274130006E-079
   97.3161000000000         1.250198712455882E-079
   97.5555000000000         1.028016556669871E-079
   97.7949000000000         4.495847137151182E-080
   98.0343000000000        -5.875836536783603E-080
   98.2737000000000        -2.154819302405690E-079
   98.5131000000000        -4.258917163927222E-079
   98.7525000000000        -6.801798568965615E-079
   98.9919000000000        -9.537113940204409E-079
   99.2313000000000        -1.203051278557557E-078
   99.4707000000000        -1.363343802925167E-078
   99.7101000000000        -1.348331612280980E-078
   99.9495000000000        -1.054529645784437E-078
   100.188900000000        -3.711435009577802E-079
   100.428300000000         8.028540020738503E-079
   100.667700000000         2.533601957582483E-078
   100.907100000000         4.819274508425328E-078
   101.146500000000         7.550625943740293E-078
   101.385900000000         1.046875944101405E-077
   101.625300000000         1.312622067244156E-077
   101.864700000000         1.486032876100271E-077
   102.104100000000         1.479048223028760E-077
   102.343500000000         1.185356184180629E-077
   102.582900000000         4.892869758063972E-078
   102.822300000000        -7.184500451868597E-078
   103.061700000000        -2.517031791660141E-077
   103.301100000000        -4.923353392810194E-077
   103.540500000000        -7.852195232979427E-077
   103.779900000000        -1.107126866067790E-076
   104.019300000000        -1.415607294112033E-076
   104.258700000000        -1.645246733304309E-076
   104.498100000000        -1.705826485162781E-076
   104.737500000000        -1.483866386771581E-076
   104.976900000000        -8.493391524964084E-077
   105.216300000000         3.304812519659589E-077
   105.455700000000         2.168147829012371E-076
   105.695100000000         4.722730510142005E-076
   105.934500000000         7.955706927314443E-076
   106.173900000000         1.167751224608892E-075
   106.413300000000         1.548894953146482E-075
   106.652700000000         1.872540666936854E-075
   106.892100000000         2.041649141191283E-075
   107.131500000000         1.927894869523223E-075
   107.370900000000         1.376586888949863E-075
   107.610300000000         2.199073955635050E-076
   107.849700000000        -1.698750845715319E-075
   108.089100000000        -4.486991872920957E-075
   108.328500000000        -8.151014360032456E-075
   108.567900000000        -1.252969376105580E-074
   108.807300000000        -1.721975843705268E-074
   109.046700000000        -2.150154587661686E-074
   109.286100000000        -2.428091875596263E-074
   109.525500000000        -2.406972503502760E-074
   109.764900000000        -1.903370331713972E-074
   110.004300000000        -7.141370952194011E-075
   110.243700000000         1.355203801258520E-074
   110.483100000000         4.445787336763061E-074
   110.722500000000         8.583321271789491E-074
   110.961900000000         1.360036206627817E-073
   111.201300000000         1.904912611349614E-073
   111.440700000000         2.411688536790288E-073
   111.680100000000         2.756302950077698E-073
   111.919500000000         2.770429646595379E-073
   112.158900000000         2.248114508293980E-073
   112.398300000000         9.641807679438977E-074
   112.637700000000        -1.292132878799194E-073
   112.877100000000        -4.665865614933548E-073
   113.116500000000        -9.167089203582112E-073
   113.355900000000        -1.458699161998809E-072
   113.595300000000        -2.040755531163983E-072
   113.834700000000        -2.571938882980268E-072
   114.074100000000        -2.916932288044725E-072
   114.313500000000        -2.896618122500544E-072
   114.552900000000        -2.297812623701146E-072
   114.792300000000        -8.956062505988010E-073
   115.031700000000         1.508775216420425E-072
   115.271100000000         5.033113819546395E-072
   115.510500000000         9.643449556946581E-072
   115.749900000000         1.507238682540646E-071
   115.989300000000         2.073646817073286E-071
   116.228700000000         2.566857071517429E-071
   116.468100000000         2.848740678205123E-071
   116.707500000000         2.743138404519861E-071
   116.946900000000         2.048672227245050E-071
   117.186300000000         5.637879565529676E-072
   117.425700000000        -1.874012999148699E-071
   117.665100000000        -5.334504307540361E-071
   117.904500000000        -9.729089759971294E-071
   118.143900000000        -1.473936968228801E-070
   118.383300000000        -1.975066532421316E-070
   118.622700000000        -2.380619787899087E-070
   118.862100000000        -2.560219630716697E-070
   119.101500000000        -2.354731073249474E-070
   119.340900000000        -1.590992951130750E-070
   119.580300000000        -1.072742588877982E-071
   119.819700000000         2.209641039614269E-070
   120.059100000000         5.376594885095390E-070
   120.298500000000         9.258807473043063E-070
   120.537900000000         1.351385212115734E-069
   120.777300000000         1.754512596059522E-069
   121.016700000000         2.047871339979909E-069
   121.256100000000         2.118040774332165E-069
   121.495500000000         1.833082551382498E-069
   121.734900000000         1.057491076416569E-069
   121.974300000000        -3.243458459797539E-070
   122.213700000000        -2.376155684931460E-069
   122.453100000000        -5.070835301615201E-069
   122.692500000000        -8.248246297679607E-069
   122.931900000000        -1.157595657368961E-068
   123.171300000000        -1.452175693568814E-068
   123.410700000000        -1.634908482163858E-068
   123.650100000000        -1.614787592998834E-068
   123.889500000000        -1.291311889717852E-068
   124.128900000000        -5.680735094009204E-069
   124.368300000000         6.275362693827333E-069
   124.607700000000         2.319054022178040E-068
   124.847100000000         4.451954740864974E-068
   125.086500000000         6.864399643159919E-068
   125.325900000000         9.262934153780837E-068
   125.565300000000         1.121001708298458E-067
   125.804700000000         1.213148782200816E-067
   126.044100000000         1.135242154452403E-067
   126.283500000000         8.168791579383382E-068
   126.522900000000         1.959476647409809E-068
   126.762300000000        -7.661948941899550E-068
   127.001700000000        -2.066366066961114E-067
   127.241100000000        -3.639787315488999E-067
   127.480500000000        -5.341758712270314E-067
   127.719900000000        -6.934751340553733E-067
   127.959300000000        -8.085814486281005E-067
   128.198700000000        -8.379680294252427E-067
   128.438100000000        -7.352700249832358E-067
   128.677500000000        -4.551465422316221E-067
   128.916900000000         3.826089513711363E-068
   129.156300000000         7.605456852092384E-067
   129.395700000000         1.694740249989310E-066
   129.635100000000         2.778963479165091E-066
   129.874500000000         3.896155436900780E-066
   130.113900000000         4.868669842141940E-066
   130.353300000000         5.460922011128954E-066
   130.592700000000         5.393351033443179E-066
   130.832100000000         4.370472031316424E-066
   131.071500000000         2.124604666873791E-066
   131.310900000000        -1.525144444304276E-066
   131.550300000000        -6.601913901769722E-066
   131.789700000000        -1.289496701234482E-065
   132.029100000000        -1.988923493768523E-065
   132.268500000000        -2.671523718435502E-065
   132.507900000000        -3.213718833085826E-065
   132.747300000000        -3.459849839817931E-065
   132.986700000000        -3.234257977500177E-065
   133.226100000000        -2.362191640606384E-065
   133.465500000000        -6.998967932938224E-066
   133.704900000000         1.827166117274736E-065
   133.944300000000         5.180891897210738E-065
   134.183700000000         9.166973145574089E-065
   134.423100000000         1.339855764305370E-064
   134.662500000000         1.727645157705194E-064
   134.901900000000         1.999646589139904E-064
   135.141300000000         2.059451767892853E-064
   135.380700000000         1.803831815421318E-064
   135.620100000000         1.137043240205193E-064
   135.859500000000        -9.910349845106558E-067
   136.098900000000        -1.656155166051040E-064
   136.338300000000        -3.746176799166748E-064
   136.577700000000        -6.126841869766956E-064
   136.817100000000        -8.530820859559675E-064
   137.056500000000        -1.057191453784109E-063
   137.295900000000        -1.175813640417947E-063
   137.535300000000        -1.152792230622332E-063
   137.774700000000        -9.313256661045940E-064
   138.014100000000        -4.630625140745902E-064
   138.253500000000         2.803536227378904E-064
   138.492900000000         1.294168700007310E-063
   138.732300000000         2.527339724656682E-063