  -1.79550000000000         0.000000000000000E+000
  -1.55610000000000         0.000000000000000E+000
  -1.31670000000000         0.000000000000000E+000
  -1.07730000000000         0.000000000000000E+000
 -0.837900000000000         0.000000000000000E+000
 -0.598500000000000         0.000000000000000E+000
 -0.359100000000000         0.000000000000000E+000
 -0.119700000000000         0.000000000000000E+000
  0.119700000000000         0.000000000000000E+000
  0.359100000000000         0.000000000000000E+000
  0.598500000000000         0.000000000000000E+000
  0.837900000000000         0.000000000000000E+000
   1.07730000000000         0.000000000000000E+000
   1.31670000000000         0.000000000000000E+000
   1.55610000000000         0.000000000000000E+000
   1.79550000000000         0.000000000000000E+000
   2.03490000000000         0.000000000000000E+000
   2.27430000000000         0.000000000000000E+000
   2.51370000000000         0.000000000000000E+000
   2.75310000000000         0.000000000000000E+000
   2.99250000000000         0.000000000000000E+000
   3.23190000000000         0.000000000000000E+000
   3.47130000000000         0.000000000000000E+000
   3.71070000000000         0.000000000000000E+000
   3.95010000000000         0.000000000000000E+000
   4.18950000000000         0.000000000000000E+000
   4.42890000000000         0.000000000000000E+000
   4.66830000000000         0.000000000000000E+000
   4.90770000000000         0.000000000000000E+000
   5.14710000000000         0.000000000000000E+000
   5.38650000000000         0.000000000000000E+000
   5.62590000000000         0.000000000000000E+000
   5.86530000000000         0.000000000000000E+000
   6.10470000000000         0.000000000000000E+000
   6.34410000000000         0.000000000000000E+000
   6.58350000000000         0.000000000000000E+000
   6.82290000000000         0.000000000000000E+000
   7.06230000000000         0.000000000000000E+000
   7.30170000000000         0.000000000000000E+000
   7.54110000000000         0.000000000000000E+000
   7.78050000000000         0.000000000000000E+000
   8.01990000000000         0.000000000000000E+000
   8.25930000000000         0.000000000000000E+000
   8.49870000000000         0.000000000000000E+000
   8.73810000000000         0.000000000000000E+000
   8.97750000000000         0.000000000000000E+000
   9.21690000000000         0.000000000000000E+000
   9.45630000000000         0.000000000000000E+000
   9.69570000000000         0.000000000000000E+000
   9.93510000000000         8.214500933521483E-199
   10.1745000000000        -2.672015633150718E-193
   10.4139000000000         1.431597675800137E-190
   10.6533000000000        -5.766644799403742E-188
   10.8927000000000        -4.609458089730762E-186
   11.1321000000000        -1.688189690223794E-184
   11.3715000000000        -3.927499185033378E-183
   11.6109000000000        -6.490578182558004E-182
   11.8503000000000        -7.915907773249003E-181
   12.0897000000000        -6.924887201154390E-180
   12.3291000000000        -3.423839968508736E-179
   12.5685000000000         1.354217196649516E-178
   12.8079000000000         5.636276608424747E-177
   13.0473000000000         8.117591335659513E-176
   13.2867000000000         8.478594083348732E-175
   13.5261000000000         7.240911046726738E-174
   13.7655000000000         5.268793678990790E-173
   14.0049000000000         3.310977902749159E-172
   14.2443000000000         1.786618081697610E-171
   14.4837000000000         7.995635903907457E-171
   14.7231000000000         2.626360920547196E-170
   14.9625000000000         2.457202812310604E-170
   15.2019000000000        -5.078305978077346E-169
   15.4413000000000        -5.532430054995274E-168
   15.6807000000000        -3.866928339856776E-167
   15.9201000000000        -2.178284345545251E-166
   16.1595000000000        -1.044964715136689E-165
   16.3989000000000        -4.307571914314144E-165
   16.6383000000000        -1.488527048564677E-164
   16.8777000000000        -3.915091962981913E-164
   17.1171000000000        -4.501141613010275E-164
   17.3565000000000         2.921461708669746E-163
   17.5959000000000         2.730932754328789E-162
   17.8353000000000         1.443618653946728E-161
   18.0747000000000         5.795537193638547E-161
   18.3141000000000         1.802377501338713E-160
   18.5535000000000         3.689721384444458E-160
   18.7929000000000        -1.338126179355858E-160
   19.0323000000000        -6.219336579251441E-159
   19.2717000000000        -3.987821818863883E-158
   19.5111000000000        -1.799331189952434E-157
   19.7505000000000        -6.517681428455329E-157
   19.9899000000000        -1.904177772186892E-156
   20.2293000000000        -4.007870898904249E-156
   20.4687000000000        -2.002918874933701E-156
   20.7081000000000         3.591710451642542E-155
   20.9475000000000         2.498669111802695E-154
   21.1869000000000         1.145027493858164E-153
   21.4263000000000         4.274748840807286E-153
   21.6657000000000         1.368585817073800E-152
   21.9051000000000         3.773870613673823E-152
   22.1445000000000         8.634634198364180E-152
   22.3839000000000         1.406778545609875E-151
   22.6233000000000         1.592345334656070E-152
   22.8627000000000        -1.109571184875086E-150
   23.1021000000000        -6.036520016517442E-150
   23.3415000000000        -2.274374697052699E-149
   23.5809000000000        -7.035330878554392E-149
   23.8203000000000        -1.851548812459617E-148
   24.0597000000000        -4.069222343608849E-148
   24.2991000000000        -6.686206680429860E-148
   24.5385000000000        -3.558297828454718E-148
   24.7779000000000         3.058711923796204E-147
   25.0173000000000         1.756837730246587E-146
   25.2567000000000         6.443422633279411E-146
   25.4961000000000         1.917907743169502E-145
   25.7355000000000         4.884777846415795E-145
   25.9749000000000         1.063571183496234E-144
   26.2143000000000         1.870376656992851E-144
   26.4537000000000         2.038723384310398E-144
   26.6931000000000        -2.067812927791096E-144
   26.9325000000000        -2.159277222769796E-143
   27.1719000000000        -8.497696706320759E-143
   27.4113000000000        -2.541692086836004E-142
   27.6507000000000        -6.410543084750474E-142
   27.8901000000000        -1.390723229959962E-141
   28.1295000000000        -2.524018261346674E-141
   28.3689000000000        -3.362688000307654E-141
   28.6083000000000        -9.365694784472766E-142
   28.8477000000000         1.371668965915933E-140
   29.0871000000000         6.285835354943934E-140
   29.3265000000000         1.937723462724756E-139
   29.5659000000000         4.910425293464577E-139
   29.8053000000000         1.070190719698633E-138
   30.0447000000000         1.994535505836822E-138
   30.2841000000000         2.974073660225273E-138
   30.5235000000000         2.556161885572968E-138
   30.7629000000000        -3.691744243502560E-138
   31.0023000000000        -2.666225810753588E-137
   31.2417000000000        -8.919555600515276E-137
   31.4811000000000        -2.320750840810190E-136
   31.7205000000000        -5.133680020894497E-136
   31.9599000000000        -9.803234946860476E-136
   32.1993000000000        -1.565423667230684E-135
   32.4387000000000        -1.810961303846807E-135
   32.6781000000000        -2.631690406125366E-136
   32.9175000000000         6.667735580124588E-135
   33.1569000000000         2.649812462242430E-134
   33.3963000000000         7.273523653408390E-134
   33.6357000000000         1.653823208415970E-133
   33.8751000000000         3.246811912287642E-133
   34.1145000000000         5.462949551850310E-133
   34.3539000000000         7.352150199397529E-133
   34.5933000000000         5.613686536558188E-133
   34.8327000000000        -8.104551841921474E-133
   35.0721000000000        -5.147779725559527E-132
   35.3115000000000        -1.567202796834782E-131
   35.5509000000000        -3.733902972137527E-131
   35.7903000000000        -7.592615385045731E-131
   36.0297000000000        -1.337952887669583E-130
   36.2691000000000        -1.982878326726931E-130
   36.5085000000000        -2.162207837317844E-130
   36.7479000000000        -4.603471896039560E-131
   36.9873000000000         6.188614774551350E-130
   37.2267000000000         2.348622322510311E-129
   37.4661000000000         6.051641407733887E-129
   37.7055000000000         1.289306708864624E-128
   37.9449000000000         2.376200921879408E-128
   38.1843000000000         3.773128493495605E-128
   38.4237000000000         4.861452748126056E-128
   38.6631000000000         3.844627843769234E-128
   38.9025000000000        -3.311726260359404E-128
   39.1419000000000        -2.430053383699838E-127
   39.3813000000000        -7.177475423977399E-127
   39.6207000000000        -1.630907854224105E-126
   39.8601000000000        -3.152711909055357E-126
   40.0995000000000        -5.291317276731406E-126
   40.3389000000000        -7.528347341680849E-126
   40.5783000000000        -8.119269452539453E-126
   40.8177000000000        -2.938758872425539E-126
   41.0571000000000         1.611967726726462E-125
   41.2965000000000         6.279303628022629E-125
   41.5359000000000         1.568948171858792E-124
   41.7753000000000         3.207277721381754E-124
   42.0147000000000         5.661479603990013E-124
   42.2541000000000         8.637307471102309E-124
   42.4935000000000         1.082554492436830E-123
   42.7329000000000         8.893132459653811E-124
   42.9723000000000        -3.953494867393558E-124
   43.2117000000000        -3.957052670722470E-123
   43.4511000000000        -1.157569537666668E-122
   43.6905000000000        -2.543811306601791E-122
   43.9299000000000        -4.729319187924912E-122
   44.1693000000000        -7.633437494230471E-122
   44.4087000000000        -1.049761794970296E-121
   44.6481000000000        -1.116683411727485E-121
   44.8875000000000        -5.042877948789354E-122
   45.1269000000000         1.615046681780313E-121
   45.3663000000000         6.527091151851131E-121
   45.6057000000000         1.591198015306607E-120
   45.8451000000000         3.139792861874454E-120
   46.0845000000000         5.336448505132423E-120
   46.3239000000000         7.849309857615945E-120
   46.5633000000000         9.553095671626209E-120
   46.8027000000000         7.899670973602911E-120
   47.0421000000000        -1.856667854262134E-120
   47.2815000000000        -2.732450657683073E-119
   47.5209000000000        -7.892480479951991E-119
   47.7603000000000        -1.679741953862247E-118
   47.9997000000000        -3.010448691862750E-118
   48.2391000000000        -4.680502186213339E-118
   48.4785000000000        -6.212704987366744E-118
   48.7179000000000        -6.436203136018225E-118
   48.9573000000000        -3.082788611399815E-118
   49.1967000000000         7.596948219189254E-118
   49.4361000000000         3.093793026666015E-117
   49.6755000000000         7.318950050029275E-117
   49.9149000000000         1.392665892884693E-116
   50.1543000000000         2.278157977520325E-116
   50.3937000000000         3.223631031482041E-116
   50.6331000000000         3.777008405432150E-116
   50.8725000000000         3.021202270426684E-116
   51.1119000000000        -6.066407162625289E-117
   51.3513000000000        -9.402234742798417E-116
   51.5907000000000        -2.620167343941784E-115
   51.8301000000000        -5.360819424289859E-115
   52.0695000000000        -9.222166558082108E-115
   52.3089000000000        -1.374016229190907E-114
   52.5483000000000        -1.742217112774847E-114
   52.7877000000000        -1.707636243128414E-114
   53.0271000000000        -7.099571054086304E-115
   53.2665000000000         2.095581707077855E-114
   53.5059000000000         7.791795314354883E-114
   53.7453000000000         1.746356242228977E-113
   53.9847000000000         3.163449939072585E-113
   54.2241000000000         4.922109127398738E-113
   54.4635000000000         6.588854805589441E-113
   54.7029000000000         7.184511018047478E-113
   54.9423000000000         4.944935712024089E-113
   55.1817000000000        -2.839860213356375E-113
   55.4211000000000        -1.972190659385913E-112
   55.6605000000000        -4.942815531849871E-112
   55.8999000000000        -9.422267333533484E-112
   56.1393000000000        -1.518453013780651E-111
   56.3787000000000        -2.106970826329069E-111
   56.6181000000000        -2.433913540569712E-111
   56.8575000000000        -1.997591487804123E-111
   57.0969000000000        -2.074904047704761E-113
   57.3363000000000         4.522746348772269E-111
   57.5757000000000         1.272443417332465E-110
   57.8151000000000         2.529085191615851E-110
   58.0545000000000         4.170723505408762E-110
   58.2939000000000         5.893505777652908E-110
   58.5333000000000         6.969031219196927E-110
   58.7727000000000         6.061420943795759E-110
   59.0121000000000         1.109374165000631E-110
   59.2515000000000        -1.058746344029025E-109
   59.4909000000000        -3.186313954426474E-109
   59.7303000000000        -6.448123595413429E-109
   59.9697000000000        -1.069416136482832E-108
   60.2091000000000        -1.511250070143188E-108
   60.4485000000000        -1.779493225128653E-108
   60.6879000000000        -1.529053644694334E-108
   60.9273000000000        -2.347579837536244E-109
   61.1667000000000         2.779798395918240E-108
   61.4061000000000         8.204792603495252E-108
   61.6455000000000         1.642948555685063E-107
   61.8849000000000         2.698165661975346E-107
   62.1243000000000         3.768506129230338E-107
   62.3637000000000         4.358830849240959E-107
   62.6031000000000         3.589222535816828E-107
   62.8425000000000         1.381452766267752E-108
   63.0819000000000        -7.675318740909730E-107
   63.3213000000000        -2.153856939783603E-106
   63.5607000000000        -4.235657056377070E-106
   63.8001000000000        -6.886349551930453E-106
   64.0395000000000        -9.555099277685184E-106
   64.2789000000000        -1.100423702964079E-105
   64.5183000000000        -9.045123610726144E-106
   64.7577000000000        -3.915775710737274E-107
   64.9971000000000         1.916099499488038E-105
   65.2365000000000         5.392169164261232E-105
   65.4759000000000         1.064643956098317E-104
   65.7153000000000         1.743666619132425E-104
   65.9547000000000         2.452965146214004E-104
   66.1941000000000         2.906750866050430E-104
   66.4335000000000         2.590350331234680E-104
   66.6729000000000         7.163260180386267E-105
   66.9123000000000        -3.751379513621145E-104
   67.1517000000000        -1.193655899626566E-103
   67.3911000000000        -2.466394914698135E-103
   67.6305000000000        -4.175148896832970E-103
   67.8699000000000        -6.091416528700168E-103
   68.1093000000000        -7.629903385816295E-103
   68.3487000000000        -7.684779054217862E-103
   68.5881000000000        -4.497657747225581E-103
   68.8275000000000         4.351886336450527E-103
   69.0669000000000         2.169139226637561E-102
   69.3063000000000         5.004461756646103E-102
   69.5457000000000         9.024639873026176E-102
   69.7851000000000         1.391969594831957E-101
   70.0245000000000         1.867108862061179E-101
   70.2639000000000         2.117291669615608E-101
   70.5033000000000         1.787084003947014E-101
   70.7427000000000         3.581418034369252E-102
   70.9821000000000        -2.824068560212144E-101
   71.2215000000000        -8.440775469264279E-101
   71.4609000000000        -1.696116490083971E-100
   71.7003000000000        -2.822838010986415E-100
   71.9397000000000        -4.084279755491892E-100
   72.1791000000000        -5.136364133473593E-100
   72.4185000000000        -5.344127939540754E-100
   72.6579000000000        -3.713650752828739E-100
   72.8973000000000         1.111979375109176E-100
   73.1367000000000         1.072418904904429E-099
   73.3761000000000         2.659796001781557E-099
   73.6155000000000         4.941814686240998E-099
   73.8549000000000         7.799894630374230E-099
   74.0943000000000         1.077756607666039E-098
   74.3337000000000         1.289827863888972E-098
   74.5731000000000         1.248619836157371E-098
   74.8125000000000         7.057956277904742E-099
   75.0519000000000        -6.603864772586347E-099
   75.2913000000000        -3.203881182913160E-098
   75.5307000000000        -7.216577263567257E-098
   75.7701000000000        -1.276138999245663E-097
   76.0095000000000        -1.941947584740968E-097
   76.2489000000000        -2.595542869513762E-097
   76.4883000000000        -2.993678902298990E-097
   76.7277000000000        -2.739564166957465E-097
   76.9671000000000        -1.269101878491783E-097
   77.2065000000000         2.118440404935128E-097
   77.4459000000000         8.152702503304166E-097
   77.6853000000000         1.736974289839783E-096
   77.9247000000000         2.973999434858801E-096
   78.1641000000000         4.412932373293454E-096
   78.4035000000000         5.761570044169298E-096
   78.6429000000000         6.475388105836511E-096
   78.8823000000000         5.698526248463156E-096
   79.1217000000000         2.252727729266827E-096
   79.3611000000000        -5.276890415246585E-096
   79.6005000000000        -1.829671237582544E-095
   79.8399000000000        -3.773190504421105E-095
   80.0793000000000        -6.326924951003495E-095
   80.3187000000000        -9.229908748077944E-095
   80.5581000000000        -1.186227615697098E-094
   80.7975000000000        -1.311288504428550E-094
   81.0369000000000        -1.128373573248954E-094
   81.2763000000000        -4.095602832808647E-095
   81.5157000000000         1.111471119615802E-094
   81.7551000000000         3.689457029565018E-094
   81.9945000000000         7.475856903063527E-094
   82.2339000000000         1.237692764158587E-093
   82.4733000000000         1.786128858036493E-093
   82.7127000000000         2.273233415071050E-093
   82.9521000000000         2.490548259632451E-093
   83.1915000000000         2.126407297044349E-093
   83.4309000000000         7.708245809064134E-094
   83.6703000000000        -2.044836314482549E-093
   83.9097000000000        -6.755134703532053E-093
   84.1491000000000        -1.359689441370531E-092
   84.3885000000000        -2.236297097251494E-092
   84.6279000000000        -3.207694178899555E-092
   84.8673000000000        -4.061926920283308E-092
   85.1067000000000        -4.437637613340074E-092
   85.3461000000000        -3.803817030136999E-092
   85.5855000000000        -1.473171757798095E-092
   85.8249000000000         3.326286190002376E-092
   86.0643000000000         1.129342354372663E-091
   86.3037000000000         2.278403089511293E-091
   86.5431000000000         3.741433393699293E-091
   86.7825000000000         5.354891882711058E-091
   87.0219000000000         6.772712175282137E-091
   87.2613000000000         7.414473113220725E-091
   87.5007000000000         6.438809717745569E-091
   87.7401000000000         2.770627748568811E-091
   87.9795000000000        -4.781530396906656E-091
   88.2189000000000        -1.727802000641467E-090
   88.4583000000000        -3.523557120189590E-090
   88.6977000000000        -5.803379358089943E-090
   88.9371000000000        -8.316366547973481E-090
   89.1765000000000        -1.054043691641764E-089
   89.4159000000000        -1.161042068120542E-089
   89.6553000000000        -1.028518860060806E-089
   89.8947000000000        -4.994167908581129E-090
   90.1341000000000         5.986787906166783E-090
   90.3735000000000         2.417703356180504E-089
   90.6129000000000         5.030628488999820E-089
   90.8523000000000         8.348779223242692E-089
   91.0917000000000         1.201888700706544E-088
   91.3311000000000         1.531243972423138E-088
   91.5705000000000         1.703169526723110E-088
   91.8099000000000         1.547089362788895E-088
   92.0493000000000         8.485660181473668E-089
   92.2887000000000        -6.265373329319719E-089
   92.5281000000000        -3.084065963811268E-088
   92.7675000000000        -6.624570296689449E-088
   93.0069000000000        -1.113599011587272E-087
   93.2463000000000        -1.616185742387598E-087
   93.4857000000000        -2.076172817573284E-087
   93.7251000000000        -2.339504890108378E-087
   93.9645000000000        -2.187658968949498E-087
   94.2039000000000        -1.346823667831881E-087
   94.4433000000000         4.816241460961934E-088
   94.6827000000000         3.561646712388215E-087
   94.9221000000000         8.028322657946786E-087
   95.1615000000000         1.375796545893026E-086
   95.4009000000000         2.021024186088040E-086
   95.6403000000000         2.626268020819947E-086
   95.8797000000000         3.007453387525263E-086
   96.1191000000000         2.903585250385086E-086
   96.3585000000000         1.987561621301700E-086
   96.5979000000000        -9.852984041388766E-088
   96.8373000000000        -3.675200147925724E-086
   97.0767000000000        -8.918374487641700E-086
   97.3161000000000        -1.571272669972967E-085
   97.5555000000000        -2.347454737080568E-085
   97.7949000000000        -3.096700509042647E-085
   98.0343000000000        -3.614833583250364E-085
   98.2737000000000        -3.611322504900645E-085
   98.5131000000000        -2.720594791638711E-085
   98.7525000000000        -5.395235139506751E-086
   98.9919000000000         3.300209861348921E-085
   99.2313000000000         9.018786406388908E-085
   99.4707000000000         1.653370887085719E-084
   99.7101000000000         2.527360409361973E-084
   99.9495000000000         3.398392558058079E-084
   100.188900000000         4.056570831575780E-084
   100.428300000000         4.200784959615251E-084
   100.667700000000         3.449094774228456E-084
   100.907100000000         1.375120265471841E-084
   101.146500000000        -2.421079041970380E-084
   101.385900000000        -8.201756654797757E-084
   101.625300000000        -1.593964555197801E-083
   101.864700000000        -2.513465802290223E-083
   102.104100000000        -3.462140514523926E-083
   102.343500000000        -4.240617374299378E-083
   102.582900000000        -4.558974934552947E-083
   102.822300000000        -4.044840385544560E-083
   103.061700000000        -2.275468356420109E-083
   103.301100000000         1.158389088289284E-083
   103.540500000000         6.551357719379085E-083
   103.779900000000         1.394463185421357E-082
   104.019300000000         2.295727195339974E-082
   104.258700000000         3.260689431450241E-082
   104.498100000000         4.115320485499647E-082
   104.737500000000         4.601311281882802E-082
   104.976900000000         4.380983125114360E-082
   105.216300000000         3.062644299268621E-082
   105.455700000000         2.531790133717267E-083
   105.695100000000        -4.357248922681503E-082
   105.934500000000        -1.087758532174626E-081
   106.173900000000        -1.907123577063469E-081
   106.413300000000        -2.819952186418899E-081
   106.652700000000        -3.687978963817606E-081
   106.892100000000        -4.299701080048634E-081
   107.131500000000        -4.371878809626504E-081
   107.370900000000        -3.567047706862473E-081
   107.610300000000        -1.532582656657720E-081
   107.849700000000         2.034514003391852E-081
   108.089100000000         7.295934043072634E-081
   108.328500000000         1.415725015606678E-080
   108.567900000000         2.214059194438327E-080
   108.807300000000         3.026389425559747E-080
   109.046700000000         3.695497750903561E-080
   109.286100000000         4.003712745111555E-080
   109.525500000000         3.682836631757902E-080
   109.764900000000         2.439660859136996E-080
   110.004300000000         4.470038660001950E-084
   110.243700000000        -3.824206683577052E-080
   110.483100000000        -9.055952547935578E-080
   110.722500000000        -1.545316489346728E-079
   110.961900000000        -2.241542862039397E-079
   111.201300000000        -2.890644912377855E-079
   111.440700000000        -3.341970466289506E-079
   111.680100000000        -3.401542377200107E-079
   111.919500000000        -2.845846150743118E-079
   112.158900000000        -1.448260354176885E-079
   112.398300000000         9.803908721979590E-080
   112.637700000000         4.537545087834081E-079
   112.877100000000         9.163927923619027E-079
   113.116500000000         1.457434544289403E-078
   113.355900000000         2.019450738643018E-078
   113.595300000000         2.511791780106614E-078
   113.834700000000         2.809992338471869E-078
   114.074100000000         2.760751822418790E-078
   114.313500000000         2.194256259097824E-078
   114.552900000000         9.451825834842001E-079
   114.792300000000        -1.117094365693281E-078
   115.031700000000        -4.049815738328556E-078
   115.271100000000        -7.792036498120678E-078
   115.510500000000        -1.211800993666460E-077
   115.749900000000        -1.659513322474412E-077
   115.989300000000        -2.055479504831587E-077
   116.228700000000        -2.308603897985798E-077
   116.468100000000        -2.306281905721832E-077
   116.707500000000        -1.921546653539999E-077
   116.946900000000        -1.025553356182622E-077
   117.186300000000         4.939790375370454E-078
   117.425700000000         2.708214696713206E-077
   117.665100000000         5.617029576568812E-077
   117.904500000000         9.114560555421692E-077
   118.143900000000         1.295287942100796E-076
   118.383300000000         1.670751438330976E-076
   118.622700000000         1.975014942233390E-076
   118.862100000000         2.123575153930153E-076
   119.101500000000         2.011357846241893E-076
   119.340900000000         1.517386099568955E-076
   119.580300000000         5.144092306835956E-077
   119.819700000000        -1.114984979610944E-076
   120.059100000000        -3.454310377467539E-076
   120.298500000000        -6.520103723912975E-076
   120.537900000000        -1.021967237414842E-075
   120.777300000000        -1.430116303549041E-075
   121.016700000000        -1.830002191179473E-075
   121.256100000000        -2.148952930969956E-075
   121.495500000000        -2.284767933328127E-075
   121.734900000000        -2.105788866530045E-075
   121.974300000000        -1.456610090113163E-075
   122.213700000000        -1.720535943539184E-076
   122.453100000000         1.897921231089770E-075
   122.692500000000         4.850214041933533E-075
   122.931900000000         8.676658914625174E-075
   123.171300000000         1.319975474790611E-074
   123.410700000000         1.800127479359963E-074
   123.650100000000         2.235387595579638E-074
   123.889500000000         2.517169939412259E-074
   124.128900000000         2.500213302079146E-074
   124.368300000000         2.008623946697256E-074
   124.607700000000         8.518152338984636E-075
   124.847100000000        -1.146816626158906E-074
   125.086500000000        -4.106551470182825E-074
   125.325900000000        -8.031281790236968E-074
   125.565300000000        -1.273968695237508E-073
   125.804700000000        -1.779081248646922E-073
   126.044100000000        -2.241744029619637E-073
   126.283500000000        -2.548536533309283E-073
   126.522900000000        -2.550203705782156E-073
   126.762300000000        -2.070164337228577E-073
   127.001700000000        -9.233866495105926E-074
   127.241100000000         1.052179362611543E-073
   127.480500000000         3.950707829465903E-073
   127.719900000000         7.741433640227817E-073
   127.959300000000         1.220388757248106E-072
   128.198700000000         1.686395148077878E-072
   128.438100000000         2.094385421454376E-072
   128.677500000000         2.334374599972056E-072
   128.916900000000         2.267597004144454E-072
   129.156300000000         1.737433088081888E-072
   129.395700000000         5.898053362518010E-073
   129.635100000000        -1.295779409697462E-072
   129.874500000000        -3.964815851387048E-072
   130.113900000000        -7.338466791591005E-072
   130.353300000000        -1.116162291396358E-071
   130.592700000000        -1.495700957093577E-071
   130.832100000000        -1.799741473087562E-071
   131.071500000000        -1.931098393186854E-071
   131.310900000000        -1.773600387101607E-071
   131.550300000000        -1.204066242444696E-071
   131.789700000000        -1.118862107399227E-072
   132.029100000000         1.573566386552311E-071
   132.268500000000         3.848849369195105E-071
   132.507900000000         6.598715980586895E-071
   132.747300000000         9.559998282844580E-071
   132.986700000000         1.229476117795655E-070
   133.226100000000         1.418251304527112E-070
   133.465500000000         1.444261375212607E-070
   133.704900000000         1.219794724581684E-070
   133.944300000000         6.588724538327559E-071
   134.183700000000        -3.059688630837328E-071
   134.423100000000        -1.701920152217828E-070
   134.662500000000        -3.490739156595413E-070
   134.901900000000        -5.543168985109586E-070
   135.141300000000        -7.617468451801049E-070
   135.380700000000        -9.348050988865773E-070
   135.620100000000        -1.025129269872731E-069
   135.859500000000        -9.755840921851573E-070
   136.098900000000        -7.263798664844894E-070
   136.338300000000        -2.246563335393971E-070
   136.577700000000         5.625447108341344E-070
   136.817100000000         1.632653457830414E-069
   137.056500000000         2.930867080133746E-069
   137.295900000000         4.334890440444646E-069
   137.535300000000         5.644587700780921E-069
   137.774700000000         6.580763317746726E-069
   138.014100000000         6.797631106278751E-069
   138.253500000000         5.913200933910923E-069
   138.492900000000         3.560560561757695E-069
   138.732300000000        -5.393482520430556E-070