  -1.79550000000000         0.000000000000000E+000
  -1.55610000000000         0.000000000000000E+000
  -1.31670000000000         0.000000000000000E+000
  -1.07730000000000         0.000000000000000E+000
 -0.837900000000000         0.000000000000000E+000
 -0.598500000000000         0.000000000000000E+000
 -0.359100000000000         0.000000000000000E+000
 -0.119700000000000         0.000000000000000E+000
  0.119700000000000         0.000000000000000E+000
  0.359100000000000         0.000000000000000E+000
  0.598500000000000         0.000000000000000E+000
  0.837900000000000         0.000000000000000E+000
   1.07730000000000         0.000000000000000E+000
   1.31670000000000         0.000000000000000E+000
   1.55610000000000         0.000000000000000E+000
   1.79550000000000         0.000000000000000E+000
   2.03490000000000         0.000000000000000E+000
   2.27430000000000         0.000000000000000E+000
   2.51370000000000         0.000000000000000E+000
   2.75310000000000         0.000000000000000E+000
   2.99250000000000         0.000000000000000E+000
   3.23190000000000         0.000000000000000E+000
   3.47130000000000         0.000000000000000E+000
   3.71070000000000         0.000000000000000E+000
   3.95010000000000         0.000000000000000E+000
   4.18950000000000         0.000000000000000E+000
   4.42890000000000         0.000000000000000E+000
   4.66830000000000         0.000000000000000E+000
   4.90770000000000         0.000000000000000E+000
   5.14710000000000         0.000000000000000E+000
   5.38650000000000         0.000000000000000E+000
   5.62590000000000         0.000000000000000E+000
   5.86530000000000         0.000000000000000E+000
   6.10470000000000         0.000000000000000E+000
   6.34410000000000         0.000000000000000E+000
   6.58350000000000         0.000000000000000E+000
   6.82290000000000         0.000000000000000E+000
   7.06230000000000         0.000000000000000E+000
   7.30170000000000         0.000000000000000E+000
   7.54110000000000         0.000000000000000E+000
   7.78050000000000         0.000000000000000E+000
   8.01990000000000         0.000000000000000E+000
   8.25930000000000         0.000000000000000E+000
   8.49870000000000         0.000000000000000E+000
   8.73810000000000         0.000000000000000E+000
   8.97750000000000         0.000000000000000E+000
   9.21690000000000         0.000000000000000E+000
   9.45630000000000         0.000000000000000E+000
   9.69570000000000         0.000000000000000E+000
   9.93510000000000         3.968331768946578E-200
   10.1745000000000        -1.958122647982252E-194
   10.4139000000000        -2.107606615645877E-192
   10.6533000000000         7.714615928332791E-190
   10.8927000000000        -3.954749798245304E-188
   11.1321000000000        -4.125488724202107E-186
   11.3715000000000        -1.393468214443800E-184
   11.6109000000000        -2.689398523457164E-183
   11.8503000000000        -3.211762952893941E-182
   12.0897000000000        -1.822179033050187E-181
   12.3291000000000         1.558151212562787E-180
   12.5685000000000         5.652289239696857E-179
   12.8079000000000         8.672273253369218E-178
   13.0473000000000         9.492513644149858E-177
   13.2867000000000         8.185681109768034E-176
   13.5261000000000         5.695922354053815E-175
   13.7655000000000         3.122596018516570E-174
   14.0049000000000         1.181486457428404E-173
   14.2443000000000         7.110335458582490E-174
   14.4837000000000        -3.663787707696853E-172
   14.7231000000000        -4.098309004271010E-171
   14.9625000000000        -2.968563590315863E-170
   15.2019000000000        -1.668713209765525E-169
   15.4413000000000        -7.403042229668907E-169
   15.6807000000000        -2.347326352099362E-168
   15.9201000000000        -2.239045128866636E-168
   16.1595000000000         3.702844615041235E-167
   16.3989000000000         3.657147563302904E-166
   16.6383000000000         2.215009973599111E-165
   16.8777000000000         1.019086010222995E-164
   17.1171000000000         3.533672671258026E-164
   17.3565000000000         7.003897152611793E-164
   17.5959000000000        -1.752305805553516E-163
   17.8353000000000        -2.873881761364856E-162
   18.0747000000000        -1.972002186688241E-161
   18.3141000000000        -1.022637330920900E-160
   18.5535000000000        -4.421910906769516E-160
   18.7929000000000        -1.628824499289923E-159
   19.0323000000000        -5.004993358637343E-159
   19.2717000000000        -1.158534503265495E-158
   19.5111000000000        -1.034448588853346E-158
   19.7505000000000         8.375247264762996E-158
   19.9899000000000         6.807762529998938E-157
   20.2293000000000         3.354930290935101E-156
   20.4687000000000         1.314362494100551E-155
   20.7081000000000         4.319594398300237E-155
   20.9475000000000         1.178234476537696E-154
   21.1869000000000         2.418003892101093E-154
   21.4263000000000         1.901351057523750E-154
   21.6657000000000        -1.398634663977531E-153
   21.9051000000000        -1.015315107401409E-152
   22.1445000000000        -4.505520292018602E-152
   22.3839000000000        -1.603162441931329E-151
   22.6233000000000        -4.848212193055443E-151
   22.8627000000000        -1.247880413026680E-150
   23.1021000000000        -2.591036178221908E-150
   23.3415000000000        -3.386657401324261E-150
   23.5809000000000         3.342417429816529E-150
   23.8203000000000         4.459263112134413E-149
   24.0597000000000         2.041273722570881E-148
   24.2991000000000         7.009858287629897E-148
   24.5385000000000         2.011573625724187E-147
   24.7779000000000         4.912643218989356E-147
   25.0173000000000         9.852387874745704E-147
   25.2567000000000         1.367956437203607E-146
   25.4961000000000        -1.586224507080865E-147
   25.7355000000000        -9.991174430437599E-146
   25.9749000000000        -4.638133549360344E-145
   26.2143000000000        -1.532272373329094E-144
   26.4537000000000        -4.182513405953544E-144
   26.6931000000000        -9.719656162919069E-144
   26.9325000000000        -1.876174743183319E-143
   27.1719000000000        -2.638594008272521E-143
   27.4113000000000        -7.253397161912728E-144
   27.6507000000000         1.217308447811651E-142
   27.8901000000000         5.801451855451817E-142
   28.1295000000000         1.857725349861817E-141
   28.3689000000000         4.860513617329463E-141
   28.6083000000000         1.082288812490773E-140
   28.8477000000000         2.018413811126212E-140
   29.0871000000000         2.838380819423832E-140
   29.3265000000000         1.421657489538252E-140
   29.5659000000000        -8.688831822351826E-140
   29.8053000000000        -4.343331916621900E-139
   30.0447000000000        -1.360882723043348E-138
   30.2841000000000        -3.442172523133672E-138
   30.5235000000000        -7.404514341674640E-138
   30.7629000000000        -1.343875077035043E-137
   31.0023000000000        -1.892862490842722E-137
   31.2417000000000        -1.268806219834655E-137
   31.4811000000000         3.724881790417808E-137
   31.7205000000000         2.052884992885484E-136
   31.9599000000000         6.380930680040654E-136
   32.1993000000000         1.574904694313333E-135
   32.4387000000000         3.297599244184320E-135
   32.6781000000000         5.856833080071354E-135
   32.9175000000000         8.253398403849526E-135
   33.1569000000000         6.513636206586632E-135
   33.3963000000000        -1.011344319519369E-134
   33.6357000000000        -6.542922264486538E-134
   33.8751000000000        -2.041415708851145E-133
   34.1145000000000        -4.957859411827880E-133
   34.3539000000000        -1.018254533755482E-132
   34.5933000000000        -1.783004994816778E-132
   34.8327000000000        -2.528844563493237E-132
   35.0721000000000        -2.266702636797837E-132
   35.3115000000000         1.569122812180903E-132
   35.5509000000000         1.443970700205798E-131
   35.7903000000000         4.623191321327687E-131
   36.0297000000000         1.118234338110410E-130
   36.2691000000000         2.275176364017326E-130
   36.5085000000000         3.965734540625294E-130
   36.7479000000000         5.716145841009426E-130
   36.9873000000000         5.756122044895417E-130
   37.2267000000000        -3.891236999894204E-131
   37.4661000000000        -2.199042234794735E-129
   37.7055000000000        -7.542174301386260E-129
   37.9449000000000        -1.848820030582895E-128
   38.1843000000000        -3.770407051796294E-128
   38.4237000000000        -6.605335038726276E-128
   38.6631000000000        -9.747935537706634E-128
   38.9025000000000        -1.086238252284618E-127
   39.1419000000000        -4.092128164024215E-128
   39.3813000000000         2.252311383255116E-127
   39.6207000000000         8.983452860436384E-127
   39.8601000000000         2.285219813990443E-126
   40.0995000000000         4.733259876789262E-126
   40.3389000000000         8.411747320366885E-126
   40.5783000000000         1.277758046167706E-125
   40.8177000000000         1.551503035220028E-125
   41.0571000000000         1.074289009899829E-125
   41.2965000000000        -1.353692513393487E-125
   41.5359000000000        -7.821111205673433E-125
   41.7753000000000        -2.142536378477790E-124
   42.0147000000000        -4.582478963372329E-124
   42.2541000000000        -8.345154126522545E-124
   42.4935000000000        -1.311486993373772E-123
   42.7329000000000        -1.715821480970802E-123
   42.9723000000000        -1.588205373690181E-123
   43.2117000000000         2.211500714999275E-125
   43.4511000000000         4.787460496590402E-123
   43.6905000000000         1.523427356813242E-122
   43.9299000000000         3.450204459910283E-122
   44.1693000000000         6.521684740593188E-122
   44.4087000000000         1.066689283968902E-121
   44.6481000000000         1.492162329039381E-121
   44.8875000000000         1.648345981248427E-121
   45.1269000000000         9.345836978717284E-122
   45.3663000000000        -1.730450507029076E-121
   45.6057000000000        -8.026985937723583E-121
   45.8451000000000        -2.016061173468021E-120
   46.0845000000000        -4.031915195944429E-120
   46.3239000000000        -6.921903065940990E-120
   46.5633000000000        -1.031469885793491E-119
   46.8027000000000        -1.288703066130269E-119
   47.0421000000000        -1.160884681627444E-119
   47.2815000000000        -8.075323773724264E-121
   47.5209000000000         2.867115679784365E-119
   47.7603000000000         8.954702071871746E-119
   47.9997000000000         1.961913626938345E-118
   48.2391000000000         3.587116058382254E-118
   48.4785000000000         5.702635182800021E-118
   48.7179000000000         7.844682706495186E-118
   48.9573000000000         8.806890604137156E-118
   49.1967000000000         6.183492544562946E-118
   49.4361000000000        -4.107114800904077E-118
   49.6755000000000        -2.808541624184392E-117
   49.9149000000000        -7.330317718379171E-117
   50.1543000000000        -1.470060961162842E-116
   50.3937000000000        -2.517770295769741E-116
   50.6331000000000        -3.773417019261642E-116
   50.8725000000000        -4.873499535735042E-116
   51.1119000000000        -5.008604514612058E-116
   51.3513000000000        -2.705575443578518E-116
   51.5907000000000         4.358649353978619E-116
   51.8301000000000         1.937564281724964E-115
   52.0695000000000         4.602002330313914E-115
   52.3089000000000         8.730371861943232E-115
   52.5483000000000         1.432066519000683E-114
   52.7877000000000         2.065914708060336E-114
   53.0271000000000         2.570701048962190E-114
   53.2665000000000         2.530021319896306E-114
   53.5059000000000         1.228739936126393E-114
   53.7453000000000        -2.408575599871594E-114
   53.9847000000000        -9.796462056908782E-114
   54.2241000000000        -2.249121948215857E-113
   54.4635000000000        -4.168604643286954E-113
   54.7029000000000        -6.723884436327726E-113
   54.9423000000000        -9.607600204581035E-113
   55.1817000000000        -1.198838060757180E-112
   55.4211000000000        -1.221777066023699E-112
   55.6605000000000        -7.518042341203458E-113
   55.8999000000000         6.250909336716451E-113
   56.1393000000000         3.456869222121601E-112
   56.3787000000000         8.369879330971476E-112
   56.6181000000000         1.592131408945693E-111
   56.8575000000000         2.631119762331255E-111
   57.0969000000000         3.890074551211634E-111
   57.3363000000000         5.149013890462859E-111
   57.5757000000000         5.933381587095256E-111
   57.8151000000000         5.392610725578399E-111
   58.0545000000000         2.168924106590608E-111
   58.2939000000000        -5.713937689726449E-111
   58.5333000000000        -2.088616098023331E-110
   58.7727000000000        -4.649499442006883E-110
   59.0121000000000        -8.573775676209034E-110
   59.2515000000000        -1.408175259690173E-109
   59.4909000000000        -2.109521774841877E-109
   59.7303000000000        -2.889189800988981E-109
   59.9697000000000        -3.554771273521620E-109
   60.2091000000000        -3.709725278355998E-109
   60.4485000000000        -2.636883054795220E-109
   60.6879000000000         8.458681657922425E-110
   60.9273000000000         8.531825937540509E-109
   61.1667000000000         2.290673858882856E-108
   61.4061000000000         4.702848783423139E-108
   61.6455000000000         8.396331222676972E-108
   61.8849000000000         1.353977834302024E-107
   62.1243000000000         1.988957096064462E-107
   62.3637000000000         2.631690470049797E-107
   62.6031000000000         3.008046530495756E-107
   62.8425000000000         2.583431629457080E-107
   63.0819000000000         4.475124517722301E-108
   63.3213000000000        -4.784436764401357E-107
   63.5607000000000        -1.498379820193348E-106
   63.8001000000000        -3.231070094087487E-106
   64.0395000000000        -5.861426039587810E-106
   64.2789000000000        -9.417117817360504E-106
   64.5183000000000        -1.354660674350007E-105
   64.7577000000000        -1.717687790862814E-105
   64.9971000000000        -1.804946991094041E-105
   65.2365000000000        -1.218659059742275E-105
   65.4759000000000         6.563578936108911E-106
   65.7153000000000         4.660018544721984E-105
   65.9547000000000         1.177491759192970E-104
   66.1941000000000         2.287912735110036E-104
   66.4335000000000         3.823646773621568E-104
   66.6729000000000         5.662102925870087E-104
   66.9123000000000         7.400408383352145E-104
   67.1517000000000         8.183102428066138E-104
   67.3911000000000         6.512217761310635E-104
   67.6305000000000         9.830210117574509E-106
   67.8699000000000        -1.413703569091083E-103
   68.1093000000000        -3.972956917320936E-103
   68.3487000000000        -7.976300892253389E-103
   68.5881000000000        -1.350809092432841E-102
   68.8275000000000        -2.013299994026188E-102
   69.0669000000000        -2.646849779052124E-102
   69.3063000000000        -2.964627510783150E-102
   69.5457000000000        -2.475106955767913E-102
   69.7851000000000        -4.433452570033632E-103
   70.0245000000000         4.095623259094229E-102
   70.2639000000000         1.221846496483381E-101
   70.5033000000000         2.482008026182980E-101
   70.7427000000000         4.206552763300843E-101
   70.9821000000000         6.251911093680834E-101
   71.2215000000000         8.193178402902579E-101
   71.4609000000000         9.177746508643670E-101
   71.7003000000000         7.782072201780969E-101
   71.9397000000000         1.928752963199500E-101
   72.1791000000000        -1.104083603321182E-100
   72.4185000000000        -3.400041656969823E-100
   72.6579000000000        -6.920498776523504E-100
   72.8973000000000        -1.168051429744371E-099
   73.1367000000000        -1.725723925284600E-099
   73.3761000000000        -2.248436167239658E-099
   73.6155000000000        -2.509837191055686E-099
   73.8549000000000        -2.141451477130391E-099
   74.0943000000000        -6.178979718326913E-100
   74.3337000000000         2.717036870630966E-099
   74.5731000000000         8.551293905518508E-099
   74.8125000000000         1.739368998903135E-098
   75.0519000000000         2.921316455268879E-098
   75.2913000000000         4.290441607303184E-098
   75.5307000000000         5.559316263066077E-098
   75.7701000000000         6.186288338238808E-098
   76.0095000000000         5.309236792268439E-098
   76.2489000000000         1.724047314889354E-098
   76.4883000000000        -6.041087720545561E-098
   76.7277000000000        -1.948751314064118E-097
   76.9671000000000        -3.966591670248622E-097
   77.2065000000000        -6.638241940147965E-097
   77.4459000000000        -9.705604359528360E-097
   77.6853000000000        -1.252759817652959E-096
   77.9247000000000        -1.392530320907283E-096
   78.1641000000000        -1.205783981109837E-096
   78.4035000000000        -4.399052389276735E-097
   78.6429000000000         1.208239906327972E-096
   78.8823000000000         4.040775706607216E-096
   79.1217000000000         8.259271076301727E-096
   79.3611000000000         1.380485216519034E-095
   79.6005000000000         2.013380946702342E-095
   79.8399000000000         2.594150780041108E-095
   80.0793000000000         2.887573707198162E-095
   80.3187000000000         2.532153310647963E-095
   80.5581000000000         1.039122940682288E-095
   80.7975000000000        -2.169063219277988E-095
   81.0369000000000        -7.657188502934479E-095
   81.2763000000000        -1.578782784272812E-094
   81.5157000000000        -2.642451197477204E-094
   81.7551000000000        -3.852424470468337E-094
   81.9945000000000        -4.964770611406188E-094
   82.2339000000000        -5.546608294567217E-094
   82.4733000000000        -4.941404163255036E-094
   82.7127000000000        -2.272450383559611E-094
   82.9521000000000         3.483038525598872E-094
   83.1915000000000         1.331013421372793E-093
   83.4309000000000         2.782318490861647E-093
   83.6703000000000         4.675524740409436E-093
   83.9097000000000         6.827098055484514E-093
   84.1491000000000         8.815815650966314E-093
   84.3885000000000         9.903656444382944E-093
   84.6279000000000         8.983599389576326E-093
   84.8673000000000         4.592807634514056E-093
   85.1067000000000        -4.957271200756646E-093
   85.3461000000000        -2.127365346672157E-092
   85.5855000000000        -4.533901769230763E-092
   85.8249000000000        -7.669552593608853E-092
   86.0643000000000        -1.123661727019776E-091
   86.3037000000000        -1.456103411444668E-091
   86.5431000000000        -1.647383773636913E-091
   86.7825000000000        -1.523777731887959E-091
   87.0219000000000        -8.577456523837351E-092
   87.2613000000000         6.110856388558949E-092
   87.5007000000000         3.128330885398483E-091
   87.7401000000000         6.842618145553979E-091
   87.9795000000000         1.168410762585827E-090
   88.2189000000000         1.720659352117192E-090
   88.4583000000000         2.240861697784434E-090
   88.6977000000000         2.556725284987492E-090
   88.9371000000000         2.414141318573361E-090
   89.1765000000000         1.482700218259288E-090
   89.4159000000000        -6.131274771470101E-091
   89.6553000000000        -4.225583236920550E-090
   89.8947000000000        -9.567713880552249E-090
   90.1341000000000        -1.654483045577927E-089
   90.3735000000000        -2.453872181677223E-089
   90.6129000000000        -3.216715976453045E-089
   90.8523000000000        -3.706535580236693E-089
   91.0917000000000        -3.576583715776342E-089
   91.3311000000000        -2.378488404364352E-089
   91.5705000000000         3.949984921529039E-090
   91.8099000000000         5.218711686821143E-089
   92.0493000000000         1.238296499374852E-088
   92.2887000000000         2.177542232680211E-088
   92.5281000000000         3.260548630598647E-088
   92.7675000000000         4.310142209762213E-088
   93.0069000000000         5.024012916497811E-088
   93.2463000000000         4.960519648248804E-088
   93.4857000000000         3.550559597235120E-088
   93.7251000000000         1.516142317039986E-089
   93.9645000000000        -5.839163622680567E-088
   94.2039000000000        -1.479906293609052E-087
   94.4433000000000        -2.661629796504730E-087
   94.6827000000000        -4.036063740158269E-087
   94.9221000000000        -5.392541743740294E-087
   95.1615000000000        -6.371222790000363E-087
   95.4009000000000        -6.446953067280318E-087
   95.6403000000000        -4.943630076096160E-087
   95.8797000000000        -1.097121810887177E-087
   96.1191000000000         5.814776047164027E-087
   96.3585000000000         1.626080375379628E-086
   96.5979000000000         3.015892996293486E-086
   96.8373000000000         4.650765848016539E-086
   97.0767000000000         6.298814287377950E-086
   97.3161000000000         7.561571965865053E-086
   97.5555000000000         7.856131005527684E-086
   97.7949000000000         6.430371745403737E-086
   98.0343000000000         2.430229554715480E-086
   98.2737000000000        -4.961937563262463E-086
   98.5131000000000        -1.630328576484508E-085
   98.7525000000000        -3.157715394614864E-085
   98.9919000000000        -4.980613995263777E-085
   99.2313000000000        -6.863551291059383E-085
   99.4707000000000        -8.396725821564904E-085
   99.7101000000000        -8.976611242638684E-085
   99.9495000000000        -7.819792757127670E-085
   100.188900000000        -4.028695610983842E-085
   100.428300000000         3.272230858862453E-085
   100.667700000000         1.471585680010173E-084
   100.907100000000         3.038400636231165E-084
   101.146500000000         4.942660767665362E-084
   101.385900000000         6.965028743441467E-084
   101.625300000000         8.715227900822300E-084
   101.864700000000         9.611336604000700E-084
   102.104100000000         8.889905029531507E-084
   102.343500000000         5.664155564816023E-084
   102.582900000000        -9.526196374056556E-085
   102.822300000000        -1.164549415437111E-083
   103.061700000000        -2.661486303951527E-083
   103.301100000000        -4.522496625598648E-083
   103.540500000000        -6.562048729986530E-083
   103.779900000000        -8.437733293411702E-083
   104.019300000000        -9.628652340616035E-083
   104.258700000000        -9.440079911226418E-083
   104.498100000000        -7.049399305383364E-083
   104.737500000000        -1.608282489136534E-083
   104.976900000000         7.587271192633536E-083
   105.216300000000         2.085529476799203E-082
   105.455700000000         3.782421001691701E-082
   105.695100000000         5.709588102145014E-082
   105.934500000000         7.592815263315537E-082
   106.173900000000         9.001643994940510E-082
   106.413300000000         9.347922856147909E-082
   106.652700000000         7.916992877418063E-082
   106.892100000000         3.943929968539555E-082
   107.131500000000        -3.255068758523172E-082
   107.370900000000        -1.409183753744020E-081
   107.610300000000        -2.846153957433230E-081
   107.849700000000        -4.546404680507120E-081
   108.089100000000        -6.312956173944093E-081
   108.328500000000        -7.820716362237836E-081
   108.567900000000        -8.609486117223782E-081
   108.807300000000        -8.100464695979884E-081
   109.046700000000        -5.646028205596098E-081
   109.286100000000        -6.212516496878337E-082
   109.525500000000         7.438044755428797E-081
   109.764900000000         1.865255963519859E-080
   110.004300000000         3.258370561914049E-080
   110.243700000000         4.800906964351763E-080
   110.483100000000         6.272818073950044E-080
   110.722500000000         7.345254337469393E-080
   110.961900000000         7.584628778363032E-080
   111.201300000000         6.479003515191425E-080
   111.440700000000         3.493639083557781E-080
   111.680100000000        -1.839361393773568E-080
   111.919500000000        -9.796176216939232E-080
   112.158900000000        -2.030594764888041E-079
   112.398300000000        -3.277785729002642E-079
   112.637700000000        -4.593319214072661E-079
   112.877100000000        -5.767559632530604E-079
   113.116500000000        -6.504268620374929E-079
   113.355900000000        -6.428955294164615E-079
   113.595300000000        -5.115686563797478E-079
   113.834700000000        -2.137048594514316E-079
   114.074100000000         2.859712304765421E-079
   114.313500000000         1.005032593834247E-078
   114.552900000000         1.930931467517296E-078
   114.792300000000         3.007427673516144E-078
   115.031700000000         4.121598738420906E-078
   115.271100000000         5.093936236879372E-078
   115.510500000000         5.674775060273913E-078
   115.749900000000         5.550889938289155E-078
   115.989300000000         4.366361805434708E-078
   116.228700000000         1.761568882320300E-078
   116.468100000000        -2.566823450392437E-078
   116.707500000000        -8.783931934545875E-078
   116.946900000000        -1.681491508967525E-077
   117.186300000000        -2.622988965225010E-077
   117.425700000000        -3.612756384340095E-077
   117.665100000000        -4.503630250533298E-077
   117.904500000000        -5.085858223068031E-077
   118.143900000000        -5.089178573369178E-077
   118.383300000000        -4.196372993243718E-077
   118.622700000000        -2.072341002441262E-077
   118.862100000000         1.587616629082273E-077
   119.101500000000         6.987826290946349E-077
   119.340900000000         1.414045660660104E-076
   119.580300000000         2.275556925568931E-076
   119.819700000000         3.212203015978674E-076
   120.059100000000         4.099527175315083E-076
   120.298500000000         4.751612662662510E-076
   120.537900000000         4.919366055244629E-076
   120.777300000000         4.299273624573584E-076
   121.016700000000         2.557185493682929E-076
   121.256100000000        -6.284154439476318E-077
   121.495500000000        -5.500220665839129E-076
   121.734900000000        -1.213184630896733E-075
   121.974300000000        -2.031632495357916E-075
   122.213700000000        -2.944190779187330E-075
   122.453100000000        -3.837132672122924E-075
   122.692500000000        -4.534963906492563E-075
   122.931900000000        -4.797518511144678E-075
   123.171300000000        -4.327640063697367E-075
   123.410700000000        -2.794187248656009E-075
   123.650100000000         1.250961064169806E-076
   123.889500000000         4.677522607161166E-075
   124.128900000000         1.094548193143113E-074
   124.368300000000         1.873606325103817E-074
   124.607700000000         2.745984199565083E-074
   124.847100000000         3.601604782379718E-074
   125.086500000000         4.271000500481938E-074
   125.325900000000         4.523728887369206E-074
   125.565300000000         4.077570174331928E-074
   125.804700000000         2.622853931536853E-074
   126.044100000000        -1.342205384622564E-075
   126.283500000000        -4.406916810161520E-074
   126.522900000000        -1.024241319456829E-073
   126.762300000000        -1.742014295507903E-073
   127.001700000000        -2.534455792924743E-073
   127.241100000000        -3.294976046415896E-073
   127.480500000000        -3.864078421497728E-073
   127.719900000000        -4.030287337684896E-073
   127.959300000000        -3.541422321658949E-073
   128.198700000000        -2.129717950448524E-073
   128.438100000000         4.464524850430657E-074
   128.677500000000         4.343159315602631E-073
   128.916900000000         9.555482303344836E-073
   129.156300000000         1.583166150150284E-072
   129.395700000000         2.258738017261355E-072
   129.635100000000         2.883629365223790E-072
   129.874500000000         3.315838048955984E-072
   130.113900000000         3.373196784818619E-072
   130.353300000000         2.845695465086568E-072
   130.592700000000         1.519416647791834E-072
   130.832100000000        -7.862781772687397E-073
   131.071500000000        -4.168273126395159E-072
   131.310900000000        -8.578320276037834E-072
   131.550300000000        -1.375637051717390E-071
   131.789700000000        -1.916805650584381E-071
   132.029100000000        -2.395981832005447E-071
   132.268500000000        -2.694879278402577E-071
   132.507900000000        -2.666693385473334E-071
   132.747300000000        -2.147883197064918E-071
   132.986700000000        -9.789195234197621E-072
   133.226100000000         9.652150939871606E-072
   133.465500000000         3.735340087963278E-071
   133.704900000000         7.261684424781738E-071
   133.944300000000         1.130568017755821E-070
   134.183700000000         1.541755754679590E-070
   134.423100000000         1.891006143217779E-070
   134.662500000000         2.086081193390954E-070
   134.901900000000         2.015690557424635E-070
   135.141300000000         1.559457601474491E-070
   135.380700000000         6.043358343843598E-071
   135.620100000000        -9.322415004598385E-071
   135.859500000000        -3.073220410922877E-070
   136.098900000000        -5.748917664433462E-070
   136.338300000000        -8.763939904897407E-070
   136.577700000000        -1.176963605881186E-069
   136.817100000000        -1.424939698250987E-069
   137.056500000000        -1.552538695345637E-069
   137.295900000000        -1.479570964401579E-069
   137.535300000000        -1.121011514053522E-069
   137.774700000000        -3.989691972566021E-070
   138.014100000000         7.408805704003565E-070
   138.253500000000         2.309044879249788E-069
   138.492900000000         4.249718703613640E-069
   138.732300000000         6.418716120369091E-069