  -1.79550000000000         0.000000000000000E+000
  -1.55610000000000         0.000000000000000E+000
  -1.31670000000000         0.000000000000000E+000
  -1.07730000000000         0.000000000000000E+000
 -0.837900000000000         0.000000000000000E+000
 -0.598500000000000         0.000000000000000E+000
 -0.359100000000000         0.000000000000000E+000
 -0.119700000000000         0.000000000000000E+000
  0.119700000000000         0.000000000000000E+000
  0.359100000000000         0.000000000000000E+000
  0.598500000000000         0.000000000000000E+000
  0.837900000000000         0.000000000000000E+000
   1.07730000000000         0.000000000000000E+000
   1.31670000000000         0.000000000000000E+000
   1.55610000000000         0.000000000000000E+000
   1.79550000000000         0.000000000000000E+000
   2.03490000000000         0.000000000000000E+000
   2.27430000000000         0.000000000000000E+000
   2.51370000000000         0.000000000000000E+000
   2.75310000000000         0.000000000000000E+000
   2.99250000000000         0.000000000000000E+000
   3.23190000000000         0.000000000000000E+000
   3.47130000000000         0.000000000000000E+000
   3.71070000000000         0.000000000000000E+000
   3.95010000000000         0.000000000000000E+000
   4.18950000000000         0.000000000000000E+000
   4.42890000000000         0.000000000000000E+000
   4.66830000000000         0.000000000000000E+000
   4.90770000000000         0.000000000000000E+000
   5.14710000000000         0.000000000000000E+000
   5.38650000000000         0.000000000000000E+000
   5.62590000000000         0.000000000000000E+000
   5.86530000000000         0.000000000000000E+000
   6.10470000000000         0.000000000000000E+000
   6.34410000000000         0.000000000000000E+000
   6.58350000000000         0.000000000000000E+000
   6.82290000000000         0.000000000000000E+000
   7.06230000000000         0.000000000000000E+000
   7.30170000000000         0.000000000000000E+000
   7.54110000000000         0.000000000000000E+000
   7.78050000000000         0.000000000000000E+000
   8.01990000000000         0.000000000000000E+000
   8.25930000000000         0.000000000000000E+000
   8.49870000000000         0.000000000000000E+000
   8.73810000000000         0.000000000000000E+000
   8.97750000000000         0.000000000000000E+000
   9.21690000000000         0.000000000000000E+000
   9.45630000000000         0.000000000000000E+000
   9.69570000000000         1.433286106787695E-197
   9.93510000000000        -4.662226546163141E-192
   10.1745000000000         2.507210862161214E-189
   10.4139000000000        -1.011178648563081E-186
   10.6533000000000        -7.841209180663836E-185
   10.8927000000000        -2.785746727074437E-183
   11.1321000000000        -6.271719931055623E-182
   11.3715000000000        -9.983815432576089E-181
   11.6109000000000        -1.161541267640651E-179
   11.8503000000000        -9.433587150014703E-179
   12.0897000000000        -3.695575624543028E-178
   12.3291000000000         3.436843847190593E-177
   12.5685000000000         9.301998328824283E-176
   12.8079000000000         1.222053704635624E-174
   13.0473000000000         1.205924617709178E-173
   13.2867000000000         9.817024012645069E-173
   13.5261000000000         6.814232410738157E-172
   13.7655000000000         4.064792092697402E-171
   14.0049000000000         2.053850928382090E-170
   14.2443000000000         8.294018132889935E-170
   14.4837000000000         2.104075888578771E-169
   14.7231000000000        -3.482591605707812E-169
   14.9625000000000        -9.259975419760674E-168
   15.2019000000000        -7.838094315531062E-167
   15.4413000000000        -4.905094448454913E-166
   15.6807000000000        -2.547832575946705E-165
   15.9201000000000        -1.130606259149346E-164
   16.1595000000000        -4.249468907920198E-164
   16.3989000000000        -1.276354938473162E-163
   16.6383000000000        -2.388306915443671E-163
   16.8777000000000         3.211375808619421E-163
   17.1171000000000         5.985062968919109E-162
   17.3565000000000         3.666973400615045E-161
   17.5959000000000         1.616835740436562E-160
   17.8353000000000         5.550972183274196E-160
   18.0747000000000         1.374279349176476E-159
   18.3141000000000         1.159470838630422E-159
   18.5535000000000        -1.206579426655272E-158
   18.7929000000000        -9.740899179401830E-158
   19.0323000000000        -4.811066521788934E-157
   19.2717000000000        -1.856423626547872E-156
   19.5111000000000        -5.788980300997636E-156
   19.7505000000000        -1.361965561165288E-155
   19.9899000000000        -1.485340155903535E-155
   20.2293000000000         7.168864012383903E-155
   20.4687000000000         6.266549024920373E-154
   20.7081000000000         3.071410482354683E-153
   20.9475000000000         1.188593134210578E-152
   21.1869000000000         3.898915982994292E-152
   21.4263000000000         1.095991856378204E-151
   21.6657000000000         2.554726177053170E-151
   21.9051000000000         4.284379125358535E-151
   22.1445000000000         9.987159367441796E-152
   22.3839000000000        -3.124734591138319E-150
   22.6233000000000        -1.746115911135435E-149
   22.8627000000000        -6.632869756926268E-149
   23.1021000000000        -2.055451585376557E-148
   23.3415000000000        -5.391914564503602E-148
   23.5809000000000        -1.172382547942554E-147
   23.8203000000000        -1.866364963063909E-147
   24.0597000000000        -6.967272080084959E-148
   24.2991000000000         1.002382939525809E-146
   24.5385000000000         5.412010291399911E-146
   24.7779000000000         1.935904170065231E-145
   25.0173000000000         5.645585638361182E-145
   25.2567000000000         1.404421296799290E-144
   25.4961000000000         2.954519100949139E-144
   25.7355000000000         4.857702396656237E-144
   25.9749000000000         4.042968648332783E-144
   26.2143000000000        -1.113998352500351E-143
   26.4537000000000        -7.458919924810360E-143
   26.6931000000000        -2.690243952230440E-142
   26.9325000000000        -7.652666115232870E-142
   27.1719000000000        -1.846164540857907E-141
   27.4113000000000        -3.798357948809894E-141
   27.6507000000000        -6.329940377493915E-141
   27.8901000000000        -6.693601692580776E-141
   28.1295000000000         5.140693777498085E-141
   28.3689000000000         5.696481981934374E-140
   28.6083000000000         2.133421240330399E-139
   28.8477000000000         6.017620763247823E-139
   29.0871000000000         1.426783486716588E-138
   29.3265000000000         2.902623279706955E-138
   29.5659000000000         4.918276045135701E-138
   29.8053000000000         6.023074181311216E-138
   30.0447000000000         9.630273164507834E-139
   30.2841000000000        -2.438304632789077E-137
   30.5235000000000        -1.017231597935107E-136
   30.7629000000000        -2.917801279681696E-136
   31.0023000000000        -6.903010804926471E-136
   31.2417000000000        -1.401900570457216E-135
   31.4811000000000        -2.415070500195150E-135
   31.7205000000000        -3.239485768657361E-135
   31.9599000000000        -2.061417117495038E-135
   32.1993000000000         5.924769734286129E-135
   32.4387000000000         3.129045636666154E-134
   32.6781000000000         9.392585399559277E-134
   32.9175000000000         2.250733423220157E-133
   33.1569000000000         4.607509247457243E-133
   33.3963000000000         8.097724887939281E-133
   33.6357000000000         1.162956578295747E-132
   33.8751000000000         1.087285422709862E-132
   34.1145000000000        -5.704476172599669E-133
   34.3539000000000        -6.329636941118031E-132
   34.5933000000000        -2.090260236298126E-131
   34.8327000000000        -5.174277771006835E-131
   35.0721000000000        -1.079509498722599E-130
   35.3115000000000        -1.944214740108269E-130
   35.5509000000000        -2.952264114765919E-130
   35.7903000000000        -3.364372150687733E-130
   36.0297000000000        -1.155668513604026E-130
   36.2691000000000         8.123831028183715E-130
   36.5085000000000         3.282346353046362E-129
   36.7479000000000         8.631822728014367E-129
   36.9873000000000         1.858001744544537E-128
   37.2267000000000         3.442988982077166E-128
   37.4661000000000         5.475968178048813E-128
   37.7055000000000         7.027308680423375E-128
   37.9449000000000         5.409537464543634E-128
   38.1843000000000        -5.384585750538762E-128
   38.4237000000000        -3.673115465821453E-127
   38.6631000000000        -1.071239990775432E-126
   38.9025000000000        -2.413520132919029E-126
   39.1419000000000        -4.621239262549412E-126
   39.3813000000000        -7.649625801460779E-126
   39.6207000000000        -1.061976409634655E-125
   39.8601000000000        -1.076209935945397E-125
   40.0995000000000        -1.717338062389961E-126
   40.3389000000000         2.872169204148709E-125
   40.5783000000000         1.007013616429773E-124
   40.8177000000000         2.421454213292953E-124
   41.0571000000000         4.818318923400030E-124
   41.2965000000000         8.275426433790422E-124
   41.5359000000000         1.216686488684871E-123
   41.7753000000000         1.423553894980589E-123
   42.0147000000000         9.101457076694066E-124
   42.2541000000000        -1.374206914261270E-123
   42.4935000000000        -7.189810222403114E-123
   42.7329000000000        -1.904338760841969E-122
   42.9723000000000        -3.973035574313073E-122
   43.2117000000000        -7.078646773507654E-122
   43.4511000000000        -1.089429048709046E-121
   43.6905000000000        -1.394578957118491E-121
   43.9299000000000        -1.253848951574214E-121
   44.1693000000000         6.968453372548183E-123
   44.4087000000000         3.829827087735703E-121
   44.6481000000000         1.185289235351219E-120
   44.8875000000000         2.629343582799065E-120
   45.1269000000000         4.872788336427904E-120
   45.3663000000000         7.804327951499689E-120
   45.6057000000000         1.064527697771218E-119
   45.8451000000000         1.130752243826852E-119
   46.0845000000000         5.517234139818197E-120
   46.3239000000000        -1.411694682391817E-119
   46.5633000000000        -5.857742574260713E-119
   46.8027000000000        -1.413816169817775E-118
   47.0421000000000        -2.741380723931722E-118
   47.2815000000000        -4.559655107575504E-118
   47.5209000000000        -6.534208740316312E-118
   47.7603000000000        -7.680940588268503E-118
   47.9997000000000        -5.921004759707787E-118
   48.2391000000000         2.405252430665622E-118
   48.4785000000000         2.283459715324803E-117
   48.7179000000000         6.241084250011495E-117
   48.9573000000000         1.278314539127452E-116
   49.1967000000000         2.209164867208720E-116
   49.4361000000000         3.299565431638426E-116
   49.6755000000000         4.157134439158314E-116
   49.9149000000000         3.920990110228701E-116
   50.1543000000000         1.046562544730037E-116
   50.3937000000000        -6.841380812299607E-116
   50.6331000000000        -2.284295235714557E-115
   50.8725000000000        -5.011199768573040E-115
   51.1119000000000        -9.016817733289425E-115
   51.3513000000000        -1.396530289466972E-114
   51.5907000000000        -1.850749490487098E-114
   51.8301000000000        -1.955415993067074E-114
   52.0695000000000        -1.145736452023115E-114
   52.3089000000000         1.458650277161094E-114
   52.5483000000000         7.027834017485466E-114
   52.7877000000000         1.680437288000967E-113
   53.0271000000000         3.154397541414631E-113
   53.2665000000000         5.043719705122148E-113
   53.5059000000000         6.936642463611433E-113
   53.7453000000000         7.850261026593917E-113
   53.9847000000000         5.959717790063870E-113
   54.2241000000000        -1.603729285191716E-113
   54.4635000000000        -1.868862956843280E-112
   54.7029000000000        -4.946980927816316E-112
   54.9423000000000        -9.675435838546999E-112
   55.1817000000000        -1.587310390834071E-111
   55.4211000000000        -2.237598023207704E-111
   55.6605000000000        -2.632637932236001E-111
   55.8999000000000        -2.238279845027168E-111
   56.1393000000000        -2.144656426836295E-112
   56.3787000000000         4.564025950209952E-111
   56.6181000000000         1.331762933870167E-110
   56.8575000000000         2.687937461590288E-110
   57.0969000000000         4.478358493564462E-110
   57.3363000000000         6.382903156148279E-110
   57.5757000000000         7.615686944808194E-110
   57.8151000000000         6.717513281769006E-110
   58.0545000000000         1.415819527432340E-110
   58.2939000000000        -1.129349464408941E-109
   58.5333000000000        -3.460223443852578E-109
   58.7727000000000        -7.056831202543327E-109
   59.0121000000000        -1.176847511862320E-108
   59.2515000000000        -1.671339044262633E-108
   59.4909000000000        -1.979053088355649E-108
   59.7303000000000        -1.717305182386366E-108
   59.9697000000000        -3.006359661139002E-109
   60.2091000000000         3.028854136784647E-108
   60.4485000000000         9.050102550650237E-108
   60.6879000000000         1.821345483777652E-107
   60.9273000000000         3.001552751851705E-107
   61.1667000000000         4.205790562289087E-107
   61.4061000000000         4.884982481577039E-107
   61.6455000000000         4.061040427487996E-107
   61.8849000000000         2.638760812625457E-108
   62.1243000000000        -8.375431534216547E-107
   62.3637000000000        -2.372844240639804E-106
   62.6031000000000        -4.678692250268394E-106
   62.8425000000000        -7.611598542350121E-106
   63.0819000000000        -1.055581490517891E-105
   63.3213000000000        -1.213481788048576E-105
   63.5607000000000        -9.926172625938213E-106
   63.8001000000000        -3.150669454433362E-107
   64.0395000000000         2.128008642113372E-105
   64.2789000000000         5.946799557495542E-105
   64.5183000000000         1.168060889612253E-104
   64.7577000000000         1.901688663021675E-104
   64.9971000000000         2.653550487500049E-104
   65.2365000000000         3.102647896455051E-104
   65.4759000000000         2.679973802543014E-104
   65.7153000000000         5.282606412904770E-105
   65.9547000000000        -4.458249620939587E-104
   66.1941000000000        -1.343839713897972E-103
   66.4335000000000        -2.717779861761587E-103
   66.6729000000000        -4.525518088007051E-103
   66.9123000000000        -6.486338986886497E-103
   67.1517000000000        -7.925359674721448E-103
   67.3911000000000        -7.607695217284093E-103
   67.6305000000000        -3.620748643614808E-103
   67.8699000000000         6.591610862841278E-103
   68.1093000000000         2.588640894764344E-102
   68.3487000000000         5.656715192663234E-102
   68.5881000000000         9.879933013897578E-102
   68.8275000000000         1.481349196970597E-101
   69.0669000000000         1.921700549438259E-101
   69.3063000000000         2.067364851790314E-101
   69.5457000000000         1.526508346390409E-101
   69.7851000000000        -2.506674005418126E-102
   70.0245000000000        -3.925095034906849E-101
   70.2639000000000        -1.012679417185093E-100
   70.5033000000000        -1.917098745962467E-100
   70.7427000000000        -3.059144943846285E-100
   70.9821000000000        -4.247768797870241E-100
   71.2215000000000        -5.066415904917009E-100
   71.4609000000000        -4.792728440163727E-100
   71.7003000000000        -2.350631235618824E-100
   71.9397000000000         3.652918262723333E-100
   72.1791000000000         1.473191074167144E-099
   72.4185000000000         3.207407604187255E-099
   72.6579000000000         5.574980582244216E-099
   72.8973000000000         8.351740437834350E-099
   73.1367000000000         1.092532447597022E-098
   73.3761000000000         1.212027540974254E-098
   73.6155000000000         1.005125700065033E-098
   73.8549000000000         2.086661623303041E-099
   74.0943000000000        -1.495242708652773E-098
   74.3337000000000        -4.419278563202331E-098
   74.5731000000000        -8.752321150887784E-098
   74.8125000000000        -1.436614888450261E-097
   75.0519000000000        -2.054203666722878E-097
   75.2913000000000        -2.563498301238287E-097
   75.5307000000000        -2.673274400557362E-097
   75.7701000000000        -1.942466033615931E-097
   76.0095000000000         2.131006422089671E-098
   76.2489000000000         4.457315175776516E-097
   76.4883000000000         1.138063007921419E-096
   76.7277000000000         2.122312801504173E-096
   76.9671000000000         3.344967813157978E-096
   77.2065000000000         4.618061121444182E-096
   77.4459000000000         5.553389001473033E-096
   77.6853000000000         5.501799358980360E-096
   77.9247000000000         3.522936298830391E-096
   78.1641000000000        -1.575493795034976E-096
   78.4035000000000        -1.107648697782865E-095
   78.6429000000000        -2.600974587402385E-095
   78.8823000000000        -4.656825616364382E-095
   79.1217000000000        -7.125547831771510E-095
   79.3611000000000        -9.579441181737139E-095
   79.6005000000000        -1.119369488153472E-094
   79.8399000000000        -1.064718290686041E-094
   80.0793000000000        -6.093787631360099E-095
   80.3187000000000         4.721780575453724E-095
   80.5581000000000         2.410925883314741E-094
   80.7975000000000         5.373637028924421E-094
   81.0369000000000         9.350484935334948E-094
   81.2763000000000         1.399729679476779E-093
   81.5157000000000         1.844199937068636E-093
   81.7551000000000         2.108470081408780E-093
   81.9945000000000         1.944904842557229E-093
   82.2339000000000         1.017738931456875E-093
   82.4733000000000        -1.070127575331884E-093
   82.7127000000000        -4.707356536585770E-093
   82.9521000000000        -1.014538237737032E-092
   83.1915000000000        -1.729891690989228E-092
   83.4309000000000        -2.547579927350793E-092
   83.6703000000000        -3.305809590916410E-092
   83.9097000000000        -3.719025566428879E-092
   84.1491000000000        -3.357594851505620E-092
   84.3885000000000        -1.653908960773869E-092
   84.6279000000000         2.044311912200237E-092
   84.8673000000000         8.349369112124953E-092
   85.1067000000000         1.761454730288266E-091
   85.3461000000000         2.960660997271500E-091
   85.5855000000000         4.307644416425296E-091
   85.8249000000000         5.527044089483979E-091
   86.0643000000000         6.147836169479067E-091
   86.3037000000000         5.478217422025016E-091
   86.5431000000000         2.624707564367716E-091
   86.7825000000000        -3.413542845569234E-091
   87.0219000000000        -1.354087241622034E-090
   87.2613000000000        -2.822121324987738E-090
   87.5007000000000        -4.697971909901465E-090
   87.7401000000000        -6.776856120213354E-090
   87.9795000000000        -8.626989822147519E-090
   88.2189000000000        -9.528593109711789E-090
   88.4583000000000        -8.446120842907701E-090
   88.6977000000000        -4.068318805632655E-090
   88.9371000000000         5.041090986994423E-090
   89.1765000000000         2.013678382213501E-089
   89.4159000000000         4.179230876873946E-089
   89.6553000000000         6.919604447329607E-089
   89.8947000000000         9.927937224572479E-089
   90.1341000000000         1.257894429908372E-088
   90.3735000000000         1.385217023440476E-088
   90.6129000000000         1.230494785808082E-088
   90.8523000000000         6.141032223762489E-089
   91.0917000000000        -6.570224409827401E-089
   91.3311000000000        -2.746872008352486E-088
   91.5705000000000        -5.723123567659545E-088
   91.8099000000000        -9.464680580372399E-088
   92.0493000000000        -1.354995687558167E-087
   92.2887000000000        -1.714159528241302E-087
   92.5281000000000        -1.889602351044147E-087
   92.7675000000000        -1.694076960545842E-087
   93.0069000000000        -8.976204937643245E-088
   93.2463000000000         7.432891546367862E-088
   93.4857000000000         3.431284327684175E-087
   93.7251000000000         7.244126636801786E-087
   93.9645000000000         1.202165431608011E-086
   94.2039000000000         1.723210338590938E-086
   94.4433000000000         2.183778075730866E-086
   94.6827000000000         2.419466550088936E-086
   94.9221000000000         2.203655294294108E-086
   95.1615000000000         1.260868686905698E-086
   95.4009000000000        -6.976471648193680E-087
   95.6403000000000        -3.909426658169205E-086
   95.8797000000000        -8.463331536958071E-086
   96.1191000000000        -1.417068660134059E-085
   96.3585000000000        -2.041562819315416E-085
   96.5979000000000        -2.600798232346826E-085
   96.8373000000000        -2.907756777428357E-085
   97.0767000000000        -2.706532888144876E-085
   97.3161000000000        -1.688062503425175E-085
   97.5555000000000         4.699910306524223E-086
   97.7949000000000         4.032510574583929E-085
   98.0343000000000         9.101774077309615E-085
   98.2737000000000         1.548037168443623E-084
   98.5131000000000         2.251422842168952E-084
   98.7525000000000         2.894073979175800E-084
   98.9919000000000         3.278251270302589E-084
   99.2313000000000         3.134308060998162E-084
   99.4707000000000         2.137362269315499E-084
   99.7101000000000        -5.160097368434485E-086
   99.9495000000000        -3.713926196345895E-084
   100.188900000000        -8.967771445430418E-084
   100.428300000000        -1.563195641265281E-083
   100.667700000000        -2.307153855415866E-083
   100.907100000000        -3.004979726337574E-083
   101.146500000000        -3.462566024824583E-083
   101.385900000000        -3.414989863186378E-083
   101.625300000000        -2.542424659783599E-083
   101.864700000000        -5.090257169881635E-084
   102.104100000000         2.969653534739327E-083
   102.343500000000         8.028273474026955E-083
   102.582900000000         1.452552484772841E-082
   102.822300000000         2.190168892218124E-082
   103.061700000000         2.904234646043093E-082
   103.301100000000         3.418304858464054E-082
   103.540500000000         3.490181705559990E-082
   103.779900000000         2.825509129883479E-082
   104.019300000000         1.111422146839688E-082
   104.258700000000        -1.925085305523277E-082
   104.498100000000        -6.432124897077193E-082
   104.737500000000        -1.232402492501786E-081
   104.976900000000        -1.915835727367181E-081
   105.216300000000        -2.601753723020926E-081
   105.455700000000        -3.142363445086427E-081
   105.695100000000        -3.332454749746000E-081
   105.934500000000        -2.919639061842278E-081
   106.173900000000        -1.630775010252356E-081
   106.413300000000         7.817132631900237E-082
   106.652700000000         4.472066080818854E-081
   106.892100000000         9.414101716508604E-081
   107.131500000000         1.530226346187629E-080
   107.370900000000         2.145495225533763E-080
   107.610300000000         2.674172918101467E-080
   107.849700000000         2.956296651596985E-080
   108.089100000000         2.791537590344145E-080
   108.328500000000         1.957737694490952E-080
   108.567900000000         2.442065252551057E-081
   108.807300000000        -2.498970654455758E-080
   109.046700000000        -6.296954638333199E-080
   109.286100000000        -1.097653468748532E-079
   109.525500000000        -1.609250882823972E-079
   109.764900000000        -2.086876343340406E-079
   110.004300000000        -2.417349123595778E-079
   110.243700000000        -2.455128661453609E-079
   110.483100000000        -2.033534269349877E-079
   110.722500000000        -9.859153966003089E-080
   110.961900000000         8.222366406515413E-080
   111.201300000000         3.450852423924020E-079
   111.440700000000         6.835412867330022E-079
   111.680100000000         1.073534814074295E-078
   111.919500000000         1.468949403076830E-078
   112.158900000000         1.799028045274372E-078
   112.398300000000         1.969039469429069E-078
   112.637700000000         1.865616108198690E-078
   112.877100000000         1.368002789433298E-078
   113.116500000000         3.659671740287096E-079
   113.355900000000        -1.215709017915516E-078
   113.595300000000        -3.387410378814284E-078
   113.834700000000        -6.062236390515655E-078
   114.074100000000        -9.025191900453705E-078
   114.313500000000        -1.190978895813502E-077
   114.552900000000        -1.418896854995778E-077
   114.792300000000        -1.518772605870344E-077
   115.031700000000        -1.412434223886168E-077
   115.271100000000        -1.018545875186089E-077
   115.510500000000        -2.637299345823408E-078
   115.749900000000         9.028793518671597E-078
   115.989300000000         2.492338287988193E-077
   116.228700000000         4.457090676743687E-077
   116.468100000000         6.672439591003865E-077
   116.707500000000         8.920554749020018E-077
   116.946900000000         1.087966184540802E-076
   117.186300000000         1.212135158029601E-076
   117.425700000000         1.211918721684898E-076
   117.665100000000         1.027206171578467E-076
   117.904500000000         5.946149953228208E-077
   118.143900000000        -1.460137102790339E-077
   118.383300000000        -1.242314787382068E-076
   118.622700000000        -2.716748921273763E-076
   118.862100000000        -4.550109599133957E-076
   119.101500000000        -6.660944323086310E-076
   119.340900000000        -8.881245201077402E-076
   119.580300000000        -1.092988216519405E-075
   119.819700000000        -1.238705206978142E-075
   120.059100000000        -1.267558949917325E-075
   120.298500000000        -1.105826568283026E-075
   120.537900000000        -6.663868162234817E-076
   120.777300000000         1.441779487665039E-076
   121.016700000000         1.412176149088065E-075
   121.256100000000         3.195396899243222E-075
   121.495500000000         5.492603500470975E-075
   121.734900000000         8.204158921719512E-075
   121.974300000000         1.108622501921683E-074
   122.213700000000         1.370417008974064E-074
   122.453100000000         1.539489885602454E-074
   122.692500000000         1.525241783531307E-074
   122.931900000000         1.215533543880053E-074
   123.171300000000         4.858013392095161E-075
   123.410700000000        -7.832845890428423E-075
   123.650100000000        -2.677917510063366E-074
   123.889500000000        -5.212470419395296E-074
   124.128900000000        -8.281507131250161E-074
   124.368300000000        -1.160690918009489E-073
   124.607700000000        -1.468833506871075E-073
   124.847100000000        -1.676955867750955E-073
   125.086500000000        -1.683747582598632E-073
   125.325900000000        -1.367374929393890E-073
   125.565300000000        -5.979868425519748E-074
   125.804700000000         7.406739564851116E-074
   126.044100000000         2.719662517527957E-073
   126.283500000000         5.323901008731327E-073
   126.522900000000         8.404932915455808E-073
   126.762300000000         1.163341239419217E-072
   127.001700000000         1.446090030848762E-072
   127.241100000000         1.610407344475473E-072
   127.480500000000         1.556727630667369E-072
   127.719900000000         1.172047567909138E-072
   127.959300000000         3.447946935782732E-073
   128.198700000000        -1.012279331252003E-072
   128.438100000000        -2.931323973726050E-072
   128.677500000000        -5.352541307761228E-072
   128.916900000000        -8.085277246216409E-072
   129.156300000000        -1.077365922058559E-071
   129.395700000000        -1.287605316059532E-071
   129.635100000000        -1.366985578224877E-071
   129.874500000000        -1.229428518585468E-071
   130.113900000000        -7.843075772287469E-072
   130.353300000000         4.845283879495956E-073
   130.592700000000         1.317310082907664E-071
   130.832100000000         3.013025390939972E-071
   131.071500000000         5.040011023530345E-071
   131.310900000000         7.189306784289870E-071
   131.550300000000         9.119252584396503E-071
   131.789700000000         1.035156405332917E-070
   132.029100000000         1.029150405515598E-070
   132.268500000000         8.280650609205374E-071
   132.507900000000         3.688832406585475E-071
   132.747300000000        -3.952365722607053E-071
   132.986700000000        -1.477885447043876E-070
   133.226100000000        -2.839965341611530E-070
   133.465500000000        -4.370378768496301E-070
   133.704900000000        -5.870559511386481E-070
   133.944300000000        -7.047677781329543E-070
   134.183700000000        -7.522111673949674E-070
   134.423100000000        -6.854851470843118E-070
   134.662500000000        -4.599545789714266E-070
   134.901900000000        -3.815867672748199E-071
   135.141300000000         5.997256606196967E-070
   135.380700000000         1.443564402518392E-069
   135.620100000000         2.440474422510732E-069
   135.859500000000         3.483699641981142E-069
   136.098900000000         4.406018304680249E-069
   136.338300000000         4.981081069222052E-069
   136.577700000000         4.936242420007620E-069
   136.817100000000         3.980029356792354E-069
   137.056500000000         1.846194049722756E-069
   137.295900000000        -1.645824739630745E-069
   137.535300000000        -6.517296502368287E-069
   137.774700000000        -1.255065798082263E-068
   138.014100000000        -1.921571474111084E-068
   138.253500000000        -2.561768874611691E-068
   138.492900000000        -3.048676483829183E-068
   138.732300000000        -3.223041029187013E-068