  -1.79550000000000         0.000000000000000E+000
  -1.55610000000000         0.000000000000000E+000
  -1.31670000000000         0.000000000000000E+000
  -1.07730000000000         0.000000000000000E+000
 -0.837900000000000         0.000000000000000E+000
 -0.598500000000000         0.000000000000000E+000
 -0.359100000000000         0.000000000000000E+000
 -0.119700000000000         0.000000000000000E+000
  0.119700000000000         0.000000000000000E+000
  0.359100000000000         0.000000000000000E+000
  0.598500000000000         0.000000000000000E+000
  0.837900000000000         0.000000000000000E+000
   1.07730000000000         0.000000000000000E+000
   1.31670000000000         0.000000000000000E+000
   1.55610000000000         0.000000000000000E+000
   1.79550000000000         0.000000000000000E+000
   2.03490000000000         0.000000000000000E+000
   2.27430000000000         0.000000000000000E+000
   2.51370000000000         0.000000000000000E+000
   2.75310000000000         0.000000000000000E+000
   2.99250000000000         0.000000000000000E+000
   3.23190000000000         0.000000000000000E+000
   3.47130000000000         0.000000000000000E+000
   3.71070000000000         0.000000000000000E+000
   3.95010000000000         0.000000000000000E+000
   4.18950000000000         0.000000000000000E+000
   4.42890000000000         0.000000000000000E+000
   4.66830000000000         0.000000000000000E+000
   4.90770000000000         0.000000000000000E+000
   5.14710000000000         0.000000000000000E+000
   5.38650000000000         0.000000000000000E+000
   5.62590000000000         0.000000000000000E+000
   5.86530000000000         0.000000000000000E+000
   6.10470000000000         0.000000000000000E+000
   6.34410000000000         0.000000000000000E+000
   6.58350000000000         0.000000000000000E+000
   6.82290000000000         0.000000000000000E+000
   7.06230000000000         0.000000000000000E+000
   7.30170000000000         0.000000000000000E+000
   7.54110000000000         0.000000000000000E+000
   7.78050000000000         0.000000000000000E+000
   8.01990000000000         0.000000000000000E+000
   8.25930000000000         0.000000000000000E+000
   8.49870000000000         0.000000000000000E+000
   8.73810000000000         0.000000000000000E+000
   8.97750000000000         0.000000000000000E+000
   9.21690000000000         0.000000000000000E+000
   9.45630000000000         0.000000000000000E+000
   9.69570000000000        -7.755004193104770E-198
   9.93510000000000         9.720427146520983E-191
   10.1745000000000        -7.528386357532964E-189
   10.4139000000000         4.435006730336951E-187
   10.6533000000000         5.990739475048456E-185
   10.8927000000000         2.401620919646458E-183
   11.1321000000000         5.485374895219061E-182
   11.3715000000000         8.180425419976044E-181
   11.6109000000000         7.870879767239905E-180
   11.8503000000000         3.301356138810001E-179
   12.0897000000000        -3.933714614313490E-178
   12.3291000000000        -1.037251420724690E-176
   12.5685000000000        -1.316199170739233E-175
   12.8079000000000        -1.176026504251654E-174
   13.0473000000000        -7.730295689132761E-174
   13.2867000000000        -3.303213071200463E-173
   13.5261000000000        -5.652143419990417E-174
   13.7655000000000         1.541118273470542E-171
   14.0049000000000         1.834956001968358E-170
   14.2443000000000         1.447397940097602E-169
   14.4837000000000         8.911321571313681E-169
   14.7231000000000         4.378950524100703E-168
   14.9625000000000         1.603031382041029E-167
   15.2019000000000         2.755237293772276E-167
   15.4413000000000        -1.817347104595116E-166
   15.6807000000000        -2.391422066357588E-165
   15.9201000000000        -1.698819152585972E-164
   16.1595000000000        -9.285856292875525E-164
   16.3989000000000        -4.162294224389467E-163
   16.6383000000000        -1.508487673606231E-162
   16.8777000000000        -3.879278714169398E-162
   17.1171000000000        -1.573797698726764E-162
   17.3565000000000         6.159109286571370E-161
   17.5959000000000         5.137914568674925E-160
   17.8353000000000         2.889365818070158E-159
   18.0747000000000         1.327564228742190E-158
   18.3141000000000         5.229393516438589E-158
   18.5535000000000         1.773886305529101E-157
   18.7929000000000         5.008590596797682E-157
   19.0323000000000         1.028211960227519E-156
   19.2717000000000         4.101973283095305E-157
   19.5111000000000        -9.987015616199973E-156
   19.7505000000000        -6.850918285962482E-155
   19.9899000000000        -3.142552640198717E-154
   20.2293000000000        -1.173060497332479E-153
   20.4687000000000        -3.719469038263810E-153
   20.7081000000000        -9.915305281727896E-153
   20.9475000000000        -2.046154369040678E-152
   21.1869000000000        -2.046891081628118E-152
   21.4263000000000         8.035917094030432E-152
   21.6657000000000         6.474713475124570E-151
   21.9051000000000         2.881984179424849E-150
   22.1445000000000         1.012507550669164E-149
   22.3839000000000         3.012767558824295E-149
   22.6233000000000         7.645577767406943E-149
   22.8627000000000         1.582163174454896E-148
   23.1021000000000         2.181080097755088E-148
   23.3415000000000        -9.885797301748031E-149
   23.5809000000000        -2.133126473319897E-147
   23.8203000000000        -9.917401311458507E-147
   24.0597000000000        -3.362740186264430E-146
   24.2991000000000        -9.445654160074877E-146
   24.5385000000000        -2.247487206053177E-145
   24.7779000000000        -4.371646909876208E-145
   25.0173000000000        -5.822039301975298E-145
   25.2567000000000         1.086073915676919E-145
   25.4961000000000         4.213450380221500E-144
   25.7355000000000         1.870475230148759E-143
   25.9749000000000         5.939025246777415E-143
   26.2143000000000         1.554715535522880E-142
   26.4537000000000         3.441630970279669E-142
   26.6931000000000         6.220420098019522E-142
   26.9325000000000         7.664905723590387E-142
   27.1719000000000        -1.591447551906250E-142
   27.4113000000000        -4.939388247809105E-141
   27.6507000000000        -2.035296194701644E-140
   27.8901000000000        -6.022713244286679E-140
   28.1295000000000        -1.471122300679366E-139
   28.3689000000000        -3.038579690583344E-139
   28.6083000000000        -5.112487626248486E-139
   28.8477000000000        -5.784988828177468E-139
   29.0871000000000         1.712314401118973E-139
   29.3265000000000         3.536961675904440E-138
   29.5659000000000         1.348167644212287E-137
   29.8053000000000         3.728659874518546E-137
   30.0447000000000         8.531457904831498E-137
   30.2841000000000         1.649280874623951E-136
   30.5235000000000         2.581864041028003E-136
   30.7629000000000         2.633115495405776E-136
   31.0023000000000        -1.310702661880000E-136
   31.2417000000000        -1.670463651340568E-135
   31.4811000000000        -5.846076845693016E-135
   31.7205000000000        -1.512035650288706E-134
   31.9599000000000        -3.247868436562773E-134
   32.1993000000000        -5.885656347813205E-134
   32.4387000000000        -8.551093540517017E-134
   32.6781000000000        -7.645293546730841E-134
   32.9175000000000         6.519266070680439E-134
   33.1569000000000         5.500179229771495E-133
   33.3963000000000         1.762024200910268E-132
   33.6357000000000         4.269718463834900E-132
   33.8751000000000         8.639224963707934E-132
   34.1145000000000         1.473078033435139E-131
   34.3539000000000         1.991425626124406E-131
   34.5933000000000         1.540067661399181E-131
   34.8327000000000        -2.005548278960214E-131
   35.0721000000000        -1.287826030016218E-130
   35.3115000000000        -3.814768464738440E-130
   35.5509000000000        -8.716619330343019E-130
   35.7903000000000        -1.671022965178222E-129
   36.0297000000000        -2.696120889524036E-129
   36.2691000000000        -3.409454523703945E-129
   36.5085000000000        -2.263895897527242E-129
   36.7479000000000         4.154811318554913E-129
   36.9873000000000         2.213488683836690E-128
   37.2267000000000         6.133770557486118E-128
   37.4661000000000         1.331166994589220E-127
   37.7055000000000         2.432835655507561E-127
   37.9449000000000         3.736565736632810E-127
   38.1843000000000         4.446802231825663E-127
   38.4237000000000         2.520301603724498E-127
   38.6631000000000        -6.214213210152444E-127
   38.9025000000000        -2.891556474028154E-126
   39.1419000000000        -7.574911479752282E-126
   39.3813000000000        -1.572561799691999E-125
   39.6207000000000        -2.757953002528796E-125
   39.8601000000000        -4.061054876462585E-125
   40.0995000000000        -4.591744392417595E-125
   40.3389000000000        -2.258646856630038E-125
   40.5783000000000         6.935047869397832E-125
   40.8177000000000         2.943502089391163E-124
   41.0571000000000         7.375403153531328E-124
   41.2965000000000         1.476516555867557E-123
   41.5359000000000         2.503747784931950E-123
   41.7753000000000         3.565514054579972E-123
   42.0147000000000         3.883553947779456E-123
   42.2541000000000         1.752242156503345E-123
   42.4935000000000        -5.914478891563102E-123
   42.7329000000000        -2.383715202384172E-122
   42.9723000000000        -5.786832206737453E-122
   43.2117000000000        -1.127216598866798E-121
   43.4511000000000        -1.863901801167283E-121
   43.6905000000000        -2.593498244150519E-121
   43.9299000000000        -2.770038908797263E-121
   44.1693000000000        -1.258954394523184E-121
   44.4087000000000         3.905074415593233E-121
   44.6481000000000         1.560348922451960E-120
   44.8875000000000         3.723372548604343E-120
   45.1269000000000         7.126746088191331E-120
   45.3663000000000         1.159768365961779E-119
   45.6057000000000         1.594405326900114E-119
   45.8451000000000         1.702668265664209E-119
   46.0845000000000         8.569161523927323E-120
   46.3239000000000        -1.995223409992845E-119
   46.5633000000000        -8.349428594790729E-119
   46.8027000000000        -1.990991602534155E-118
   47.0421000000000        -3.784414853287484E-118
   47.2815000000000        -6.118261178423842E-118
   47.5209000000000        -8.400853324262907E-118
   47.7603000000000        -9.127176642780066E-118
   47.9997000000000        -5.364018326823553E-118
   48.2391000000000         7.698772529857070E-118
   48.4785000000000         3.676163547511711E-117
   48.7179000000000         8.932524684526183E-117
   48.9573000000000         1.704770806109726E-116
   49.1967000000000         2.762548457745880E-116
   49.4361000000000         3.823448086407611E-116
   49.6755000000000         4.277223841493429E-116
   49.9149000000000         2.951384601360131E-116
   50.1543000000000        -2.051292202404260E-116
   50.3937000000000        -1.334476847911094E-115
   50.6331000000000        -3.384197795774331E-115
   50.8725000000000        -6.557542490119236E-115
   51.1119000000000        -1.073264493955181E-114
   51.3513000000000        -1.506800863392740E-114
   51.5907000000000        -1.744385920025713E-114
   51.8301000000000        -1.381099005631063E-114
   52.0695000000000         2.334683193738544E-115
   52.3089000000000         3.990432476300800E-114
   52.5483000000000         1.088451317700836E-113
   52.7877000000000         2.163805821003332E-113
   53.0271000000000         3.596137524949561E-113
   53.2665000000000         5.134625692067160E-113
   53.5059000000000         6.139215737406786E-113
   53.7453000000000         5.390031388862590E-113
   53.9847000000000         9.392283167527363E-114
   54.2241000000000        -9.865904691131846E-113
   54.4635000000000        -2.998045461654406E-112
   54.7029000000000        -6.159541701999088E-112
   54.9423000000000        -1.040906577768591E-111
   55.1817000000000        -1.507744981503411E-111
   55.4211000000000        -1.844795200073536E-111
   55.6605000000000        -1.727275205664592E-111
   55.8999000000000        -6.426634165113823E-112
   56.1393000000000         2.096661677293561E-111
   56.3787000000000         7.241705512514244E-111
   56.6181000000000         1.532882545087093E-110
   56.8575000000000         2.616642984450757E-110
   57.0969000000000         3.804688825377542E-110
   57.3363000000000         4.672803542801999E-110
   57.5757000000000         4.439198571286789E-110
   57.8151000000000         1.904815534526016E-110
   58.0545000000000        -4.480796450335544E-110
   58.2939000000000        -1.631028837824067E-109
   58.5333000000000        -3.452469438191153E-109
   58.7727000000000        -5.821003815901401E-109
   59.0121000000000        -8.285537057564275E-109
   59.2515000000000        -9.826721917908977E-109
   59.4909000000000        -8.673148661906771E-109
   59.7303000000000        -2.259515163397630E-109
   59.9697000000000         1.248542141418608E-108
   60.2091000000000         3.826968672499122E-108
   60.4485000000000         7.571872707578196E-108
   60.6879000000000         1.206287498647764E-107
   60.9273000000000         1.603031507481376E-107
   61.1667000000000         1.696597345359076E-107
   61.4061000000000         1.087305209605100E-107
   61.6455000000000        -7.555815319884211E-108
   61.8849000000000        -4.390534515806737E-107
   62.1243000000000        -1.016241911969683E-106
   62.3637000000000        -1.777444412846932E-106
   62.6031000000000        -2.565648891767390E-106
   62.8425000000000        -3.019081180280977E-106
   63.0819000000000        -2.499812787717713E-106
   63.3213000000000        -7.021441224370398E-108
   63.5607000000000         5.413554036417220E-106
   63.8001000000000         1.499442311901501E-105
   64.0395000000000         2.898235160727576E-105
   64.2789000000000         4.590568867083177E-105
   64.5183000000000         6.103967808333476E-105
   64.7577000000000         6.469461932663137E-105
   64.9971000000000         4.077327244856985E-105
   65.2365000000000        -3.341449124578997E-105
   65.4759000000000        -1.845011914902493E-104
   65.7153000000000        -4.354272945026507E-104
   65.9547000000000        -7.904017075706227E-104
   66.1941000000000        -1.210517328266299E-103
   66.4335000000000        -1.579964432537583E-103
   66.6729000000000        -1.666840046903829E-103
   66.9123000000000        -1.089485633771838E-103
   67.1517000000000         6.906288412593579E-104
   67.3911000000000         4.315967958616386E-103
   67.6305000000000         1.037411655485594E-102
   67.8699000000000         1.908043294429301E-102
   68.1093000000000         2.975701962580893E-102
   68.3487000000000         4.009728514148416E-102
   68.5881000000000         4.528195087651673E-102
   68.8275000000000         3.714571332842277E-102
   69.0669000000000         3.791446845264305E-103
   69.3063000000000        -6.969914123492772E-102
   69.5457000000000        -1.985450174689728E-101
   69.7851000000000        -3.924360187492396E-101
   70.0245000000000        -6.455419704820898E-101
   70.2639000000000        -9.218174182181086E-101
   70.5033000000000        -1.136313341881205E-100
   70.7427000000000        -1.135503706839574E-100
   70.9821000000000        -6.831776995772556E-101
   71.2215000000000         5.368168999642766E-101
   71.4609000000000         2.884323499018384E-100
   71.7003000000000         6.671812742705445E-100
   71.9397000000000         1.199572041182670E-099
   72.1791000000000         1.847285186745260E-099
   72.4185000000000         2.488187004626919E-099
   72.6579000000000         2.874475164923850E-099
   72.8973000000000         2.594033869317839E-099
   73.1367000000000         1.052336728763951E-099
   73.3761000000000        -2.497768436462643E-099
   73.6155000000000        -8.840904248677377E-099
   73.8549000000000        -1.855427208291621E-098
   74.0943000000000        -3.159067933048224E-098
   74.3337000000000        -4.666601309238201E-098
   74.5731000000000        -6.047317929459000E-098
   74.8125000000000        -6.682659405376002E-098
   75.0519000000000        -5.596687856199889E-098
   75.2913000000000        -1.442312500455567E-098
   75.5307000000000         7.397697925945427E-098
   75.7701000000000         2.251822612963531E-097
   76.0095000000000         4.492263036493772E-097
   76.2489000000000         7.410379885690632E-097
   76.4883000000000         1.067505085092315E-096
   76.7277000000000         1.351561097853845E-096
   76.9671000000000         1.455787778065673E-096
   77.2065000000000         1.170536532988787E-096
   77.4459000000000         2.147779151642429E-097
   77.6853000000000        -1.738617690817517E-096
   77.9247000000000        -4.998558188267557E-096
   78.1641000000000        -9.736923030817830E-096
   78.4035000000000        -1.580324059465478E-095
   78.6429000000000        -2.247126125255478E-095
   78.8823000000000        -2.813636408273983E-095
   79.1217000000000        -3.001593635671966E-095
   79.3611000000000        -2.395162806094212E-095
   79.6005000000000        -4.470081672830863E-096
   79.8399000000000         3.468108169884507E-095
   80.0793000000000         9.925937840157709E-095
   80.3187000000000         1.922487933244792E-094
   80.5581000000000         3.103853299922615E-094
   80.7975000000000         4.394994395234767E-094
   81.0369000000000         5.490693094888818E-094
   81.2763000000000         5.869766250401262E-094
   81.5157000000000         4.762758797459294E-094
   81.7551000000000         1.167713360464950E-094
   81.9945000000000        -6.048174186981435E-094
   82.2339000000000        -1.791629964558338E-093
   82.4733000000000        -3.495984734134994E-093
   82.7127000000000        -5.658336280450610E-093
   82.9521000000000        -8.026630594819055E-093
   83.1915000000000        -1.006343824470125E-092
   83.4309000000000        -1.085835270312720E-092
   83.6703000000000        -9.076678999966038E-093
   83.9097000000000        -2.991263141040555E-093
   84.1491000000000         9.340377858334711E-093
   84.3885000000000         2.968169973623493E-092
   84.6279000000000         5.893702318862615E-092
   84.8673000000000         9.614383716594080E-092
   85.1067000000000         1.371573530541839E-091
   85.3461000000000         1.731549410405131E-091
   85.5855000000000         1.892487608251639E-091
   85.8249000000000         1.637052841852102E-091
   86.0643000000000         6.851005483273343E-092
   86.3037000000000        -1.277609752173847E-091
   86.5431000000000        -4.536747221103706E-091
   86.7825000000000        -9.242738616521901E-091
   87.0219000000000        -1.525448482924266E-090
   87.2613000000000        -2.193756253979959E-090
   87.5007000000000        -2.793746872447503E-090
   87.7401000000000        -3.097242985493856E-090
   87.9795000000000        -2.772096477626774E-090
   88.2189000000000        -1.391339638664188E-090
   88.4583000000000         1.523315909255499E-090
   88.6977000000000         6.408169660073717E-090
   88.9371000000000         1.350060568325134E-089
   89.1765000000000         2.261161473810418E-089
   89.4159000000000         3.283511361857390E-089
   89.6553000000000         4.222494238018672E-089
   89.8947000000000         4.750388720019512E-089
   90.1341000000000         4.391092358607257E-089
   90.3735000000000         2.533800189223523E-089
   90.6129000000000        -1.505385825599296E-089
   90.8523000000000        -8.353344126300458E-089
   91.0917000000000        -1.836357408092035E-088
   91.3311000000000        -3.130572493082670E-088
   91.5705000000000        -4.597277371006241E-088
   91.8099000000000        -5.974906697440949E-088
   92.0493000000000        -6.822616047480275E-088
   92.2887000000000        -6.500680763791450E-088
   92.5281000000000        -4.189343632625196E-088
   92.7675000000000         1.029714510614034E-088
   93.0069000000000         1.000363882622916E-087
   93.2463000000000         2.322904607385053E-087
   93.4857000000000         4.045488095841841E-087
   93.7251000000000         6.018446543588671E-087
   93.9645000000000         7.913300571729015E-087
   94.2039000000000         9.175022988910976E-087
   94.4433000000000         8.998162593114069E-087
   94.6827000000000         6.350674842125641E-087
   94.9221000000000         7.431104121429418E-089
   95.1615000000000        -1.090846122003362E-086
   95.4009000000000        -2.725688798408537E-086
   95.6403000000000        -4.873591119957492E-086
   95.8797000000000        -7.362395869793512E-086
   96.1191000000000        -9.807262320889198E-086
   96.3585000000000        -1.155473327429082E-085
   96.5979000000000        -1.165494481810352E-085
   96.8373000000000        -8.889092601939843E-086
   97.0767000000000        -1.884432656566465E-086
   97.3161000000000         1.065028783772978E-085
   97.5555000000000         2.954332364444054E-085
   97.7949000000000         5.462544370704407E-085
   98.0343000000000         8.406901865043575E-085
   98.2737000000000         1.136771658226688E-084
   98.5131000000000         1.362646472874806E-084
   98.7525000000000         1.413469301673822E-084
   98.9919000000000         1.154259759041305E-084
   99.2313000000000         4.321137988381837E-085
   99.4707000000000        -8.988376795275644E-085
   99.7101000000000        -2.937147406516283E-084
   99.9495000000000        -5.677867029551849E-084
   100.188900000000        -8.943347667508940E-084
   100.428300000000        -1.230899118519481E-083
   100.667700000000        -1.503843448235996E-083
   100.907100000000        -1.604998018167442E-083
   101.146500000000        -1.394300333217407E-083
   101.385900000000        -7.117638969100779E-084
   101.625300000000         5.979319526954557E-084
   101.864700000000         2.645781170601748E-083
   102.104100000000         5.443235522072594E-083
   102.343500000000         8.834294874903817E-083
   102.582900000000         1.242257561505385E-082
   102.822300000000         1.550711193046510E-082
   103.061700000000         1.704737834454385E-082
   103.301100000000         1.568424853969137E-082
   103.540500000000         9.847564305421250E-083
   103.779900000000        -2.019646339444558E-083
   104.019300000000        -2.109818951077899E-082
   104.258700000000        -4.768674633673446E-082
   104.498100000000        -8.057860257608141E-082
   104.737500000000        -1.163891284575298E-081
   104.976900000000        -1.489549520890434E-081
   105.216300000000        -1.689835319348794E-081
   105.455700000000        -1.641844129985150E-081
   105.695100000000        -1.201459644255957E-081
   105.934500000000        -2.221465035453031E-082
   106.173900000000         1.414338450366524E-081
   106.413300000000         3.754919185614137E-081
   106.652700000000         6.721924422938702E-081
   106.892100000000         1.005508297742121E-080
   107.131500000000         1.325857210128289E-080
   107.370900000000         1.556750539349667E-080
   107.610300000000         1.595239383502980E-080
   107.849700000000         1.318264716307923E-080
   108.089100000000         5.969647592484302E-081
   108.328500000000        -6.795283703264840E-081
   108.567900000000        -2.570409224141289E-080
   108.807300000000        -5.041099790400286E-080
   109.046700000000        -7.916771251949801E-080
   109.286100000000        -1.083867954311283E-079
   109.525500000000        -1.323388691710108E-079
   109.764900000000        -1.431196891994961E-079
   110.004300000000        -1.310416766582727E-079
   110.243700000000        -8.560148364817429E-080
   110.483100000000         2.860282727255413E-081
   110.722500000000         1.407685647683564E-079
   110.961900000000         3.282796041497874E-079
   111.201300000000         5.558630697539743E-079
   111.440700000000         8.009707923760569E-079
   111.680100000000         1.025486302819050E-078
   111.919500000000         1.174850008411304E-078
   112.158900000000         1.179881539973385E-078
   112.398300000000         9.623132467237256E-079
   112.637700000000         4.448444092132609E-079
   112.877100000000        -4.339291401417406E-079
   113.116500000000        -1.700090715216757E-078
   113.355900000000        -3.321870609212914E-078
   113.595300000000        -5.186604279405664E-078
   113.834700000000        -7.081063703414491E-078
   114.074100000000        -8.680200943038350E-078
   114.313500000000        -9.550109625414152E-078
   114.552900000000        -9.171092183064696E-078
   114.792300000000        -6.985831991930826E-078
   115.031700000000        -2.475589491456347E-078
   115.271100000000         4.736019770652381E-078
   115.510500000000         1.475664660498469E-077
   115.749900000000         2.728658924495184E-077
   115.989300000000         4.148392860925479E-077
   116.228700000000         5.585451707785674E-077
   116.468100000000         6.819160866999998E-077
   116.707500000000         7.559136164526174E-077
   116.946900000000         7.456906338899936E-077
   117.186300000000         6.129658164130685E-077
   117.425700000000         3.197465581551785E-077
   117.665100000000        -1.665482968916836E-077
   117.904500000000        -8.666022476024530E-077
   118.143900000000        -1.781467576231841E-076
   118.383300000000        -2.883770428205415E-076
   118.622700000000        -4.108116642800948E-076
   118.862100000000        -5.341085508599559E-076
   119.101500000000        -6.411446481384067E-076
   119.340900000000        -7.081705982966228E-076
   119.580300000000        -7.042899876589821E-076
   119.819700000000        -5.915780694219762E-076
   120.059100000000        -3.263218156083428E-076
   120.298500000000         1.379401336657561E-076
   120.537900000000         8.447094044198035E-076
   120.777300000000         1.825168002714646E-075
   121.016700000000         3.084242807068105E-075
   121.256100000000         4.581538210438233E-075
   121.495500000000         6.207405374042929E-075
   121.734900000000         7.755836564451982E-075
   121.974300000000         8.897970055496515E-075
   122.213700000000         9.162728625107498E-075
   122.453100000000         7.934265098026328E-075
   122.692500000000         4.478959258586602E-075
   122.931900000000        -1.983111462895088E-075
   123.171300000000        -1.214716755782306E-074
   123.410700000000        -2.642145544749569E-074
   123.650100000000        -4.465029975803790E-074
   123.889500000000        -6.577375228214725E-074
   124.128900000000        -8.745688714107083E-074
   124.368300000000        -1.057502337095835E-073
   124.607700000000        -1.148757101043310E-073
   124.847100000000        -1.072650792321233E-073
   125.086500000000        -7.400293358318807E-074
   125.325900000000        -5.833211983906916E-075
   125.565300000000         1.051353037928069E-073
   125.804700000000         2.629565400603332E-073
   126.044100000000         4.646628453067088E-073
   126.283500000000         6.966091506553418E-073
   126.522900000000         9.308298952200886E-073
   126.762300000000         1.122178141714526E-072
   127.001700000000         1.207305569081903E-072
   127.241100000000         1.106776417638824E-072
   127.480500000000         7.317069093078527E-073
   127.719900000000        -3.814131856929602E-075
   127.959300000000        -1.163742173308927E-072
   128.198700000000        -2.764655088462201E-072
   128.438100000000        -4.745404999087138E-072
   128.677500000000        -6.935211194099950E-072
   128.916900000000        -9.025758420128231E-072
   129.156300000000        -1.055514170355064E-071
   129.395700000000        -1.091343447620765E-071
   129.635100000000        -9.380671944585004E-072
   129.874500000000        -5.207433068988788E-072
   130.113900000000         2.254777914515333E-072
   130.353300000000         1.337217518396804E-071
   130.592700000000         2.800466456071587E-071
   130.832100000000         4.526031738539311E-071
   131.071500000000         6.326499041381498E-071
   131.310900000000         7.900011194211532E-071
   131.550300000000         8.827615726598694E-071
   131.789700000000         8.591813319478489E-071
   132.029100000000         6.623780291046064E-071
   132.268500000000         2.385038149913554E-071
   132.507900000000        -4.514354163175250E-071
   132.747300000000        -1.416500041683726E-070
   132.986700000000        -2.618695579626837E-070
   133.226100000000        -3.956042090922927E-070
   133.465500000000        -5.249158304168488E-070
   133.704900000000        -6.235686920747274E-070
   133.944300000000        -6.577561439340744E-070
   134.183700000000        -5.886167779974717E-070
   134.423100000000        -3.769568773275570E-070
   134.662500000000         9.615648105469890E-072
   134.901900000000         5.872953160568317E-070
   135.141300000000         1.345070698722104E-069
   135.380700000000         2.233374469316551E-069
   135.620100000000         3.154346062534462E-069
   135.859500000000         3.956307213126195E-069
   136.098900000000         4.435519438362428E-069
   136.338300000000         4.348410652348961E-069
   136.577700000000         3.437035720905875E-069
   136.817100000000         1.469394817600808E-069
   137.056500000000        -1.705753178358491E-069
   137.295900000000        -6.092805452391869E-069
   137.535300000000        -1.147879315244247E-068
   137.774700000000        -1.736929972202765E-068
   138.014100000000        -2.294561879946902E-068
   138.253500000000        -2.706096666090498E-068
   138.492900000000        -2.829469253332460E-068
   138.732300000000        -2.508158600505245E-068