  -1.79550000000000         0.000000000000000E+000
  -1.55610000000000         0.000000000000000E+000
  -1.31670000000000         0.000000000000000E+000
  -1.07730000000000         0.000000000000000E+000
 -0.837900000000000         0.000000000000000E+000
 -0.598500000000000         0.000000000000000E+000
 -0.359100000000000         0.000000000000000E+000
 -0.119700000000000         0.000000000000000E+000
  0.119700000000000         0.000000000000000E+000
  0.359100000000000         0.000000000000000E+000
  0.598500000000000         0.000000000000000E+000
  0.837900000000000         0.000000000000000E+000
   1.07730000000000         0.000000000000000E+000
   1.31670000000000         0.000000000000000E+000
   1.55610000000000         0.000000000000000E+000
   1.79550000000000         0.000000000000000E+000
   2.03490000000000         0.000000000000000E+000
   2.27430000000000         0.000000000000000E+000
   2.51370000000000         0.000000000000000E+000
   2.75310000000000         0.000000000000000E+000
   2.99250000000000         0.000000000000000E+000
   3.23190000000000         0.000000000000000E+000
   3.47130000000000         0.000000000000000E+000
   3.71070000000000         0.000000000000000E+000
   3.95010000000000         0.000000000000000E+000
   4.18950000000000         0.000000000000000E+000
   4.42890000000000         0.000000000000000E+000
   4.66830000000000         0.000000000000000E+000
   4.90770000000000         0.000000000000000E+000
   5.14710000000000         0.000000000000000E+000
   5.38650000000000         0.000000000000000E+000
   5.62590000000000         0.000000000000000E+000
   5.86530000000000         0.000000000000000E+000
   6.10470000000000         0.000000000000000E+000
   6.34410000000000         0.000000000000000E+000
   6.58350000000000         0.000000000000000E+000
   6.82290000000000         0.000000000000000E+000
   7.06230000000000         0.000000000000000E+000
   7.30170000000000         0.000000000000000E+000
   7.54110000000000         0.000000000000000E+000
   7.78050000000000         0.000000000000000E+000
   8.01990000000000         0.000000000000000E+000
   8.25930000000000         0.000000000000000E+000
   8.49870000000000         0.000000000000000E+000
   8.73810000000000         0.000000000000000E+000
   8.97750000000000         0.000000000000000E+000
   9.21690000000000         0.000000000000000E+000
   9.45630000000000         0.000000000000000E+000
   9.69570000000000         0.000000000000000E+000
   9.93510000000000        -4.444575921167301E-199
   10.1745000000000         5.571005310836650E-192
   10.4139000000000        -4.203275780758869E-190
   10.6533000000000         2.457184407168680E-188
   10.8927000000000         3.482998190323330E-186
   11.1321000000000         1.445839872668838E-184
   11.3715000000000         3.429482783641016E-183
   11.6109000000000         5.359833024229697E-182
   11.8503000000000         5.548658724377227E-181
   12.0897000000000         2.948218529790039E-180
   12.3291000000000        -1.720347562413723E-179
   12.5685000000000        -6.318284381289133E-178
   12.8079000000000        -8.789901471144527E-177
   13.0473000000000        -8.434882888537247E-176
   13.2867000000000        -6.029492457416255E-175
   13.5261000000000        -3.014699029531346E-174
   13.7655000000000        -5.750386491779182E-174
   14.0049000000000         7.983905133769512E-173
   14.2443000000000         1.217085078856882E-171
   14.4837000000000         1.064971028698928E-170
   14.7231000000000         7.115522249221123E-170
   14.9625000000000         3.826287235568813E-169
   15.2019000000000         1.612837341209881E-168
   15.4413000000000         4.422137475523905E-168
   15.6807000000000        -3.184207540513367E-168
   15.9201000000000        -1.478485949355806E-166
   16.1595000000000        -1.266146330809670E-165
   16.3989000000000        -7.706387454339233E-165
   16.6383000000000        -3.800171907928179E-164
   16.8777000000000        -1.547520393095072E-163
   17.1171000000000        -4.938329777465463E-163
   17.3565000000000        -9.231119764601853E-163
   17.5959000000000         2.177539911939391E-162
   17.8353000000000         3.472479274125317E-161
   18.0747000000000         2.328684195074984E-160
   18.3141000000000         1.191870436281691E-159
   18.5535000000000         5.147961291013829E-159
   18.7929000000000         1.927061319990135E-158
   19.0323000000000         6.209867984641723E-158
   19.2717000000000         1.638560005137984E-157
   19.5111000000000         2.891226981322935E-157
   19.7505000000000        -1.579900385704859E-157
   19.9899000000000        -4.531525726629912E-156
   20.2293000000000        -2.691577223809128E-155
   20.4687000000000        -1.165308842744507E-154
   20.7081000000000        -4.193175448406394E-154
   20.9475000000000        -1.290373751223119E-153
   21.1869000000000        -3.334129315745919E-153
   21.4263000000000        -6.551006465779322E-153
   21.6657000000000        -5.162309881580462E-153
   21.9051000000000         3.333449766093743E-152
   22.1445000000000         2.370046200089569E-151
   22.3839000000000         1.020966714823670E-150
   22.6233000000000         3.531616998914975E-150
   22.8627000000000         1.042412833714251E-149
   23.1021000000000         2.638439021868023E-149
   23.3415000000000         5.484493687535541E-149
   23.5809000000000         7.763969979358249E-149
   23.8203000000000        -2.182004965263076E-149
   24.0597000000000        -6.896694733256262E-148
   24.2991000000000        -3.284784658415162E-147
   24.5385000000000        -1.129342716008179E-146
   24.7779000000000        -3.218294924661980E-146
   25.0173000000000        -7.812741148232909E-146
   25.2567000000000        -1.574393549589341E-145
   25.4961000000000        -2.305267525113506E-145
   25.7355000000000        -6.213136503037558E-146
   25.9749000000000         1.178277520064285E-144
   26.2143000000000         5.822481935082907E-144
   26.4537000000000         1.937712799704954E-143
   26.6931000000000         5.265657337459794E-143
   26.9325000000000         1.215867143530394E-142
   27.1719000000000         2.344462389511281E-142
   27.4113000000000         3.381848020476198E-142
   27.6507000000000         1.588353677059068E-142
   27.8901000000000        -1.186990348809513E-141
   28.1295000000000        -5.984575161658195E-141
   28.3689000000000        -1.921350906456328E-140
   28.6083000000000        -4.985726027900849E-140
   28.8477000000000        -1.098018846265635E-139
   29.0871000000000        -2.029016452057671E-139
   29.3265000000000        -2.861877278459592E-139
   29.5659000000000        -1.667621896105127E-139
   29.8053000000000         7.253300422793989E-139
   30.0447000000000         3.754405244628928E-138
   30.2841000000000         1.167306031464394E-137
   30.5235000000000         2.904413330741523E-137
   30.7629000000000         6.121247843923171E-137
   31.0023000000000         1.084718298904756E-136
   31.2417000000000         1.482192350606570E-136
   31.4811000000000         9.222842607829324E-137
   31.7205000000000        -2.988148436720931E-136
   31.9599000000000        -1.556441428644283E-135
   32.1993000000000        -4.675498064305702E-135
   32.4387000000000        -1.116776325438868E-134
   32.6781000000000        -2.256086195834951E-134
   32.9175000000000        -3.833565882286950E-134
   33.1569000000000        -5.037411044760324E-134
   33.3963000000000        -3.088973686421833E-134
   33.6357000000000         8.958040205044816E-134
   33.8751000000000         4.547581826630674E-133
   34.1145000000000         1.315070334516703E-132
   34.3539000000000         3.019638271973605E-132
   34.5933000000000         5.865539233407180E-132
   34.8327000000000         9.594089317185438E-132
   35.0721000000000         1.217321235135221E-131
   35.3115000000000         7.371500480552958E-132
   35.5509000000000        -1.929354974701998E-131
   35.7903000000000        -9.591560247895075E-131
   36.0297000000000        -2.683079249594432E-130
   36.2691000000000        -5.952212984638574E-130
   36.5085000000000        -1.117538557034421E-129
   36.7479000000000        -1.769605032286588E-129
   36.9873000000000        -2.183549465517662E-129
   37.2267000000000        -1.328891295708990E-129
   37.4661000000000         3.041175537580133E-129
   37.7055000000000         1.504047457227079E-128
   37.9449000000000         4.098292889788998E-128
   38.1843000000000         8.834052328966567E-128
   38.4237000000000         1.611837907173609E-127
   38.6631000000000         2.484715014271798E-127
   38.9025000000000         3.001440896752973E-127
   39.1419000000000         1.860947523235827E-127
   39.3813000000000        -3.620906387238275E-127
   39.6207000000000        -1.811548309633195E-126
   39.8601000000000        -4.841653933982673E-126
   40.0995000000000        -1.019924594892795E-125
   40.3389000000000        -1.818847504033540E-125
   40.5783000000000        -2.747218794934335E-125
   40.8177000000000        -3.278126125726969E-125
   41.0571000000000        -2.122042942440217E-125
   41.2965000000000         3.261057847649764E-125
   41.5359000000000         1.710642347732389E-124
   41.7753000000000         4.530135854692028E-124
   42.0147000000000         9.393109612463137E-124
   42.2541000000000         1.648183978957982E-123
   42.4935000000000         2.457482129950346E-123
   42.7329000000000         2.927807537497045E-123
   42.9723000000000         2.031969506878598E-123
   43.2117000000000        -2.180438630661161E-123
   43.4511000000000        -1.285319111942387E-122
   43.6905000000000        -3.420840471150135E-122
   43.9299000000000        -7.042756880639110E-122
   44.1693000000000        -1.225224796167804E-121
   44.4087000000000        -1.818327551754193E-121
   44.6481000000000        -2.187621276607311E-121
   44.8875000000000        -1.662642209768642E-121
   45.1269000000000         9.962895362673245E-122
   45.3663000000000         7.739727656653424E-121
   45.6057000000000         2.113007198770085E-120
   45.8451000000000         4.365832952686996E-120
   46.0845000000000         7.594498072627136E-120
   46.3239000000000         1.131428206272475E-119
   46.5633000000000         1.389055642928298E-119
   46.8027000000000         1.168157622165182E-119
   47.0421000000000        -1.938246734120795E-120
   47.2815000000000        -3.724744433598936E-119
   47.5209000000000        -1.076218406610430E-118
   47.7603000000000        -2.261435099888320E-118
   47.9997000000000        -3.969751826700812E-118
   48.2391000000000        -5.985493102906814E-118
   48.4785000000000        -7.559999556323536E-118
   48.7179000000000        -7.027609923201575E-118
   48.9573000000000        -1.375779585795104E-118
   49.1967000000000         1.404649456733645E-117
   49.4361000000000         4.530158589324566E-117
   49.6755000000000         9.846976053610530E-117
   49.9149000000000         1.761517144393904E-116
   50.1543000000000         2.707487500198363E-116
   50.3937000000000         3.535893458833436E-116
   50.6331000000000         3.599479242277050E-116
   50.8725000000000         1.723501401894415E-116
   51.1119000000000        -3.910758797578318E-116
   51.3513000000000        -1.569615110232877E-115
   51.5907000000000        -3.611737476018678E-115
   51.8301000000000        -6.653608580078927E-115
   52.0695000000000        -1.048702011820287E-114
   52.3089000000000        -1.418662545264132E-114
   52.5483000000000        -1.559921976070535E-114
   52.7877000000000        -1.077364269251490E-114
   53.0271000000000         6.453216194019398E-115
   53.2665000000000         4.429038792449551E-114
   53.5059000000000         1.115553112678718E-113
   53.7453000000000         2.140055288572405E-113
   53.9847000000000         3.473472883835884E-113
   54.2241000000000         4.860719870511290E-113
   54.4635000000000         5.682528575802860E-113
   54.7029000000000         4.786086673147392E-113
   54.9423000000000         3.594660558920825E-114
   55.1817000000000        -1.003283581250738E-112
   55.4211000000000        -2.906637999771852E-112
   55.6605000000000        -5.867288084621830E-112
   55.8999000000000        -9.817880353533040E-112
   56.1393000000000        -1.413679819330355E-111
   56.3787000000000        -1.725406974460155E-111
   56.6181000000000        -1.622094896242752E-111
   56.8575000000000        -6.402516554078733E-112
   57.0969000000000         1.841251432590167E-111
   57.3363000000000         6.503311477068356E-111
   57.5757000000000         1.384346551008998E-110
   57.8151000000000         2.372782900940235E-110
   58.0545000000000         3.470388724519818E-110
   58.2939000000000         4.311189528851050E-110
   58.5333000000000         4.217209213944737E-110
   58.7727000000000         2.144537185732330E-110
   59.0121000000000        -3.264289505063223E-110
   59.2515000000000        -1.342175302222342E-109
   59.4909000000000        -2.921114278117452E-109
   59.7303000000000        -4.997131872457280E-109
   59.9697000000000        -7.202647613267212E-109
   60.2091000000000        -8.692594387235603E-109
   60.4485000000000        -7.989215098534075E-109
   60.6879000000000        -2.946216864923582E-109
   60.9273000000000         9.010299707286923E-109
   61.1667000000000         3.015416816430895E-108
   61.4061000000000         6.102163640455737E-108
   61.6455000000000         9.812070740508207E-108
   61.8849000000000         1.308893623285395E-107
   62.1243000000000         1.384948277757629E-107
   62.3637000000000         8.785707091709158E-108
   62.6031000000000        -6.465022001065185E-108
   62.8425000000000        -3.642009038569690E-107
   63.0819000000000        -8.367822551767740E-107
   63.3213000000000        -1.452633776918861E-106
   63.5607000000000        -2.072509452332646E-106
   63.8001000000000        -2.382121569931836E-106
   64.0395000000000        -1.832367911741714E-106
   64.2789000000000         3.784327154111766E-107
   64.5183000000000         5.220196697714694E-106
   64.7577000000000         1.356028868461441E-105
   64.9971000000000         2.560818198442497E-105
   65.2365000000000         3.999288775318607E-105
   65.4759000000000         5.246253017045158E-105
   65.7153000000000         5.435797388059903E-105
   65.9547000000000         3.129805173438447E-105
   66.1941000000000        -3.706165762073230E-105
   66.4335000000000        -1.747989718796854E-104
   66.6729000000000        -4.030877764834282E-104
   66.9123000000000        -7.269071179177401E-104
   67.1517000000000        -1.113167452209612E-103
   67.3911000000000        -1.459846217724844E-103
   67.6305000000000        -1.559166673847389E-103
   67.8699000000000        -1.063922027296071E-103
   68.1093000000000         5.248672611144289E-104
   68.3487000000000         3.819101570846354E-103
   68.5881000000000         9.411405921629670E-103
   68.8275000000000         1.759892574255023E-102
   69.0669000000000         2.791535405820614E-102
   69.3063000000000         3.844907914037871E-102
   69.5457000000000         4.498818194840426E-102
   69.7851000000000         4.014820123904175E-102
   70.0245000000000         1.281678614615605E-102
   70.2639000000000        -5.151216275410855E-102
   70.5033000000000        -1.686726433815599E-101
   70.7427000000000        -3.509579233317100E-101
   70.9821000000000        -5.983216005095844E-101
   71.2215000000000        -8.848398039496019E-101
   71.4609000000000        -1.140591763964783E-100
   71.7003000000000        -1.231036337247763E-100
   71.9397000000000        -9.391035767682198E-101
   72.1791000000000         4.033223041328109E-102
   72.4185000000000         2.078490774048900E-100
   72.6579000000000         5.542688011249514E-100
   72.8973000000000         1.065431480308188E-099
   73.1367000000000         1.725264362461962E-099
   73.3761000000000         2.445409146055877E-099
   73.6155000000000         3.022400925822609E-099
   73.8549000000000         3.092699618563614E-099
   74.0943000000000         2.099609190150574E-099
   74.3337000000000        -7.040176246956226E-100
   74.5731000000000        -6.182183781657131E-099
   74.8125000000000        -1.512621056069473E-098
   75.0519000000000        -2.790022715571527E-098
   75.2913000000000        -4.388183764295738E-098
   75.5307000000000        -6.069007146278558E-098
   75.7701000000000        -7.325851001558341E-098
   76.0095000000000        -7.292122174335057E-098
   76.2489000000000        -4.683771383489534E-098
   76.4883000000000         2.171643004810591E-098
   76.7277000000000         1.514518096697486E-097
   76.9671000000000         3.586483454935861E-097
   77.2065000000000         6.492795145375235E-097
   77.4459000000000         1.006996894753266E-096
   77.6853000000000         1.377023704162951E-096
   77.9247000000000         1.647406230574134E-096
   78.1641000000000         1.631309590618379E-096
   78.4035000000000         1.057166912628102E-096
   78.6429000000000        -4.226967794896448E-097
   78.8823000000000        -3.190441486167862E-096
   79.1217000000000        -7.570747620247134E-096
   79.3611000000000        -1.367133790453981E-095
   79.6005000000000        -2.114465251884730E-095
   79.8399000000000        -2.887415806321748E-095
   80.0793000000000        -3.461600896807404E-095
   80.3187000000000        -3.466907064460318E-095
   80.5581000000000        -2.370390026855417E-095
   80.7975000000000         5.050185878730129E-096
   81.0369000000000         5.899302212378214E-095
   81.2763000000000         1.444043162992124E-094
   81.5157000000000         2.634566261205273E-094
   81.7551000000000         4.098054306211577E-094
   81.9945000000000         5.628466759709658E-094
   82.2339000000000         6.812244076860751E-094
   82.4733000000000         6.969195978856297E-094
   82.7127000000000         5.122516524479351E-094
   82.9521000000000         3.291101103994272E-096
   83.1915000000000        -9.656945924772302E-094
   83.4309000000000        -2.511439681576541E-093
   83.6703000000000        -4.679502589804452E-093
   83.9097000000000        -7.367771392482856E-093
   84.1491000000000        -1.022747654515531E-092
   84.3885000000000        -1.255186259947485E-092
   84.6279000000000        -1.317512039309939E-092
   84.8673000000000        -1.042055829640905E-092
   85.1067000000000        -2.155765992282920E-093
   85.3461000000000         1.396983790673169E-092
   85.5855000000000         4.001936012243896E-092
   85.8249000000000         7.691517544811195E-092
   86.0643000000000         1.231933269549100E-091
   86.3037000000000         1.733979513879014E-091
   86.5431000000000         2.162802928152829E-091
   86.7825000000000         2.331614652461750E-091
   87.0219000000000         1.970703213794666E-091
   87.2613000000000         7.355212489794885E-092
   87.5007000000000        -1.756954197639199E-091
   87.7401000000000        -5.850591909283741E-091
   87.9795000000000        -1.171933267084927E-090
   88.2189000000000        -1.917682734521957E-090
   88.4583000000000        -2.743173160212379E-090
   88.6977000000000        -3.481358756117823E-090
   88.9371000000000        -3.852277025524042E-090
   89.1765000000000        -3.449443721793718E-090
   89.4159000000000        -1.750685414011859E-090
   89.6553000000000         1.829930746118610E-090
   89.8947000000000         7.830558004921593E-090
   90.1341000000000         1.655374514834156E-089
   90.3735000000000         2.779357095225900E-089
   90.6129000000000         4.048557744230491E-089
   90.8523000000000         5.231481178859439E-089
   91.0917000000000         5.935654747717969E-089
   91.3311000000000         5.587368547964124E-089
   91.5705000000000         3.444877370913762E-089
   91.8099000000000        -1.332421963206234E-089
   92.0493000000000        -9.534081333427695E-089
   92.2887000000000        -2.164594297419882E-088
   92.5281000000000        -3.748349817676485E-088
   92.7675000000000        -5.572206508369811E-088
   93.0069000000000        -7.337047830333601E-088
   93.2463000000000        -8.528557002578570E-088
   93.4857000000000        -8.388754723782426E-088
   93.7251000000000        -5.930387743740264E-088
   93.9645000000000        -2.270701422900933E-090
   94.2039000000000         1.042027302683364E-087
   94.4433000000000         2.612167527338371E-087
   94.6827000000000         4.698013685868465E-087
   94.9221000000000         7.147832007193404E-087
   95.1615000000000         9.601909269664398E-087
   95.4009000000000         1.143079687564678E-086
   95.6403000000000         1.169752790500559E-086
   95.8797000000000         9.171088846766335E-087
   96.1191000000000         2.425086963005885E-087
   96.3585000000000        -9.941688408246935E-087
   96.5979000000000        -2.893075411070111E-086
   96.8373000000000        -5.459954374510811E-086
   97.0767000000000        -8.536288213227223E-086
   97.3161000000000        -1.172062333475253E-085
   97.5555000000000        -1.429456532561825E-085
   97.7949000000000        -1.517530971617728E-085
   98.0343000000000        -1.292534101183847E-085
   98.2737000000000        -5.857178445759154E-086
   98.5131000000000         7.726090771728639E-086
   98.7525000000000         2.911900850982954E-085
   98.9919000000000         5.861285239457832E-085
   99.2313000000000         9.472203136369594E-085
   99.4707000000000         1.333077564928117E-084
   99.7101000000000         1.667420307548627E-084
   99.9495000000000         1.833428200633808E-084
   100.188900000000         1.674024134489184E-084
   100.428300000000         1.002055707219127E-084
   100.667700000000        -3.753700540936406E-085
   100.907100000000        -2.614683986295836E-084
   101.146500000000        -5.773860160663022E-084
   101.385900000000        -9.732142761484970E-084
   101.625300000000        -1.409835404925405E-083
   101.864700000000        -1.812187642373928E-083
   102.104100000000        -2.062903916891701E-083
   102.343500000000        -2.001655517603662E-083
   102.582900000000        -1.434092830098981E-083
   102.822300000000        -1.545630168171130E-084
   103.061700000000         2.013715977983867E-083
   103.301100000000         5.159020457523547E-083
   103.540500000000         9.203226235699490E-083
   103.779900000000         1.381181916447089E-082
   104.019300000000         1.830466139516336E-082
   104.258700000000         2.158831659326585E-082
   104.498100000000         2.213893181808873E-082
   104.737500000000         1.807139716377429E-082
   104.976900000000         7.333326879215664E-083
   105.216300000000        -1.194170324325297E-082
   105.455700000000        -4.090157838204490E-082
   105.695100000000        -7.927124970499641E-082
   105.934500000000        -1.245267697936549E-081
   106.173900000000        -1.710554639207063E-081
   106.413300000000        -2.094782506048328E-081
   106.652700000000        -2.263807092752770E-081
   106.892100000000        -2.047582327036956E-081
   107.131500000000        -1.255077025889306E-081
   107.370900000000         2.973083326130255E-082
   107.610300000000         2.741904164529381E-081
   107.849700000000         6.100769334780742E-081
   108.089100000000         1.021516312499548E-080
   108.328500000000         1.467169150710381E-080
   108.567900000000         1.873876614330850E-080
   108.807300000000         2.133267859150011E-080
   109.046700000000         2.103741777985828E-080
   109.286100000000         1.620486852792247E-080
   109.525500000000         5.160416236991468E-081
   109.764900000000        -1.346868896586140E-080
   110.004300000000        -4.030032131920390E-080
   110.243700000000        -7.464226142018892E-080
   110.483100000000        -1.138902245685523E-079
   110.722500000000        -1.529742581635493E-079
   110.961900000000        -1.839905130978590E-079
   111.201300000000        -1.961922891784786E-079
   111.440700000000        -1.765362408946533E-079
   111.680100000000        -1.109746662086861E-079
   111.919500000000         1.335994863951532E-080
   112.158900000000         2.050279901157886E-079
   112.398300000000         4.643178271683709E-079
   112.637700000000         7.787601074499522E-079
   112.877100000000         1.118697470656351E-078
   113.116500000000         1.433765330768456E-078
   113.355900000000         1.651396979777401E-078
   113.595300000000         1.678644384557716E-078
   113.834700000000         1.408635257699193E-078
   114.074100000000         7.327936586876460E-079
   114.313500000000        -4.405307416436545E-079
   114.552900000000        -2.161194462866156E-078
   114.792300000000        -4.407475120877647E-078
   115.031700000000        -7.054130296910197E-078
   115.271100000000        -9.842667349089306E-078
   115.510500000000        -1.235977193120567E-077
   115.749900000000        -1.403113827070437E-077
   115.989300000000        -1.413864578422427E-077
   116.228700000000        -1.186861144707626E-077
   116.468100000000        -6.397422919535966E-078
   116.707500000000         2.981987633078482E-078
   116.946900000000         1.669371751719636E-077
   117.186300000000         3.467917640712739E-077
   117.425700000000         5.617768705085439E-077
   117.665100000000         7.950874067955644E-077
   117.904500000000         1.018852667133742E-076
   118.143900000000         1.192950907480518E-076
   118.383300000000         1.264949036769968E-076
   118.622700000000         1.171671477120755E-076
   118.862100000000         8.429480575173418E-077
   119.101500000000         2.081144224542882E-077
   119.340900000000        -7.941743414705824E-077
   119.580300000000        -2.202332388105367E-076
   119.819700000000        -4.014135647911223E-076
   120.059100000000        -6.164986260545251E-076
   120.298500000000        -8.502859606899272E-076
   120.537900000000        -1.076167620726229E-075
   120.777300000000        -1.253636991281037E-075
   121.016700000000        -1.326501676203784E-075
   121.256100000000        -1.222601127040432E-075
   121.495500000000        -8.561218106066879E-076
   121.734900000000        -1.338814427098605E-076
   121.974300000000         1.032864222470001E-075
   122.213700000000         2.709573550739701E-075
   122.453100000000         4.911420480553862E-075
   122.692500000000         7.567998868001550E-075
   122.931900000000         1.048127698090268E-074
   123.171300000000         1.328089829572225E-074
   123.410700000000         1.538433677048754E-074
   123.650100000000         1.597349927892199E-074
   123.889500000000         1.400364773351586E-074
   124.128900000000         8.264147218764494E-075
   124.368300000000        -2.487713896295297E-075
   124.607700000000        -1.930037047580287E-074
   124.847100000000        -4.269682510806551E-074
   125.086500000000        -7.224089457670814E-074
   125.325900000000        -1.060262468159265E-073
   125.565300000000        -1.401459142003228E-073
   125.804700000000        -1.682400292050365E-073
   126.044100000000        -1.812634843214579E-073
   126.283500000000        -1.676560151690369E-073
   126.522900000000        -1.141242315949627E-073
   126.762300000000        -7.244389967272532E-075
   127.001700000000         1.639501293024916E-073
   127.241100000000         4.043381799774827E-073
   127.480500000000         7.081581991397004E-073
   127.719900000000         1.053914068102657E-072
   127.959300000000         1.399451340167542E-072
   128.198700000000         1.678291801848563E-072
   128.438100000000         1.798683355823807E-072
   128.677500000000         1.647104550145569E-072
   128.916900000000         1.098052423835045E-072
   129.156300000000         3.171278167710017E-074
   129.395700000000        -1.639566941645751E-072
   129.635100000000        -3.936321350505428E-072
   129.874500000000        -6.770704206895059E-072
   130.113900000000        -9.903537342010480E-072
   130.353300000000        -1.290714383356915E-071
   130.592700000000        -1.514435940700118E-071
   130.832100000000        -1.577656156345021E-071
   131.071500000000        -1.381478811619334E-071
   131.310900000000        -8.227148762943362E-072
   131.550300000000         1.888173445973437E-072
   131.789700000000         1.706281055953510E-071
   132.029100000000         3.716161865328422E-071
   132.268500000000         6.105667155304669E-071
   132.507900000000         8.631864610342496E-071
   132.747300000000         1.089933377441293E-070
   132.986700000000         1.235497333519343E-070
   133.226100000000         1.230977665807411E-070
   133.465500000000         9.997278896053519E-071
   133.704900000000         4.676364629777988E-071
   133.944300000000        -4.218368972989138E-071
   134.183700000000        -1.688285826709240E-070
   134.423100000000        -3.292084922945879E-070
   134.662500000000        -5.111926901761247E-070
   134.901900000000        -6.926257925718073E-070
   135.141300000000        -8.403996143873272E-070
   135.380700000000        -9.110842600922339E-070
   135.620100000000        -8.537689441968620E-070
   135.859500000000        -6.156706112009322E-070
   136.098900000000        -1.508269749357175E-070
   136.338300000000         5.682267481679227E-070
   136.577700000000         1.536498148006821E-069
   136.817100000000         2.701754176415137E-069
   137.056500000000         3.951224689591924E-069
   137.295900000000         5.102934462539485E-069
   137.535300000000         5.905451175989599E-069
   137.774700000000         6.050091163921399E-069
   138.014100000000         5.199255593236449E-069
   138.253500000000         3.033352457493561E-069
   138.492900000000        -6.834785414671099E-070
   138.732300000000        -6.021945144986991E-069