  -1.79550000000000         0.000000000000000E+000
  -1.55610000000000         0.000000000000000E+000
  -1.31670000000000         0.000000000000000E+000
  -1.07730000000000         0.000000000000000E+000
 -0.837900000000000         0.000000000000000E+000
 -0.598500000000000         0.000000000000000E+000
 -0.359100000000000         0.000000000000000E+000
 -0.119700000000000         0.000000000000000E+000
  0.119700000000000         0.000000000000000E+000
  0.359100000000000         0.000000000000000E+000
  0.598500000000000         0.000000000000000E+000
  0.837900000000000         0.000000000000000E+000
   1.07730000000000         0.000000000000000E+000
   1.31670000000000         0.000000000000000E+000
   1.55610000000000         0.000000000000000E+000
   1.79550000000000         0.000000000000000E+000
   2.03490000000000         0.000000000000000E+000
   2.27430000000000         0.000000000000000E+000
   2.51370000000000         0.000000000000000E+000
   2.75310000000000         0.000000000000000E+000
   2.99250000000000         0.000000000000000E+000
   3.23190000000000         0.000000000000000E+000
   3.47130000000000         0.000000000000000E+000
   3.71070000000000         0.000000000000000E+000
   3.95010000000000         0.000000000000000E+000
   4.18950000000000         0.000000000000000E+000
   4.42890000000000         0.000000000000000E+000
   4.66830000000000         0.000000000000000E+000
   4.90770000000000         0.000000000000000E+000
   5.14710000000000         0.000000000000000E+000
   5.38650000000000         0.000000000000000E+000
   5.62590000000000         0.000000000000000E+000
   5.86530000000000         0.000000000000000E+000
   6.10470000000000         0.000000000000000E+000
   6.34410000000000         0.000000000000000E+000
   6.58350000000000         0.000000000000000E+000
   6.82290000000000         0.000000000000000E+000
   7.06230000000000         0.000000000000000E+000
   7.30170000000000         0.000000000000000E+000
   7.54110000000000         0.000000000000000E+000
   7.78050000000000         0.000000000000000E+000
   8.01990000000000         0.000000000000000E+000
   8.25930000000000         0.000000000000000E+000
   8.49870000000000         0.000000000000000E+000
   8.73810000000000         0.000000000000000E+000
   8.97750000000000         0.000000000000000E+000
   9.21690000000000         0.000000000000000E+000
   9.45630000000000         0.000000000000000E+000
   9.69570000000000         0.000000000000000E+000
   9.93510000000000         0.000000000000000E+000
   10.1745000000000         0.000000000000000E+000
   10.4139000000000        -5.358653592516182E-207
   10.6533000000000         7.845575723974036E-200
   10.8927000000000         2.666600473228156E-198
   11.1321000000000        -1.617726761002439E-195
   11.3715000000000        -1.208082512115669E-193
   11.6109000000000        -4.316136350711346E-192
   11.8503000000000        -9.890276033806513E-191
   12.0897000000000        -1.605459091771576E-189
   12.3291000000000        -1.890604080871583E-188
   12.5685000000000        -1.505674492529816E-187
   12.8079000000000        -4.388218170640809E-187
   13.0473000000000         9.513842309958674E-186
   13.2867000000000         2.156747739154651E-184
   13.5261000000000         2.809808397157207E-183
   13.7655000000000         2.833672913673496E-182
   14.0049000000000         2.396219425448776E-181
   14.2443000000000         1.759157643786152E-180
   14.4837000000000         1.142179317366796E-179
   14.7231000000000         6.632394455756449E-179
   14.9625000000000         3.474057807248925E-178
   15.2019000000000         1.661555845716523E-177
   15.4413000000000         7.472298960467632E-177
   15.6807000000000         3.396369101490551E-176
   15.9201000000000         1.761754489617718E-175
   16.1595000000000         1.120063479683799E-174
   16.3989000000000         8.101353716549626E-174
   16.6383000000000         5.932395415618048E-173
   16.8777000000000         4.121021699830872E-172
   17.1171000000000         2.654970361697704E-171
   17.3565000000000         1.578393160503531E-170
   17.5959000000000         8.659965486907807E-170
   17.8353000000000         4.386701534201993E-169
   18.0747000000000         2.048810691356937E-168
   18.3141000000000         8.782080038309110E-168
   18.5535000000000         3.418771792615957E-167
   18.7929000000000         1.181746282586903E-166
   19.0323000000000         3.435885652064461E-166
   19.2717000000000         7.012788021097215E-166
   19.5111000000000        -1.312810440398992E-166
   19.7505000000000        -1.152270993989193E-164
   19.9899000000000        -8.094457590927918E-164
   20.2293000000000        -4.102229236917339E-163
   20.4687000000000        -1.752885904333087E-162
   20.7081000000000        -6.610327480753123E-162
   20.9475000000000        -2.230952430436097E-161
   21.1869000000000        -6.713533224228074E-161
   21.4263000000000        -1.757698755408478E-160
   21.6657000000000        -3.717627286654527E-160
   21.9051000000000        -4.616048239841374E-160
   22.1445000000000         8.587169843535941E-160
   22.3839000000000         9.067110926143446E-159
   22.6233000000000         4.260271877822388E-158
   22.8627000000000         1.536548712231682E-157
   23.1021000000000         4.642322199694267E-157
   23.3415000000000         1.182638828255263E-156
   23.5809000000000         2.391666078209375E-156
   23.8203000000000         2.807852991711156E-156
   24.0597000000000        -4.957283636329979E-156
   24.2991000000000        -4.903115692425373E-155
   24.5385000000000        -2.164543617226133E-154
   24.7779000000000        -7.359248686767907E-154
   25.0173000000000        -2.111094290828958E-153
   25.2567000000000        -5.187279307979163E-153
   25.4961000000000        -1.054993052100409E-152
   25.7355000000000        -1.518281243344802E-152
   25.9749000000000        -5.864786421909630E-154
   26.2143000000000         1.013486997037612E-151
   26.4537000000000         4.914633704060017E-151
   26.6931000000000         1.673240904582221E-150
   26.9325000000000         4.719365043215849E-150
   27.1719000000000         1.145702233814332E-149
   27.4113000000000         2.373124098605268E-149
   27.6507000000000         3.908194165546611E-149
   27.8901000000000         3.597929034464464E-149
   28.1295000000000        -6.622695180723551E-149
   28.3689000000000        -4.989235232485898E-148
   28.6083000000000        -1.819726004041466E-147
   28.8477000000000        -5.170137087026968E-147
   29.0871000000000        -1.244236960305757E-146
   29.3265000000000        -2.565059715799914E-146
   29.5659000000000        -4.348429781490761E-146
   29.8053000000000        -5.028789789857224E-146
   30.0447000000000         1.192736454880405E-146
   30.2841000000000         3.033673493291437E-145
   30.5235000000000         1.193397522547051E-144
   30.7629000000000         3.405148411534738E-144
   31.0023000000000         8.091501363909915E-144
   31.2417000000000         1.647071750277860E-143
   31.4811000000000         2.805631686436827E-143
   31.7205000000000         3.540321252453949E-143
   31.9599000000000         1.161966192689183E-143
   32.1993000000000        -1.146943197684291E-142
   32.4387000000000        -5.013761842957363E-142
   32.6781000000000        -1.445344803807225E-141
   32.9175000000000        -3.405459436119521E-141
   33.1569000000000        -6.871015097466723E-141
   33.3963000000000        -1.178099492620539E-140
   33.6357000000000        -1.591161786495516E-140
   33.8751000000000        -1.127326355865592E-140
   34.1145000000000         2.269044740453131E-140
   34.3539000000000         1.297727348033177E-139
   34.5933000000000         3.894027448648877E-139
   34.8327000000000         9.207571397038096E-139
   35.0721000000000         1.851363612843460E-138
   35.3115000000000         3.191725922952818E-138
   35.5509000000000         4.511049528659454E-138
   35.7903000000000         4.259816843022227E-138
   36.0297000000000        -1.422191899788090E-138
   36.2691000000000        -2.043075577563431E-137
   36.5085000000000        -6.647358704786252E-137
   36.7479000000000        -1.592400560540570E-136
   36.9873000000000        -3.190803598684577E-136
   37.2267000000000        -5.488632833826624E-136
   37.4661000000000        -7.916362829866421E-136
   37.7055000000000        -8.505697064039695E-136
   37.9449000000000        -2.633354478301865E-136
   38.1843000000000         1.852784470197698E-135
   38.4237000000000         6.911308831768570E-135
   38.6631000000000         1.674512124976035E-134
   38.9025000000000         3.295248035458476E-134
   39.1419000000000         5.525673736086388E-134
   39.3813000000000         7.849821536376757E-134
   39.6207000000000         8.844232376384460E-134
   39.8601000000000         5.810975039007367E-134
   40.0995000000000        -5.082773469635761E-134
   40.3389000000000        -2.733010937105670E-133
   40.5783000000000        -6.024462287870885E-133
   40.8177000000000        -9.242130088159573E-133
   41.0571000000000        -9.524088687881098E-133
   41.2965000000000        -2.700845452640264E-133
   41.5359000000000         1.262946897246671E-132
   41.7753000000000         2.238527758247103E-132
   42.0147000000000        -3.188583386849421E-132
   42.2541000000000        -3.057515075496954E-131
   42.4935000000000        -1.127638460744367E-130
   42.7329000000000        -3.067140197882581E-130
   42.9723000000000        -6.894920472237350E-130
   43.2117000000000        -1.319668922604239E-129
   43.4511000000000        -2.118386421700405E-129
   43.6905000000000        -2.596520098407827E-129
   43.9299000000000        -1.334437630038503E-129
   44.1693000000000         4.854125593682813E-129
   44.4087000000000         2.199538543292217E-128
   44.6481000000000         5.978373875512405E-128
   44.8875000000000         1.308284808748054E-127
   45.1269000000000         2.454667527549458E-127
   45.3663000000000         3.970290922401878E-127
   45.6057000000000         5.298102282282279E-127
   45.8451000000000         4.804352352908689E-127
   46.0845000000000        -1.137052411768713E-127
   46.3239000000000        -1.931018032704680E-126
   46.5633000000000        -6.062780709763700E-126
   46.8027000000000        -1.397236214866289E-125
   47.0421000000000        -2.707188336446089E-125
   47.2815000000000        -4.548871870211837E-125
   47.5209000000000        -6.538546851994062E-125
   47.7603000000000        -7.406940654031922E-125
   47.9997000000000        -4.232610328873138E-125
   48.2391000000000         8.560545037642061E-125
   48.4785000000000         4.015056998342260E-124
   48.7179000000000         1.034216088367957E-123
   48.9573000000000         2.125970190531782E-123
   49.1967000000000         3.755626964761528E-123
   49.4361000000000         5.766359556748265E-123
   49.6755000000000         7.445441315449242E-123
   49.9149000000000         7.011774208053246E-123
   50.1543000000000         9.180563431754694E-124
   50.3937000000000        -1.689121678738811E-122
   50.6331000000000        -5.535464952068769E-122
   50.8725000000000        -1.254311084681533E-121
   51.1119000000000        -2.364577084404869E-121
   51.3513000000000        -3.873782749714850E-121
   51.5907000000000        -5.498211978510903E-121
   51.8301000000000        -6.401058410065589E-121
   52.0695000000000        -4.792973047803390E-121
   52.3089000000000         2.537427509705366E-121
   52.5483000000000         2.059261366890669E-120
   52.7877000000000         5.605401362157728E-120
   53.0271000000000         1.159929325968193E-119
   53.2665000000000         2.043100054514279E-119
   53.5059000000000         3.144265987356351E-119
   53.7453000000000         4.166275690639944E-119
   53.9847000000000         4.390450999902649E-119
   54.2241000000000         2.433126619358518E-119
   54.4635000000000        -3.995763917863931E-119
   54.7029000000000        -1.819541958286517E-118
   54.9423000000000        -4.417526583098082E-118
   55.1817000000000        -8.552273117636520E-118
   55.4211000000000        -1.428236585063279E-117
   55.6605000000000        -2.089018588177794E-117
   55.8999000000000        -2.612391275555418E-117
   56.1393000000000        -2.514980165652029E-117
   56.3787000000000        -9.345931946192340E-118
   56.6181000000000         3.466541108144886E-117
   56.8575000000000         1.249159756052304E-116
   57.0969000000000         2.814762181909022E-116
   57.3363000000000         5.191490356966944E-116
   57.5757000000000         8.326414479355862E-116
   57.8151000000000         1.171234384806634E-115
   58.0545000000000         1.401071285882921E-115
   58.2939000000000         1.256660068639588E-115
   58.5333000000000         2.904944582145334E-116
   58.7727000000000        -2.157594091929063E-115
   59.0121000000000        -6.930601260292170E-115
   59.2515000000000        -1.489830570413314E-114
   59.4909000000000        -2.658253725569337E-114
   59.7303000000000        -4.145272922460734E-114
   59.9697000000000        -5.678918755700096E-114
   60.2091000000000        -6.607713631427807E-114
   60.4485000000000        -5.705949090584725E-114
   60.6879000000000        -9.890604442929861E-115
   60.9273000000000         1.036570035712382E-113
   61.1667000000000         3.182585468509436E-113
   61.4061000000000         6.678199664797808E-113
   61.6455000000000         1.169569184258211E-112
   61.8849000000000         1.795619224112257E-112
   62.1243000000000         2.428856383317589E-112
   62.3637000000000         2.802854411767682E-112
   62.6031000000000         2.431890011956288E-112
   62.8425000000000         5.485503000205292E-113
   63.0819000000000        -3.915907345996005E-112
   63.3213000000000        -1.224927890907680E-111
   63.5607000000000        -2.568709534955735E-111
   63.8001000000000        -4.483988578042926E-111
   64.0395000000000        -6.869727066988512E-111
   64.2789000000000        -9.311543146559557E-111
   64.5183000000000        -1.087920752557968E-110
   64.7577000000000        -9.893999089946291E-111
   64.9971000000000        -3.722945589327754E-111
   65.2365000000000         1.128867240208312E-110
   65.4759000000000         3.956259307528116E-110
   65.7153000000000         8.544311484417503E-110
   65.9547000000000         1.514201873181757E-109
   66.1941000000000         2.350476486085951E-109
   66.4335000000000         3.242608710706946E-109
   66.6729000000000         3.910688349206683E-109
   66.9123000000000         3.841724327088927E-109
   67.1517000000000         2.220655856403823E-109
   67.3911000000000        -2.102920676139169E-109
   67.6305000000000        -1.056064779714891E-108
   67.8699000000000        -2.464760654018711E-108
   68.1093000000000        -4.544057421827892E-108
   68.3487000000000        -7.273819474126996E-108
   68.5881000000000        -1.037207452075048E-107
   68.8275000000000        -1.310882189167502E-107
   69.0669000000000        -1.407770671479531E-107
   69.3063000000000        -1.096149613495356E-107
   69.5457000000000        -3.684595399851305E-109
   69.7851000000000         2.212484858481345E-107
   70.0245000000000         6.151523863492911E-107
   70.2639000000000         1.222103284067214E-106
   70.5033000000000         2.058096270218705E-106
   70.7427000000000         3.074693755624041E-106
   70.9821000000000         4.106027232780199E-106
   71.2215000000000         4.799877320910361E-106
   71.4609000000000         4.540002373467684E-106
   71.7003000000000         2.377799768771916E-106
   71.9397000000000        -2.992257866790319E-106
   72.1791000000000        -1.315708657379447E-105
   72.4185000000000        -2.972745821224227E-105
   72.6579000000000        -5.379250899634163E-105
   72.8973000000000        -8.496813078780503E-105
   73.1367000000000        -1.199381663790231E-104
   73.3761000000000        -1.504594800367076E-104
   73.6155000000000        -1.609630561798430E-104
   73.8549000000000        -1.261715366419633E-104
   74.0943000000000        -9.602295223116157E-106
   74.3337000000000         2.355552334480600E-104
   74.5731000000000         6.609495903122386E-104
   74.8125000000000         1.309979398127039E-103
   75.0519000000000         2.193652834317298E-103
   75.2913000000000         3.252215663006249E-103
   75.5307000000000         4.301085114167459E-103
   75.7701000000000         4.963691400573833E-103
   76.0095000000000         4.601255886790856E-103
   76.2489000000000         2.261185995433293E-103
   76.4883000000000        -3.318125073935413E-103
   76.7277000000000        -1.358887590167991E-102
   76.9671000000000        -2.988535369681159E-102
   77.2065000000000        -5.283691457807045E-102
   77.4459000000000        -8.142103793583743E-102
   77.6853000000000        -1.116180429271510E-101
   77.9247000000000        -1.347294530917204E-101
   78.1641000000000        -1.356025592929883E-101
   78.4035000000000        -9.128182449432801E-102
   78.6429000000000         2.901618293078732E-102
   78.8823000000000         2.612671547821294E-101
   79.1217000000000         6.395898206778895E-101
   79.3611000000000         1.182807816004453E-100
   79.6005000000000         1.872884842049871E-100
   79.8399000000000         2.624560680944237E-100
   80.0793000000000         3.247848797506325E-100
   80.3187000000000         3.409087433332830E-100
   80.5581000000000         2.602229143411848E-100
   80.7975000000000         1.498581090373688E-101
   81.0369000000000        -4.737865490401064E-100
   81.2763000000000        -1.281058460870879E-099
   81.5157000000000        -2.449292303894148E-099
   81.7551000000000        -3.943633104400647E-099
   81.9945000000000        -5.590105540008478E-099
   82.2339000000000        -7.001128713079220E-099
   82.4733000000000        -7.500789856310789E-099
   82.7127000000000        -6.073879542463322E-099
   82.9521000000000        -1.377034275500277E-099
   83.1915000000000         8.134673412607880E-099
   83.4309000000000         2.390096975926344E-098
   83.6703000000000         4.670383213923367E-098
   83.9097000000000         7.582284172794654E-098
   84.1491000000000         1.079033340450435E-097
   84.3885000000000         1.356373097116124E-097
   84.6279000000000         1.465044288889935E-097
   84.8673000000000         1.220193418161650E-097
   85.1067000000000         3.816451215057538E-098
   85.3461000000000        -1.320888326973065E-097
   85.5855000000000        -4.131325993583840E-097
   85.8249000000000        -8.169750413623648E-097
   86.0643000000000        -1.328847844957484E-096
   86.3037000000000        -1.888571911034947E-096
   86.5431000000000        -2.369720412637608E-096
   86.7825000000000        -2.561005746543107E-096
   87.0219000000000        -2.157362671645893E-096
   87.2613000000000        -7.715270799791206E-097
   87.5007000000000         2.020251974224830E-096
   87.7401000000000         6.583633257121691E-096
   87.9795000000000         1.307039913690606E-095
   88.2189000000000         2.119713639128883E-095
   88.4583000000000         2.996983060930805E-095
   88.6977000000000         3.739094941988534E-095
   88.9371000000000         4.022013642981471E-095
   89.1765000000000         3.390095742188016E-095
   89.4159000000000         1.280751052227140E-095
   89.6553000000000        -2.900587789671079E-095
   89.8947000000000        -9.636909634148385E-095
   90.1341000000000        -1.907454738066482E-094
   90.3735000000000        -3.071684513015371E-094
   90.6129000000000        -4.306016184959718E-094
   90.8523000000000        -5.323033351218043E-094
   91.0917000000000        -5.672213910069509E-094
   91.3311000000000        -4.739349969228247E-094
   91.5705000000000        -1.790972802609593E-094
   91.8099000000000         3.914538651037046E-094
   92.0493000000000         1.292980991071754E-093
   92.2887000000000         2.532538804277798E-093
   92.5281000000000         4.031005028201075E-093
   92.7675000000000         5.580462063127600E-093
   93.0069000000000         6.805164652139670E-093
   93.2463000000000         7.139355173366988E-093
   93.4857000000000         5.840203711134881E-093
   93.7251000000000         2.057757290271198E-093
   93.9645000000000        -5.016026568799072E-093
   94.2039000000000        -1.590280549684159E-092
   94.4433000000000        -3.049583435148797E-092
   94.6827000000000        -4.764320804040915E-092
   94.9221000000000        -6.471539109168550E-092
   95.1615000000000        -7.726158976887750E-092
   95.4009000000000        -7.890837397006753E-092
   95.6403000000000        -6.169504805736747E-092
   95.8797000000000        -1.705696264465092E-092
   96.1191000000000         6.236117099715552E-092
   96.3585000000000         1.799784098666223E-091
   96.5979000000000         3.317420706911137E-091
   96.8373000000000         5.021767742774872E-091
   97.0767000000000         6.607882265795743E-091
   97.3161000000000         7.600143768490513E-091
   97.5555000000000         7.362990846668379E-091
   97.7949000000000         5.160733818048376E-091
   98.0343000000000         2.829201915110208E-092
   98.2737000000000        -7.755086047523029E-091
   98.5131000000000        -1.894069392693696E-090
   98.7525000000000        -3.244847189198468E-090
   98.9919000000000        -4.633673969305774E-090
   99.2313000000000        -5.734684620551918E-090
   99.4707000000000        -6.092731171565632E-090
   99.7101000000000        -5.162379674369018E-090
   99.9495000000000        -2.396764967212511E-090
   100.188900000000         2.605545631129416E-090
   100.428300000000         9.898433339888331E-090
   100.667700000000         1.895113431302926E-089
   100.907100000000         2.842012857320406E-089
   101.146500000000         3.600123372404959E-089
   101.385900000000         3.845861794870881E-089
   101.625300000000         3.194259757944336E-089
   101.864700000000         1.270134395958507E-089
   102.104100000000        -2.175030609005478E-089
   102.343500000000        -7.103132360106437E-089
   102.582900000000        -1.300353464956090E-088
   102.822300000000        -1.871797686826335E-088
   103.061700000000        -2.233594819602634E-088
   103.301100000000        -2.124186445955436E-088
   103.540500000000        -1.240885259348714E-088
   103.779900000000         6.970493990462817E-089
   104.019300000000         3.845976887613213E-088
   104.258700000000         8.097833019923634E-088
   104.498100000000         1.291643159930413E-087
   104.737500000000         1.718097166373330E-087
   104.976900000000         1.908778494851360E-087
   105.216300000000         1.618142012020436E-087
   105.455700000000         5.600414870290533E-088
   105.695100000000        -1.537650668435088E-087
   105.934500000000        -4.842140214312846E-087
   106.173900000000        -9.288005419087017E-087
   106.413300000000        -1.442207777496958E-086
   106.652700000000        -1.924460196766770E-086
   106.892100000000        -2.208823486968574E-086
   107.131500000000        -2.059551038091581E-086
   107.370900000000        -1.187136546672451E-086
   107.610300000000         7.106208953350727E-087
   107.849700000000         3.874559033640197E-086
   108.089100000000         8.373733127144450E-086
   108.328500000000         1.396258500465062E-085
   108.567900000000         1.992093566096098E-085
   108.807300000000         2.490702396222676E-085
   109.046700000000         2.687110731185273E-085
   109.286100000000         2.309382520573868E-085
   109.525500000000         1.042492278609453E-085
   109.764900000000        -1.420236954809728E-085
   110.004300000000        -5.292563750024969E-085
   110.243700000000        -1.057672969112010E-084
   110.483100000000        -1.691790542818836E-084
   110.722500000000        -2.345017914253988E-084
   110.961900000000        -2.866685657782155E-084
   111.201300000000        -3.036326004488302E-084
   111.440700000000        -2.571371459556093E-084
   111.680100000000        -1.155145911711838E-084
   111.919500000000         1.508499541828518E-084
   112.158900000000         5.609949357614146E-084
   112.398300000000         1.111889503269995E-083
   112.637700000000         1.764833533279274E-083
   112.877100000000         2.431659604748951E-083
   113.116500000000         2.963889761995476E-083
   113.355900000000         3.149265364923352E-083
   113.595300000000         2.721068750739550E-083
   113.834700000000         1.385992973143415E-083
   114.074100000000        -1.124490884168386E-083
   114.313500000000        -4.976771714561990E-083
   114.552900000000        -1.013375763400673E-082
   114.792300000000        -1.623832618887158E-082
   115.031700000000        -2.249909443444853E-082
   115.271100000000        -2.760596233761204E-082
   115.510500000000        -2.971237037012703E-082
   115.749900000000        -2.652782590606162E-082
   115.989300000000        -1.556480380676214E-082
   116.228700000000         5.425024738275445E-083
   116.468100000000         3.781264232694376E-082
   116.707500000000         8.127708705974634E-082
   116.946900000000         1.328939783980273E-081
   117.186300000000         1.862737379760579E-081
   117.425700000000         2.309681312985574E-081
   117.665100000000         2.524274685633894E-081
   117.904500000000         2.328271619630323E-081
   118.143900000000         1.530679287733735E-081
   118.383300000000        -3.836173091566107E-083
   118.622700000000        -2.479550873200587E-081
   118.862100000000        -5.764948966462928E-081
   119.101500000000        -9.673724518543890E-081
   119.340900000000        -1.373447067678669E-080
   119.580300000000        -1.719012134853079E-080
   119.819700000000        -1.900515136419669E-080
   120.059100000000        -1.793600379924498E-080
   120.298500000000        -1.268297731227401E-080
   120.537900000000        -2.133609763479455E-081
   120.777300000000         1.430717840769309E-080
   121.016700000000         3.632644761820437E-080
   121.256100000000         6.230540357369861E-080
   121.495500000000         8.899699407909715E-080
   121.734900000000         1.113877948759633E-079
   121.974300000000         1.228685468355513E-079
   122.213700000000         1.158332805908366E-079
   122.453100000000         8.279306063168497E-080
   122.692500000000         1.801915973467669E-080
   122.931900000000        -8.038144469176523E-080
   123.171300000000        -2.082036940887442E-079
   123.410700000000        -3.531102736686400E-079
   123.650100000000        -4.934033963025493E-079
   123.889500000000        -5.982940617263449E-079
   124.128900000000        -6.303719395573378E-079
   124.368300000000        -5.508304897965951E-079
   124.607700000000        -3.276414824991692E-079
   124.847100000000         5.372896064618760E-080
   125.086500000000         5.783025737761128E-079
   125.325900000000         1.190497537952042E-078
   125.565300000000         1.787184474793896E-078
   125.804700000000         2.218870038957749E-078
   126.044100000000         2.303197721877598E-078
   126.283500000000         1.854252932561043E-078
   126.522900000000         7.291970418962756E-079
   126.762300000000        -1.109709445046069E-078
   127.001700000000        -3.524619990937490E-078
   127.241100000000        -6.136247080530117E-078
   127.480500000000        -8.282275459016246E-078
   127.719900000000        -9.025217912300553E-078
   127.959300000000        -7.237497873590780E-078
   128.198700000000        -1.788883503836697E-078
   128.438100000000         8.148975815006864E-078
   128.677500000000         2.268628119573206E-077
   128.916900000000         4.072323673332834E-077
   129.156300000000         5.945915392296772E-077
   129.395700000000         7.402508893792666E-077
   129.635100000000         7.740679558524414E-077
   129.874500000000         6.085569176621043E-077
   130.113900000000         1.498818581714874E-077
   130.353300000000        -6.826903533670867E-077
   130.592700000000        -1.928349042486490E-076
   130.832100000000        -3.548570197140949E-076
   131.071500000000        -5.387029027404648E-076
   131.310900000000        -7.132582288294808E-076
   131.550300000000        -8.295756357373646E-076
   131.789700000000        -8.212279720433629E-076
   132.029100000000        -6.089065572432736E-076
   132.268500000000        -1.107561272934353E-076
   132.507900000000         7.404698372864374E-076
   132.747300000000         1.973231210807807E-075
   132.986700000000         3.547229287540129E-075
   133.226100000000         5.320848568874200E-075
   133.465500000000         7.021628727970596E-075
   133.704900000000         8.227944665277770E-075
   133.944300000000         8.372324952038389E-075
   134.183700000000         6.778132154163139E-075
   134.423100000000         2.740858758476809E-075
   134.662500000000        -4.337812508893052E-075
   134.901900000000        -1.476157094590137E-074
   135.141300000000        -2.830552928960084E-074
   135.380700000000        -4.396002758838652E-074
   135.620100000000        -5.969291851726602E-074
   135.859500000000        -7.228966611779872E-074
   136.098900000000        -7.734713680251314E-074
   136.338300000000        -6.950698151310831E-074
   136.577700000000        -4.301248813663792E-074
   136.817100000000         7.347265132760379E-075
   137.056500000000         8.488571168661004E-074
   137.295900000000         1.893101157109259E-073
   137.535300000000         3.148046681982322E-073
   137.774700000000         4.481745326626892E-073
   138.014100000000         5.674503992427977E-073
   138.253500000000         6.414729523093183E-073
   138.492900000000         6.310570001567978E-073
   138.732300000000         4.923398170687401E-073