  -1.79550000000000         0.000000000000000E+000
  -1.55610000000000         0.000000000000000E+000
  -1.31670000000000         0.000000000000000E+000
  -1.07730000000000         0.000000000000000E+000
 -0.837900000000000         0.000000000000000E+000
 -0.598500000000000         0.000000000000000E+000
 -0.359100000000000         0.000000000000000E+000
 -0.119700000000000         0.000000000000000E+000
  0.119700000000000         0.000000000000000E+000
  0.359100000000000         0.000000000000000E+000
  0.598500000000000         0.000000000000000E+000
  0.837900000000000         0.000000000000000E+000
   1.07730000000000         0.000000000000000E+000
   1.31670000000000         0.000000000000000E+000
   1.55610000000000         0.000000000000000E+000
   1.79550000000000         0.000000000000000E+000
   2.03490000000000         0.000000000000000E+000
   2.27430000000000         0.000000000000000E+000
   2.51370000000000         0.000000000000000E+000
   2.75310000000000         0.000000000000000E+000
   2.99250000000000         0.000000000000000E+000
   3.23190000000000         0.000000000000000E+000
   3.47130000000000         0.000000000000000E+000
   3.71070000000000         0.000000000000000E+000
   3.95010000000000         0.000000000000000E+000
   4.18950000000000         0.000000000000000E+000
   4.42890000000000         0.000000000000000E+000
   4.66830000000000         0.000000000000000E+000
   4.90770000000000         0.000000000000000E+000
   5.14710000000000         0.000000000000000E+000
   5.38650000000000         0.000000000000000E+000
   5.62590000000000         0.000000000000000E+000
   5.86530000000000         0.000000000000000E+000
   6.10470000000000         0.000000000000000E+000
   6.34410000000000         0.000000000000000E+000
   6.58350000000000         0.000000000000000E+000
   6.82290000000000         0.000000000000000E+000
   7.06230000000000         0.000000000000000E+000
   7.30170000000000         0.000000000000000E+000
   7.54110000000000         0.000000000000000E+000
   7.78050000000000         0.000000000000000E+000
   8.01990000000000         0.000000000000000E+000
   8.25930000000000         0.000000000000000E+000
   8.49870000000000         0.000000000000000E+000
   8.73810000000000         0.000000000000000E+000
   8.97750000000000         0.000000000000000E+000
   9.21690000000000         0.000000000000000E+000
   9.45630000000000         0.000000000000000E+000
   9.69570000000000         0.000000000000000E+000
   9.93510000000000         0.000000000000000E+000
   10.1745000000000         3.417271913717115E-207
   10.4139000000000        -4.440340825179849E-199
   10.6533000000000        -2.279323045391196E-197
   10.8927000000000         9.205932822098438E-195
   11.1321000000000         6.046925112993932E-193
   11.3715000000000         1.789376506868390E-191
   11.6109000000000         3.127914759417180E-190
   11.8503000000000         3.227707772023732E-189
   12.0897000000000         1.011394553682752E-188
   12.3291000000000        -2.828387433003492E-187
   12.5685000000000        -5.845219147405963E-186
   12.8079000000000        -5.577149609790063E-185
   13.0473000000000        -1.419463484363742E-184
   13.2867000000000         4.995571218074531E-183
   13.5261000000000         1.100938335753897E-181
   13.7655000000000         1.455175115039536E-180
   14.0049000000000         1.500285949987811E-179
   14.2443000000000         1.302954699049378E-178
   14.4837000000000         9.863708185332146E-178
   14.7231000000000         6.620998701090810E-177
   14.9625000000000         3.967171899902442E-176
   15.2019000000000         2.114737987834092E-175
   15.4413000000000         9.839399803530500E-175
   15.6807000000000         3.773413556424934E-174
   15.9201000000000         9.585649870987730E-174
   16.1595000000000        -1.070867630336404E-173
   16.3989000000000        -3.662212462916174E-172
   16.6383000000000        -3.256139465340083E-171
   16.8777000000000        -2.165146288561785E-170
   17.1171000000000        -1.227569177121933E-169
   17.3565000000000        -6.188234905307966E-169
   17.5959000000000        -2.816803160505218E-168
   17.8353000000000        -1.160680726035859E-167
   18.0747000000000        -4.293372258320984E-167
   18.3141000000000        -1.390360206907238E-166
   18.5535000000000        -3.685159645034130E-166
   18.7929000000000        -6.155852557272300E-166
   19.0323000000000         8.478396464865894E-166
   19.2717000000000         1.412431679696159E-164
   19.5111000000000         8.396739378115219E-164
   19.7505000000000         3.765573536888007E-163
   19.9899000000000         1.419662222623689E-162
   20.2293000000000         4.613076233447729E-162
   20.4687000000000         1.273313928832885E-161
   20.7081000000000         2.766147762331967E-161
   20.9475000000000         3.230109154279091E-161
   21.1869000000000        -8.993213086081162E-161
   21.4263000000000        -8.343824906099945E-160
   21.6657000000000        -3.873973588003475E-159
   21.9051000000000        -1.389838709811198E-158
   22.1445000000000        -4.149395089414597E-158
   22.3839000000000        -1.026833018501928E-157
   22.6233000000000        -1.924226565729850E-157
   22.8627000000000        -1.509859200732944E-157
   23.1021000000000         8.089774903646558E-157
   23.3415000000000         5.455030741946542E-156
   23.5809000000000         2.170023452389285E-155
   23.8203000000000         6.818938200289601E-155
   24.0597000000000         1.785800718064161E-154
   24.2991000000000         3.825052534517125E-154
   24.5385000000000         5.848935785039421E-154
   24.7779000000000         1.257678740121577E-154
   25.0173000000000        -3.470658090030237E-153
   25.2567000000000        -1.739691861536264E-152
   25.4961000000000        -5.879763534273568E-152
   25.7355000000000        -1.601630375267856E-151
   25.9749000000000        -3.609313110256431E-151
   26.2143000000000        -6.366260052078200E-151
   26.4537000000000        -6.345576842165044E-151
   26.6931000000000         1.070103445932363E-150
   26.9325000000000         8.681710445386498E-150
   27.1719000000000         3.231009760188969E-149
   27.4113000000000         9.175684989463260E-149
   27.6507000000000         2.152661714980749E-148
   27.8901000000000         4.134736302092366E-148
   28.1295000000000         5.766469345004209E-148
   28.3689000000000         1.845090411544009E-148
   28.6083000000000        -2.357152699777545E-147
   28.8477000000000        -1.094605729568221E-146
   29.0871000000000        -3.342789612689577E-146
   29.3265000000000        -8.209735209847406E-146
   29.5659000000000        -1.675917028409664E-145
   29.8053000000000        -2.720669777815495E-145
   30.0447000000000        -2.721575548174067E-145
   30.2841000000000         2.373279880743387E-145
   30.5235000000000         2.272788621706693E-144
   30.7629000000000         7.927738907175072E-144
   31.0023000000000         2.066914590365176E-143
   31.2417000000000         4.437250690009159E-143
   31.4811000000000         7.831142681274117E-143
   31.7205000000000         1.023753411619477E-142
   31.9599000000000         4.306758059233571E-143
   32.1993000000000        -2.905105813990445E-142
   32.4387000000000        -1.300889876541410E-141
   32.6781000000000        -3.682508826438774E-141
   32.9175000000000        -8.325563249502369E-141
   33.1569000000000        -1.563178162883748E-140
   33.3963000000000        -2.340592952222970E-140
   33.6357000000000        -2.195172285036934E-140
   33.8751000000000         1.524318516061759E-140
   34.1145000000000         1.456366309944421E-139
   34.3539000000000         4.717598227478681E-139
   34.5933000000000         1.136793537907563E-138
   34.8327000000000         2.254678586912324E-138
   35.0721000000000         3.680398543285304E-138
   35.3115000000000         4.466627143190344E-138
   35.5509000000000         1.821895186961886E-138
   35.7903000000000        -1.050509853526456E-137
   36.0297000000000        -4.400450019902476E-137
   36.2691000000000        -1.156748323620854E-136
   36.5085000000000        -2.425549519918713E-136
   36.7479000000000        -4.221043288714244E-136
   36.9873000000000        -5.848585888625554E-136
   37.2267000000000        -5.029958089058591E-136
   37.4661000000000         3.531665833008865E-136
   37.7055000000000         2.981428559095550E-135
   37.9449000000000         8.912525628329408E-135
   38.1843000000000         1.986218557590221E-134
   38.4237000000000         3.636160679386226E-134
   38.6631000000000         5.440490351439164E-134
   38.9025000000000         5.898221484546248E-134
   39.1419000000000         1.396829450951157E-134
   39.3813000000000        -1.496688201037622E-133
   39.6207000000000        -5.392772975048725E-133
   39.8601000000000        -1.279917464496737E-132
   40.0995000000000        -2.430552275308909E-132
   40.3389000000000        -3.780591076771295E-132
   40.5783000000000        -4.464734735275944E-132
   40.8177000000000        -2.377193713281603E-132
   41.0571000000000         6.478773276461376E-132
   41.2965000000000         2.821409937922863E-131
   41.5359000000000         6.971594581433267E-131
   41.7753000000000         1.336969744694616E-130
   42.0147000000000         2.071866242041726E-130
   42.2541000000000         2.405623263872536E-130
   42.4935000000000         1.171504735170175E-130
   42.7329000000000        -3.774245879233539E-130
   42.9723000000000        -1.557143832270230E-129
   43.2117000000000        -3.745479045638148E-129
   43.4511000000000        -6.983096028893569E-129
   43.6905000000000        -1.038104046696545E-128
   43.9299000000000        -1.097866543093239E-128
   44.1693000000000        -2.132298243639619E-129
   44.4087000000000         2.804781404159058E-128
   44.6481000000000         9.665247656620331E-128
   44.8875000000000         2.209703567549021E-127
   45.1269000000000         4.026981897357270E-127
   45.3663000000000         5.931464669779934E-127
   45.6057000000000         6.311719267743067E-127
   45.8451000000000         1.525766288857568E-127
   46.0845000000000        -1.508137952847150E-126
   46.3239000000000        -5.354181423401447E-126
   46.5633000000000        -1.254499244036432E-125
   46.8027000000000        -2.371324543388671E-125
   47.0421000000000        -3.735217766969771E-125
   47.2815000000000        -4.676621123816427E-125
   47.5209000000000        -3.525096383258649E-125
   47.7603000000000         3.006794381855915E-125
   47.9997000000000         2.034421408773074E-124
   48.2391000000000         5.588710798872478E-124
   48.4785000000000         1.169980408512752E-123
   48.7179000000000         2.052101195321654E-123
   48.9573000000000         3.039924890388488E-123
   49.1967000000000         3.572998508486005E-123
   49.4361000000000         2.378180657110447E-123
   49.6755000000000        -2.907404321627302E-123
   49.9149000000000        -1.601005838363646E-122
   50.1543000000000        -4.181312797346566E-122
   50.3937000000000        -8.496947618474322E-122
   50.6331000000000        -1.462279761288593E-121
   50.8725000000000        -2.150212192304147E-121
   51.1119000000000        -2.568912589650724E-121
   51.3513000000000        -1.953420261421742E-121
   51.5907000000000         1.093403782271837E-121
   51.8301000000000         8.755893525749347E-121
   52.0695000000000         2.390983617878453E-120
   52.3089000000000         4.942422552730945E-120
   52.5483000000000         8.631659152683760E-120
   52.7877000000000         1.300544813795070E-119
   53.0271000000000         1.643043752635245E-119
   53.2665000000000         1.518721256500543E-119
   53.5059000000000         2.386200200645634E-120
   53.7453000000000        -3.292636867092420E-119
   53.9847000000000        -1.056475862203073E-118
   54.2241000000000        -2.319840675953507E-118
   54.4635000000000        -4.219771133852804E-118
   54.7029000000000        -6.641067858265344E-118
   54.9423000000000        -8.987559560623943E-118
   55.1817000000000        -9.787626589005899E-118
   55.4211000000000        -6.198321947778886E-118
   55.6605000000000         6.467844477295562E-118
   55.8999000000000         3.490106415930680E-117
   56.1393000000000         8.709204974394609E-117
   56.3787000000000         1.699010299541644E-116
   56.6181000000000         2.837065798149855E-116
   56.8575000000000         4.127885693286620E-116
   57.0969000000000         5.104262215767617E-116
   57.3363000000000         4.789947033666643E-116
   57.5757000000000         1.482954231002983E-116
   57.8151000000000        -7.392866833571797E-116
   58.0545000000000        -2.519862677767783E-115
   58.2939000000000        -5.547209876022750E-115
   58.5333000000000        -1.003947882456182E-114
   58.7727000000000        -1.578371371964310E-114
   59.0121000000000        -2.165120247999970E-114
   59.2515000000000        -2.490556766303948E-114
   59.4909000000000        -2.036082731455058E-114
   59.7303000000000         4.070987417007958E-116
   59.9697000000000         4.935200123820526E-114
   60.2091000000000         1.409665217542493E-113
   60.4485000000000         2.888063855579826E-113
   60.6879000000000         4.979314336783719E-113
   60.9273000000000         7.514953240376418E-113
   61.1667000000000         9.901292866446222E-113
   61.4061000000000         1.084299914764167E-112
   61.6455000000000         8.031782702276883E-113
   61.8849000000000        -2.105036951858817E-113
   62.1243000000000        -2.441055126094867E-112
   62.3637000000000        -6.445233333539844E-112
   62.6031000000000        -1.269822797342890E-111
   62.8425000000000        -2.128494286465630E-111
   63.0819000000000        -3.138042109604280E-111
   63.3213000000000        -4.048495253379479E-111
   63.5607000000000        -4.344118943924413E-111
   63.8001000000000        -3.138390494788268E-111
   64.0395000000000         9.020987946069441E-112
   64.2789000000000         9.539078797812627E-111
   64.5183000000000         2.474528393900580E-110
   64.7577000000000         4.814351341503198E-110
   64.9971000000000         7.992739000459685E-110
   65.2365000000000         1.170944933848156E-109
   65.4759000000000         1.509006630009939E-109
   65.7153000000000         1.636466149296942E-109
   65.9547000000000         1.252956401974973E-109
   66.1941000000000        -8.947829495892351E-111
   66.4335000000000        -2.980643107492291E-109
   66.6729000000000        -8.084762601953615E-109
   66.9123000000000        -1.596757608192244E-108
   67.1517000000000        -2.676525604139522E-108
   67.3911000000000        -3.964339944945459E-108
   67.6305000000000        -5.201561430082548E-108
   67.8699000000000        -5.854718651473705E-108
   68.1093000000000        -5.007729571527514E-108
   68.3487000000000        -1.277051166894148E-108
   68.5881000000000         7.193421930953497E-108
   68.8275000000000         2.256772967366544E-107
   69.0669000000000         4.685686972589028E-107
   69.3063000000000         8.100416367796814E-107
   69.5457000000000         1.233524404898944E-106
   69.7851000000000         1.673728712517920E-106
   70.0245000000000         1.986713781171695E-106
   70.2639000000000         1.915672810017459E-106
   70.5033000000000         1.060154111092609E-106
   70.7427000000000        -1.136384687067856E-106
   70.9821000000000        -5.356131193190396E-106
   71.2215000000000        -1.229767183861940E-105
   71.4609000000000        -2.244124241233710E-105
   71.7003000000000        -3.563605731539423E-105
   71.9397000000000        -5.046428833783559E-105
   72.1791000000000        -6.336733326201418E-105
   72.4185000000000        -6.759023574333191E-105
   72.6579000000000        -5.212677818800256E-105
   72.8973000000000        -1.046428998155426E-106
   73.1367000000000         1.061388421140711E-104
   73.3761000000000         2.920706818723932E-104
   73.6155000000000         5.757607412889817E-104
   73.8549000000000         9.618525046390332E-104
   74.0943000000000         1.423442874203763E-103
   74.3337000000000         1.877703764626983E-103
   74.5731000000000         2.155329197392091E-103
   74.8125000000000         1.968166495265730E-103
   75.0519000000000         8.847160490522823E-104
   75.2913000000000        -1.669307381426070E-103
   75.5307000000000        -6.358875418205437E-103
   75.7701000000000        -1.379996442586374E-102
   76.0095000000000        -2.428956595170443E-102
   76.2489000000000        -3.736433081317990E-102
   76.4883000000000        -5.116495898806748E-102
   76.7277000000000        -6.162880919283287E-102
   76.9671000000000        -6.161772049469285E-102
   77.2065000000000        -4.022194394765724E-102
   77.4459000000000         1.733260333954281E-102
   77.6853000000000         1.285204650542841E-101
   77.9247000000000         3.102166895909059E-101
   78.1641000000000         5.722349884115487E-101
   78.4035000000000         9.067438634075698E-101
   78.6429000000000         1.273068086058151E-100
   78.8823000000000         1.578490320234343E-100
   79.1217000000000         1.657665130699333E-100
   79.3611000000000         1.256331884757018E-100
   79.6005000000000         2.916048036047343E-102
   79.8399000000000        -2.433593630952143E-100
   80.0793000000000        -6.531395112550127E-100
   80.3187000000000        -1.250903542297331E-099
   80.5581000000000        -2.022344670281366E-099
   80.7975000000000        -2.881410685839206E-099
   81.0369000000000        -3.629443063317282E-099
   81.2763000000000        -3.912451359049155E-099
   81.5157000000000        -3.188909580977186E-099
   81.7551000000000        -7.286752519317410E-100
   81.9945000000000         4.327273415052145E-099
   82.2339000000000         1.280879484053631E-098
   82.4733000000000         2.522002021301064E-098
   82.7127000000000         4.127192672330501E-098
   82.9521000000000         5.923729613488000E-098
   83.1915000000000         7.517240309189405E-098
   83.4309000000000         8.213292706481742E-098
   83.6703000000000         6.962886859325012E-098
   83.9097000000000         2.370767251197445E-098
   84.1491000000000        -7.179553462417098E-098
   84.3885000000000        -2.321894568086696E-097
   84.6279000000000        -4.663823311291471E-097
   84.8673000000000        -7.683981514847465E-097
   85.1067000000000        -1.105997520338284E-096
   85.3461000000000        -1.407382373801321E-096
   85.5855000000000        -1.548404317164827E-096
   85.8249000000000        -1.344630414398930E-096
   86.0643000000000        -5.548744869608233E-097
   86.3037000000000         1.095041385476251E-096
   86.5431000000000         3.858209267720624E-096
   86.7825000000000         7.872769174306675E-096
   87.0219000000000         1.302275540828260E-095
   87.2613000000000         1.875708061492294E-095
   87.5007000000000         2.388536893413034E-095
   87.7401000000000         2.639166473496166E-095
   87.9795000000000         2.333550980207636E-095
   88.2189000000000         1.094109832923626E-095
   88.4583000000000        -1.499774996521127E-095
   88.6977000000000        -5.825745174313784E-095
   88.9371000000000        -1.207494815688937E-094
   89.1765000000000        -2.004598055066323E-094
   89.4159000000000        -2.888515644482449E-094
   89.6553000000000        -3.680426451614016E-094
   89.8947000000000        -4.083785937994620E-094
   90.1341000000000        -3.673947092921881E-094
   90.3735000000000        -1.915432752248374E-094
   90.6129000000000         1.776480435237776E-094
   90.8523000000000         7.912738011919924E-094
   91.0917000000000         1.673284875761634E-093
   91.3311000000000         2.792994649403983E-093
   91.5705000000000         4.031512399535086E-093
   91.8099000000000         5.146657060067005E-093
   92.0493000000000         5.744709756941486E-093
   92.2887000000000         5.271704573774407E-093
   92.5281000000000         3.041047243266018E-093
   92.7675000000000        -1.683194365013559E-093
   93.0069000000000        -9.528756368790407E-093
   93.2463000000000        -2.077109792408996E-092
   93.4857000000000        -3.500446335234225E-092
   93.7251000000000        -5.075323313109768E-092
   93.9645000000000        -6.508206127965931E-092
   94.2039000000000        -7.330466396534266E-092
   94.4433000000000        -6.893522467130533E-092
   94.6827000000000        -4.406361258129195E-092
   94.9221000000000         9.648339520992432E-093
   95.1615000000000         9.917580976624331E-092
   95.4009000000000         2.274551526647325E-091
   95.6403000000000         3.898953950974239E-091
   95.8797000000000         5.704004378964906E-091
   96.1191000000000         7.375600725878509E-091
   96.3585000000000         8.420557211679648E-091
   96.5979000000000         8.167042179790279E-091
   96.8373000000000         5.808288367445193E-091
   97.0767000000000         5.066449110795591E-092
   97.3161000000000        -8.428856831706363E-091
   97.5555000000000        -2.128777495861875E-090
   97.7949000000000        -3.763895456029397E-090
   98.0343000000000        -5.598225044700193E-090
   98.2737000000000        -7.343505322156868E-090
   98.5131000000000        -8.554687990417358E-090
   98.7525000000000        -8.635960148932034E-090
   98.9919000000000        -6.884105340326085E-090
   99.2313000000000        -2.580521574713946E-090
   99.4707000000000         4.861755170174569E-090
   99.7101000000000         1.569889518074827E-089
   99.9495000000000         2.962139328403626E-089
   100.188900000000         4.551668329259339E-089
   100.428300000000         6.128009653487914E-089
   100.667700000000         7.373936861585812E-089
   100.907100000000         7.876349704334598E-089
   101.146500000000         7.161742623732644E-089
   101.385900000000         4.759432565084228E-089
   101.625300000000         2.904427841936318E-090
   101.864700000000        -6.427391272332774E-089
   102.104100000000        -1.527586789458886E-088
   102.343500000000        -2.575953593628234E-088
   102.582900000000        -3.698398853729249E-088
   102.822300000000        -4.771365669197232E-088
   103.061700000000        -5.651814995859454E-088
   103.301100000000        -6.198762108162473E-088
   103.540500000000        -6.295657408120126E-088
   103.779900000000        -5.862775580057009E-088
   104.019300000000        -4.844576371971665E-088
   104.258700000000        -3.155391387434720E-088
   104.498100000000        -5.704693126438715E-089
   104.737500000000         3.438612148631953E-088
   104.976900000000         9.902297766679012E-088
   105.216300000000         2.052854917398824E-087
   105.455700000000         3.775434606179100E-087
   105.695100000000         6.452476837620975E-087
   105.934500000000         1.036145859848749E-086
   106.173900000000         1.563019024440585E-086
   106.413300000000         2.202563366841423E-086
   106.652700000000         2.866456827697344E-086
   106.892100000000         3.367217105026637E-086
   107.131500000000         3.385305919393686E-086
   107.370900000000         2.448911796133522E-086
   107.610300000000        -5.664544879935553E-088
   107.849700000000        -4.828097149163261E-086
   108.089100000000        -1.250791662732989E-085
   108.328500000000        -2.345129330059796E-085
   108.567900000000        -3.738619690142297E-085
   108.807300000000        -5.297854087606587E-085
   109.046700000000        -6.734992545068185E-085
   109.286100000000        -7.564419117017320E-085
   109.525500000000        -7.079749433135216E-085
   109.764900000000        -4.372618019614583E-085
   110.004300000000         1.580762094903596E-085
   110.243700000000         1.173828197389619E-084
   110.483100000000         2.669421531802691E-084
   110.722500000000         4.625814129713109E-084
   110.961900000000         6.893029910624730E-084
   111.201300000000         9.133339255616846E-084
   111.440700000000         1.077135967364036E-083
   111.680100000000         1.096839634536228E-083
   111.919500000000         8.644167304571815E-084
   112.158900000000         2.573072913178245E-084
   112.398300000000        -8.417815475667271E-084
   112.637700000000        -2.512849542864498E-083
   112.877100000000        -4.753894196878933E-083
   113.116500000000        -7.425820829343245E-083
   113.355900000000        -1.019327668867976E-082
   113.595300000000        -1.247280109594706E-082
   113.834700000000        -1.340533601586076E-082
   114.074100000000        -1.187537788803676E-082
   114.313500000000        -6.602374292231076E-083
   114.552900000000         3.670602630204961E-083
   114.792300000000         1.987263595279380E-082
   115.031700000000         4.218214616890838E-082
   115.271100000000         6.950779506065074E-082
   115.510500000000         9.893133063352092E-082
   115.749900000000         1.252152092758973E-081
   115.989300000000         1.405262608759780E-081
   116.228700000000         1.345701918948194E-081
   116.468100000000         9.535755643314990E-082
   116.707500000000         1.081359122268283E-082
   116.946900000000        -1.286163435314119E-081
   117.186300000000        -3.263443912058007E-081
   117.425700000000        -5.751915955372926E-081
   117.665100000000        -8.525979445779664E-081
   117.904500000000        -1.116334861156451E-080
   118.143900000000        -1.301945886414839E-080
   118.383300000000        -1.323475651888584E-080
   118.622700000000        -1.079233709230914E-080
   118.862100000000        -4.642538462064315E-081
   119.101500000000         6.093838848668646E-081
   119.340900000000         2.184223920805530E-080
   119.580300000000         4.222581022915009E-080
   119.819700000000         6.568859829780574E-080
   120.059100000000         8.915402927322809E-080
   120.298500000000         1.078099202109572E-079
   120.537900000000         1.151348207838524E-079
   120.777300000000         1.032926369375056E-079
   121.016700000000         6.401451556867850E-080
   121.256100000000        -9.950253551195389E-081
   121.495500000000        -1.228068058318577E-079
   121.734900000000        -2.732185415626339E-079
   121.974300000000        -4.516039295069344E-079
   122.213700000000        -6.376684939713383E-079
   122.453100000000        -7.987975940416980E-079
   122.692500000000        -8.900851411650721E-079
   122.931900000000        -8.568405242344275E-079
   123.171300000000        -6.403444841549131E-079
   123.410700000000        -1.873585464749065E-079
   123.650100000000         5.366118440049045E-079
   123.889500000000         1.531059210185998E-078
   124.128900000000         2.742964017481547E-078
   124.368300000000         4.050895177046898E-078
   124.607700000000         5.254674240429533E-078
   124.847100000000         6.075379598661203E-078
   125.086500000000         6.170721457222070E-078
   125.325900000000         5.170173602687668E-078
   125.565300000000         2.732399435426783E-078
   125.804700000000        -1.375743991416936E-078
   126.044100000000        -7.184004086208907E-078
   126.283500000000        -1.441849863610963E-077
   126.522900000000        -2.241385832490701E-077
   126.762300000000        -3.006077502658791E-077
   127.001700000000        -3.581551438924296E-077
   127.241100000000        -3.779766020009847E-077
   127.480500000000        -3.399650206605720E-077
   127.719900000000        -2.259366718440103E-077
   127.959300000000        -2.389270542198735E-078
   128.198700000000         2.670819023990633E-077
   128.438100000000         6.319910344415961E-077
   128.677500000000         1.036185064253895E-076
   128.916900000000         1.423944296111586E-076
   129.156300000000         1.720693605049690E-076
   129.395700000000         1.839963081889017E-076
   129.635100000000         1.695683741732413E-076
   129.874500000000         1.219502522013529E-076
   130.113900000000         3.815371317605766E-077
   130.353300000000        -7.885189871054016E-077
   130.592700000000        -2.184563103304245E-076
   130.832100000000        -3.617351637975553E-076
   131.071500000000        -4.824142384651934E-076
   131.310900000000        -5.500159820311654E-076
   131.550300000000        -5.354788614560228E-076
   131.789700000000        -4.190839824874334E-076
   132.029100000000        -1.998680225246583E-076
   132.268500000000         9.510288538274839E-077
   132.507900000000         4.040648310357086E-076
   132.747300000000         6.296565175003492E-076
   132.986700000000         6.472582721064285E-076
   133.226100000000         3.256691238929634E-076
   133.465500000000        -4.381121483387111E-076
   133.704900000000        -1.670750678955416E-075
   133.944300000000        -3.265591622954423E-075
   134.183700000000        -4.926150500419829E-075
   134.423100000000        -6.124731899568474E-075
   134.662500000000        -6.095729759473611E-075
   134.901900000000        -3.886250618586657E-075
   135.141300000000         1.513748665686524E-075
   135.380700000000         1.094548671828505E-074
   135.620100000000         2.475621698843333E-074
   135.859500000000         4.239275744694163E-074
   136.098900000000         6.196068828090166E-074
   136.338300000000         7.983133086074240E-074
   136.577700000000         9.041523622832639E-074
   136.817100000000         8.625181810435327E-074
   137.056500000000         5.858007723143670E-074
   137.295900000000        -1.456805855399440E-075
   137.535300000000        -1.008723125274016E-073
   137.774700000000        -2.421647912255662E-073
   138.014100000000        -4.200737906835302E-073
   138.253500000000        -6.181372209441295E-073
   138.492900000000        -8.056712352647969E-073
   138.732300000000        -9.360492210246201E-073