  -1.79550000000000         0.000000000000000E+000
  -1.55610000000000         0.000000000000000E+000
  -1.31670000000000         0.000000000000000E+000
  -1.07730000000000         0.000000000000000E+000
 -0.837900000000000         0.000000000000000E+000
 -0.598500000000000         0.000000000000000E+000
 -0.359100000000000         0.000000000000000E+000
 -0.119700000000000         0.000000000000000E+000
  0.119700000000000         0.000000000000000E+000
  0.359100000000000         0.000000000000000E+000
  0.598500000000000         0.000000000000000E+000
  0.837900000000000         0.000000000000000E+000
   1.07730000000000         0.000000000000000E+000
   1.31670000000000         0.000000000000000E+000
   1.55610000000000         0.000000000000000E+000
   1.79550000000000         0.000000000000000E+000
   2.03490000000000         0.000000000000000E+000
   2.27430000000000         0.000000000000000E+000
   2.51370000000000         0.000000000000000E+000
   2.75310000000000         0.000000000000000E+000
   2.99250000000000         0.000000000000000E+000
   3.23190000000000         0.000000000000000E+000
   3.47130000000000         0.000000000000000E+000
   3.71070000000000         0.000000000000000E+000
   3.95010000000000         0.000000000000000E+000
   4.18950000000000         0.000000000000000E+000
   4.42890000000000         0.000000000000000E+000
   4.66830000000000         0.000000000000000E+000
   4.90770000000000         0.000000000000000E+000
   5.14710000000000         0.000000000000000E+000
   5.38650000000000         0.000000000000000E+000
   5.62590000000000         0.000000000000000E+000
   5.86530000000000         0.000000000000000E+000
   6.10470000000000         0.000000000000000E+000
   6.34410000000000         0.000000000000000E+000
   6.58350000000000         0.000000000000000E+000
   6.82290000000000         0.000000000000000E+000
   7.06230000000000         0.000000000000000E+000
   7.30170000000000         0.000000000000000E+000
   7.54110000000000         0.000000000000000E+000
   7.78050000000000         0.000000000000000E+000
   8.01990000000000         0.000000000000000E+000
   8.25930000000000         0.000000000000000E+000
   8.49870000000000         0.000000000000000E+000
   8.73810000000000         0.000000000000000E+000
   8.97750000000000         0.000000000000000E+000
   9.21690000000000         0.000000000000000E+000
   9.45630000000000         0.000000000000000E+000
   9.69570000000000         0.000000000000000E+000
   9.93510000000000         0.000000000000000E+000
   10.1745000000000         0.000000000000000E+000
   10.4139000000000         3.245686380015881E-207
   10.6533000000000        -4.703032157272341E-200
   10.8927000000000        -1.124070293232824E-198
   11.1321000000000         9.541302861477313E-196
   11.3715000000000         6.986696429920324E-194
   11.6109000000000         2.460135938580765E-192
   11.8503000000000         5.517972140781173E-191
   12.0897000000000         8.637356041374615E-190
   12.3291000000000         9.497821225162726E-189
   12.5685000000000         6.367994281041367E-188
   12.8079000000000        -2.673926936348498E-188
   13.0473000000000        -7.738165079508360E-186
   13.2867000000000        -1.289622219659221E-184
   13.5261000000000        -1.401804205503609E-183
   13.7655000000000        -1.149184254745344E-182
   14.0049000000000        -7.111130363493872E-182
   14.2443000000000        -2.817382158660669E-181
   14.4837000000000         1.934066292305511E-181
   14.7231000000000         1.658143204985967E-179
   14.9625000000000         1.935082944039096E-178
   15.2019000000000         1.575139719094458E-177
   15.4413000000000         1.030446067253296E-176
   15.6807000000000         5.553870896882166E-176
   15.9201000000000         2.356260107568203E-175
   16.1595000000000         6.031448572390978E-175
   16.3989000000000        -1.578270503913724E-174
   16.6383000000000        -3.702100960256706E-173
   16.8777000000000        -3.419745265239297E-172
   17.1171000000000        -2.435301521449723E-171
   17.3565000000000        -1.496761725882789E-170
   17.5959000000000        -8.262995002227509E-170
   17.8353000000000        -4.169069660429010E-169
   18.0747000000000        -1.936112191371478E-168
   18.3141000000000        -8.280006421424526E-168
   18.5535000000000        -3.241958443795456E-167
   18.7929000000000        -1.144617075617659E-166
   19.0323000000000        -3.518215420845461E-166
   19.2717000000000        -8.544331319788827E-166
   19.5111000000000        -9.965461239225449E-166
   19.7505000000000         5.179140924577345E-165
   19.9899000000000         5.045984861673446E-164
   20.2293000000000         2.799958630097818E-163
   20.4687000000000         1.250109833077466E-162
   20.7081000000000         4.847184545251733E-162
   20.9475000000000         1.671658110454417E-161
   21.1869000000000         5.134914367981467E-161
   21.4263000000000         1.377852249957321E-160
   21.6657000000000         3.035003675827350E-160
   21.9051000000000         4.299279590800226E-160
   22.1445000000000        -4.052849591292075E-160
   22.3839000000000        -6.253822525812185E-159
   22.6233000000000        -3.117242197534643E-158
   22.8627000000000        -1.161959248732259E-157
   23.1021000000000        -3.616362320249702E-157
   23.3415000000000        -9.566334342661028E-157
   23.5809000000000        -2.070408995838762E-156
   23.8203000000000        -3.052281026192206E-156
   24.0597000000000         8.230834637850548E-157
   24.2991000000000         2.876147495259913E-155
   24.5385000000000         1.423672595736116E-154
   24.7779000000000         5.082341792840423E-154
   25.0173000000000         1.505857648969720E-153
   25.2567000000000         3.814473628683888E-153
   25.4961000000000         8.092966308795972E-153
   25.7355000000000         1.287955442418200E-152
   25.9749000000000         6.819958918621032E-153
   26.2143000000000        -5.399442774246216E-152
   26.4537000000000        -3.014504066362054E-151
   26.6931000000000        -1.068185670145969E-150
   26.9325000000000        -3.061009064584844E-150
   27.1719000000000        -7.465845124577893E-150
   27.4113000000000        -1.539987979496299E-149
   27.6507000000000        -2.490391943072497E-149
   27.8901000000000        -2.094451375435007E-149
   28.1295000000000         5.103130093703949E-149
   28.3689000000000         3.436410821220249E-148
   28.6083000000000         1.213815673366460E-147
   28.8477000000000         3.359986965141667E-147
   29.0871000000000         7.840305464913255E-147
   29.3265000000000         1.544047919371728E-146
   29.5659000000000         2.397207548003613E-146
   29.8053000000000         2.037150828363681E-146
   30.0447000000000        -3.809014790883496E-146
   30.2841000000000        -2.612027976870378E-145
   30.5235000000000        -8.854948561317465E-145
   30.7629000000000        -2.334596147935921E-144
   31.0023000000000        -5.178624937983146E-144
   31.2417000000000        -9.694988864105331E-144
   31.4811000000000        -1.433603223610193E-143
   31.7205000000000        -1.175409343682266E-143
   31.9599000000000         1.972724776044175E-143
   32.1993000000000         1.313703568867526E-142
   32.4387000000000         4.251895304699341E-142
   32.6781000000000         1.068773730837139E-141
   32.9175000000000         2.261538598950386E-141
   33.1569000000000         4.046529055650083E-141
   33.3963000000000         5.750026227774234E-141
   33.6357000000000         4.678421200973839E-141
   33.8751000000000        -6.409055571093578E-141
   34.1145000000000        -4.333518260363240E-140
   34.3539000000000        -1.351945730899032E-139
   34.5933000000000        -3.255639858814092E-139
   34.8327000000000        -6.587927355744577E-139
   35.0721000000000        -1.126530622797417E-138
   35.3115000000000        -1.529856232641518E-138
   35.5509000000000        -1.192687752508493E-138
   35.7903000000000         1.534020457671367E-138
   36.0297000000000         9.953833221761765E-138
   36.2691000000000         2.959487449600701E-137
   36.5085000000000         6.773509589118258E-137
   36.7479000000000         1.297529731918382E-136
   36.9873000000000         2.083470709124044E-136
   37.2267000000000         2.596586926128060E-136
   37.4661000000000         1.598658500341325E-136
   37.7055000000000        -3.589065763322510E-136
   37.9449000000000        -1.775446074544618E-135
   38.1843000000000        -4.785883550953889E-135
   38.4237000000000        -1.010109153374505E-134
   38.6631000000000        -1.775662914143553E-134
   38.9025000000000        -2.551459395670856E-134
   39.1419000000000        -2.590047136962307E-134
   39.3813000000000        -1.767380623591587E-135
   39.6207000000000         7.846509564810810E-134
   39.8601000000000         2.618186529031473E-133
   40.0995000000000         5.985210605570461E-133
   40.3389000000000         1.099065254980705E-132
   40.5783000000000         1.634902928509380E-132
   40.8177000000000         1.756528456965912E-132
   41.0571000000000         4.274981433213662E-133
   41.2965000000000        -4.244836716304883E-132
   41.5359000000000        -1.501509001259586E-131
   41.7753000000000        -3.463901834719201E-131
   42.0147000000000        -6.305502206378921E-131
   42.2541000000000        -9.102093089113753E-131
   42.4935000000000        -8.858320138640329E-131
   42.7329000000000         1.176941362300552E-131
   42.9723000000000         3.325292601654330E-130
   43.2117000000000         1.053331709135828E-129
   43.4511000000000         2.361660812284835E-129
   43.6905000000000         4.285266869663546E-129
   43.9299000000000         6.304683286133219E-129
   44.1693000000000         6.628029263267828E-129
   44.4087000000000         1.066223089404373E-129
   44.6481000000000        -1.832416573069663E-128
   44.8875000000000        -6.410262465361347E-128
   45.1269000000000        -1.519940643277760E-127
   45.3663000000000        -2.935423783605636E-127
   45.6057000000000        -4.769569696117116E-127
   45.8451000000000        -6.281567715750299E-127
   46.0845000000000        -5.443559540958848E-127
   46.3239000000000         2.002320520916774E-127
   46.5633000000000         2.355255313469849E-126
   46.8027000000000         7.033272291325729E-126
   47.0421000000000         1.553449451652912E-125
   47.2815000000000         2.867800047241473E-125
   47.5209000000000         4.520694057655560E-125
   47.7603000000000         5.872062780325744E-125
   47.9997000000000         5.266565554112551E-125
   48.2391000000000        -6.514091437456329E-126
   48.4785000000000        -1.764409729116329E-124
   48.7179000000000        -5.413374274561388E-124
   48.9573000000000        -1.199961549074020E-123
   49.1967000000000        -2.221162016605740E-123
   49.4361000000000        -3.540307623068234E-123
   49.6755000000000        -4.763562471322062E-123
   49.9149000000000        -4.852159987423584E-123
   50.1543000000000        -1.691458150312543E-123
   50.3937000000000         8.365678645673621E-123
   50.6331000000000         3.072291489898538E-122
   50.8725000000000         7.199064751445314E-122
   51.1119000000000         1.377164104729220E-121
   51.3513000000000         2.269796730717568E-121
   51.5907000000000         3.220875263851577E-121
   51.8301000000000         3.717914378936508E-121
   52.0695000000000         2.678909933042444E-121
   52.3089000000000        -1.810882423881183E-121
   52.5483000000000        -1.267832914494485E-120
   52.7877000000000        -3.371681383972355E-120
   53.0271000000000        -6.868995317914006E-120
   53.2665000000000        -1.190387390966455E-119
   53.5059000000000        -1.793628421211084E-119
   53.7453000000000        -2.298599278605720E-119
   53.9847000000000        -2.254020891933840E-119
   54.2241000000000        -8.234314374239306E-120
   54.4635000000000         3.329467463127743E-119
   54.7029000000000         1.204851768191633E-118
   54.9423000000000         2.742283948354268E-118
   55.1817000000000         5.100005298800901E-118
   55.4211000000000         8.213364299536746E-118
   55.6605000000000         1.150936184182606E-117
   55.8999000000000         1.346935608768603E-117
   56.1393000000000         1.106147605491250E-117
   56.3787000000000        -8.459065580596324E-119
   56.6181000000000        -2.981243877083909E-117
   56.8575000000000        -8.536465888677390E-117
   57.0969000000000        -1.768800137657144E-116
   57.3363000000000        -3.085934730804546E-116
   57.5757000000000        -4.702701009247857E-116
   57.8151000000000        -6.222545113617896E-116
   58.0545000000000        -6.746283467873797E-116
   58.2939000000000        -4.627112629046476E-116
   58.5333000000000         2.741249963139487E-116
   58.7727000000000         1.895740086838660E-115
   59.0121000000000         4.821364351955471E-115
   59.2515000000000         9.408739318735609E-115
   59.4909000000000         1.570316149275641E-114
   59.7303000000000         2.300434695781753E-114
   59.9697000000000         2.921606174237193E-114
   60.2091000000000         2.999785419764107E-114
   60.4485000000000         1.785208762532726E-114
   60.6879000000000        -1.852427181375773E-114
   60.9273000000000        -9.400026747235338E-114
   61.1667000000000        -2.248802329053111E-113
   61.4061000000000        -4.234685408368073E-113
   61.6455000000000        -6.876200791032384E-113
   61.8849000000000        -9.836447148044134E-113
   62.1243000000000        -1.221799352065088E-112
   62.3637000000000        -1.225822413278996E-112
   62.6031000000000        -7.022131581604226E-113
   62.8425000000000         7.781515172137133E-113
   63.0819000000000         3.763685776517098E-112
   63.3213000000000         8.836620556691084E-112
   63.5607000000000         1.641188529662628E-111
   63.8001000000000         2.636654438691500E-111
   64.0395000000000         3.745176508443619E-111
   64.2789000000000         4.647064562627861E-111
   64.5183000000000         4.727866759465151E-111
   64.7577000000000         2.979770608844660E-111
   64.9971000000000        -2.055445209003292E-111
   65.2365000000000        -1.223244372081386E-110
   65.4759000000000        -2.953248290865826E-110
   65.7153000000000        -5.543780774479792E-110
   65.9547000000000        -8.978916538264274E-110
   66.1941000000000        -1.289806664000454E-109
   66.4335000000000        -1.634321202667925E-109
   66.6729000000000        -1.744804481464893E-109
   66.9123000000000        -1.312006226945708E-109
   67.1517000000000         1.174952258696969E-110
   67.3911000000000         3.133446691013635E-109
   67.6305000000000         8.395287928735461E-109
   67.8699000000000         1.646655822710442E-108
   68.1093000000000         2.750201109665897E-108
   68.3487000000000         4.073925676894097E-108
   68.5881000000000         5.376405662245434E-108
   68.8275000000000         6.156522569325241E-108
   69.0669000000000         5.548688315466766E-108
   69.3063000000000         2.233896952073086E-108
   69.5457000000000        -5.584560247269484E-108
   69.7851000000000        -2.006161422888291E-107
   70.0245000000000        -4.333272464413294E-107
   70.2639000000000        -7.673000642180551E-107
   70.5033000000000        -1.194263787381215E-106
   70.7427000000000        -1.663633957545932E-106
   70.9821000000000        -2.054148673134064E-106
   71.2215000000000        -2.139582290327000E-106
   71.4609000000000        -1.554265654289346E-106
   71.7003000000000         2.294760455245287E-107
   71.9397000000000         3.890781151566257E-106
   72.1791000000000         1.018396147906285E-105
   72.4185000000000         1.975152613325651E-105
   72.6579000000000         3.277203688930537E-105
   72.8973000000000         4.838810483233576E-105
   73.1367000000000         6.387943732826032E-105
   73.3761000000000         7.360000944742720E-105
   73.6155000000000         6.780542066251976E-105
   73.8549000000000         3.167504608609925E-105
   74.0943000000000        -5.490363247954284E-105
   74.3337000000000        -2.158790473726857E-104
   74.5731000000000        -4.746170731123216E-104
   74.8125000000000        -8.449070175827334E-104
   75.0519000000000        -1.315699605890192E-103
   75.2913000000000        -1.828339938851268E-103
   75.5307000000000        -2.246457017582571E-103
   75.7701000000000        -2.321509828069432E-103
   76.0095000000000        -1.661762580687212E-103
   76.2489000000000         2.805250888734721E-104
   76.4883000000000         4.179846450267595E-103
   76.7277000000000         1.073232520541220E-102
   76.9671000000000         2.043271810837293E-102
   77.2065000000000         3.318991166841106E-102
   77.4459000000000         4.774960003935632E-102
   77.6853000000000         6.092901570997232E-102
   77.9247000000000         6.674011211847209E-102
   78.1641000000000         5.559495102032221E-102
   78.4035000000000         1.395496790205790E-102
   78.6429000000000        -7.500415923503325E-102
   78.8823000000000        -2.289198535205588E-101
   79.1217000000000        -4.610059912768527E-101
   79.3611000000000        -7.711014850316124E-101
   79.6005000000000        -1.132392954375691E-100
   79.8399000000000        -1.474083629292254E-100
   80.0793000000000        -1.661932290653521E-100
   80.3187000000000        -1.481183236677092E-100
   80.5581000000000        -6.299743123552035E-101
   80.7975000000000         1.264439533282651E-100
   81.0369000000000         4.590161022024250E-100
   81.2763000000000         9.636783062119549E-100
   81.5157000000000         1.640553322174020E-099
   81.7551000000000         2.433435645723137E-099
   81.9945000000000         3.194844032773473E-099
   82.2339000000000         3.648097824337720E-099
   82.4733000000000         3.356022009153599E-099
   82.7127000000000         1.712580217087251E-099
   82.9521000000000        -2.018757815467127E-099
   83.1915000000000        -8.589488780776445E-099
   83.4309000000000        -1.854017035559471E-098
   83.6703000000000        -3.183627589319095E-098
   83.9097000000000        -4.735698738009037E-098
   84.1491000000000        -6.226686775454189E-098
   84.3885000000000        -7.136389432809660E-098
   84.6279000000000        -6.658726279018247E-098
   84.8673000000000        -3.697936603141645E-098
   85.1067000000000         3.048811074782194E-098
   85.3461000000000         1.487260732893728E-097
   85.5855000000000         3.264705055151905E-097
   85.8249000000000         5.619869928536794E-097
   86.0643000000000         8.345386755232132E-097
   86.3037000000000         1.094301514619120E-096
   86.5431000000000         1.252459396492343E-096
   86.7825000000000         1.174612943495685E-096
   87.0219000000000         6.822583466465516E-097
   87.2613000000000        -4.313703621466746E-097
   87.5007000000000        -2.363881407828253E-096
   87.7401000000000        -5.237986559829927E-096
   87.9795000000000        -9.003558549614056E-096
   88.2189000000000        -1.330991432083449E-095
   88.4583000000000        -1.736143786610274E-095
   88.6977000000000        -1.978505528410362E-095
   88.9371000000000        -1.855742185472990E-095
   89.1765000000000        -1.106045191981685E-095
   89.4159000000000         5.648895628137833E-096
   89.6553000000000         3.426258907258597E-095
   89.8947000000000         7.626284228699196E-095
   90.1341000000000         1.305538286612920E-094
   90.3735000000000         1.917520337825703E-094
   90.6129000000000         2.483521944623839E-094
   90.8523000000000         2.811863769122505E-094
   91.0917000000000         2.628286769149602E-094
   91.3311000000000         1.588268254485240E-094
   91.5705000000000        -6.820417352833035E-095
   91.8099000000000        -4.506110223302995E-094
   92.0493000000000        -1.003154314561388E-093
   92.2887000000000        -1.705925972609253E-093
   92.5281000000000        -2.484045718339761E-093
   92.7675000000000        -3.187285348556031E-093
   93.0069000000000        -3.575068123095305E-093
   93.2463000000000        -3.314753012802592E-093
   93.4857000000000        -2.003181268337671E-093
   93.7251000000000         7.777102302230357E-094
   93.9645000000000         5.361919419360661E-093
   94.2039000000000         1.185285160312480E-092
   94.4433000000000         1.993480238117543E-092
   94.6827000000000         2.866306824742297E-092
   94.9221000000000         3.627319342227798E-092
   95.1615000000000         4.007253082979332E-092
   95.4009000000000         3.649850108182518E-092
   95.6403000000000         2.144093589369416E-092
   95.8797000000000        -9.078391315595302E-093
   96.1191000000000        -5.780802373542017E-092
   96.3585000000000        -1.247597115522334E-091
   96.5979000000000        -2.054147879652826E-091
   96.8373000000000        -2.889235274698386E-091
   97.0767000000000        -3.567619889334673E-091
   97.3161000000000        -3.824925575474363E-091
   97.5555000000000        -3.334009047714077E-091
   97.7949000000000        -1.747821250289612E-091
   98.0343000000000         1.225612204839006E-091
   98.2737000000000         5.715472053951236E-091
   98.5131000000000         1.155551350270635E-090
   98.7525000000000         1.814614469010316E-090
   98.9919000000000         2.434489791031853E-090
   99.2313000000000         2.843282999270872E-090
   99.4707000000000         2.821396731081156E-090
   99.7101000000000         2.130462186889413E-090
   99.9495000000000         5.652705254916545E-091
   100.188900000000        -1.971219104036149E-090
   100.428300000000        -5.376313404847652E-090
   100.667700000000        -9.255122513269016E-090
   100.907100000000        -1.285362044380340E-089
   101.146500000000        -1.505396331426611E-089
   101.385900000000        -1.447531713202306E-089
   101.625300000000        -9.721576997686986E-090
   101.864700000000         1.982359446218736E-091
   102.104100000000         1.528549077616967E-089
   102.343500000000         3.386822268788724E-089
   102.582900000000         5.195999658571457E-089
   102.822300000000         6.289282359743983E-089
   103.061700000000         5.754034138635887E-089
   103.301100000000         2.549866710393726E-089
   103.540500000000        -4.242938654081321E-089
   103.779900000000        -1.502420225835322E-088
   104.019300000000        -2.913386145409733E-088
   104.258700000000        -4.423120964037287E-088
   104.498100000000        -5.572221191805398E-088
   104.737500000000        -5.644537204537913E-088
   104.976900000000        -3.690675124947158E-088
   105.216300000000         1.359059084968387E-088
   105.455700000000         1.045820745514470E-087
   105.695100000000         2.406064544189266E-087
   105.934500000000         4.159125468201203E-087
   106.173900000000         6.081441157315470E-087
   106.413300000000         7.720463517426089E-087
   106.652700000000         8.349908039432281E-087
   106.892100000000         6.969127443658744E-087
   107.131500000000         2.379102557901456E-087
   107.370900000000        -6.630077977180742E-087
   107.610300000000        -2.095071341834708E-086
   107.849700000000        -4.067539799910655E-086
   108.089100000000        -6.448091414840373E-086
   108.328500000000        -8.894695018419523E-086
   108.567900000000        -1.079436925373343E-085
   108.807300000000        -1.122974083479799E-085
   109.046700000000        -9.001534822663359E-086
   109.286100000000        -2.740022767990015E-086
   109.525500000000         8.861785157278362E-086
   109.764900000000         2.666914294372088E-085
   110.004300000000         5.057732995882769E-085
   110.243700000000         7.886591879218843E-085
   110.483100000000         1.075178005591184E-084
   110.722500000000         1.296484865685630E-084
   110.961900000000         1.352598946146278E-084
   111.201300000000         1.115935669145529E-084
   111.440700000000         4.439112104508749E-085
   111.680100000000        -7.965105689808311E-085
   111.919500000000        -2.690492894524110E-084
   112.158900000000        -5.223519232409687E-084
   112.398300000000        -8.219810143841285E-084
   112.637700000000        -1.127933659154347E-083
   112.877100000000        -1.372740089798850E-083
   113.116500000000        -1.459653621547764E-083
   113.355900000000        -1.266518591485898E-083
   113.595300000000        -6.579507737386803E-084
   113.834700000000         4.918453255137938E-084
   114.074100000000         2.264335305667777E-083
   114.313500000000         4.650664049815520E-083
   114.552900000000         7.498073383065470E-083
   114.792300000000         1.045631401111003E-082
   115.031700000000         1.293616582301373E-082
   115.271100000000         1.409662737160915E-082
   115.510500000000         1.288063935056510E-082
   115.749900000000         8.119952614298641E-083
   115.989300000000        -1.273710764745529E-083
   116.228700000000        -1.602336501466954E-082
   116.468100000000        -3.611590800371245E-082
   116.707500000000        -6.037814563457237E-082
   116.946900000000        -8.606232815152069E-082
   117.186300000000        -1.085371774968230E-081
   117.425700000000        -1.212111975301147E-081
   117.665100000000        -1.158350618776552E-081
   117.904500000000        -8.332861543671090E-082
   118.143900000000        -1.524403600013276E-082
   118.383300000000         9.410047723865846E-082
   118.622700000000         2.449090273058804E-081
   118.862100000000         4.288865168444716E-081
   119.101500000000         6.263873761945718E-081
   119.340900000000         8.044354522073121E-081
   119.580300000000         9.165017937950243E-081
   119.819700000000         9.050178903736890E-081
   120.059100000000         7.075269258341233E-081
   120.298500000000         2.670632018867559E-081
   120.537900000000        -4.532565259480544E-081
   120.777300000000        -1.452367158113982E-080
   121.016700000000        -2.672248815458084E-080
   121.256100000000        -3.981263962154900E-080
   121.495500000000        -5.164604104423593E-080
   121.734900000000        -5.927502059653193E-080
   121.974300000000        -5.916957452971383E-080
   122.213700000000        -4.766576529110342E-080
   122.453100000000        -2.166352441810184E-080
   122.692500000000         2.045414616807749E-080
   122.931900000000         7.777252333158534E-080
   123.171300000000         1.458352416151670E-079
   123.410700000000         2.159186722280871E-079
   123.650100000000         2.748973470498011E-079
   123.889500000000         3.060291785508032E-079
   124.128900000000         2.909458887010884E-079
   124.368300000000         2.130003775547507E-079
   124.607700000000         6.188144891576501E-080
   124.847100000000        -1.609438747447829E-079
   125.086500000000        -4.368353094697180E-079
   125.325900000000        -7.259689330060813E-079
   125.565300000000        -9.664428419554354E-079
   125.804700000000        -1.078422351478041E-078
   126.044100000000        -9.750787228543565E-079
   126.283500000000        -5.813807946366642E-079
   126.522900000000         1.395511373656862E-079
   126.762300000000         1.154873028249425E-078
   127.001700000000         2.330233652767714E-078
   127.241100000000         3.405769619427497E-078
   127.480500000000         3.990635543857302E-078
   127.719900000000         3.588588548320269E-078
   127.959300000000         1.666898325129961E-078
   128.198700000000        -2.222514980432040E-078
   128.438100000000        -8.268320377250068E-078
   128.677500000000        -1.618228060210537E-077
   128.916900000000        -2.496685681851549E-077
   129.156300000000        -3.271610899782635E-077
   129.395700000000        -3.651910071504803E-077
   129.635100000000        -3.255218864811872E-077
   129.874500000000        -1.645371309227022E-077
   130.113900000000         1.593575268670300E-077
   130.353300000000         6.742005515789304E-077
   130.592700000000         1.379008681145367E-076
   130.832100000000         2.225599845340179E-076
   131.071500000000         3.100269015267836E-076
   131.310900000000         3.809428016028926E-076
   131.550300000000         4.074845359044601E-076
   131.789700000000         3.545277023307257E-076
   132.029100000000         1.831601244377465E-076
   132.268500000000        -1.428480610220574E-076
   132.507900000000        -6.473084147702964E-076
   132.747300000000        -1.328835347957149E-075
   132.986700000000        -2.146032722991201E-075
   133.226100000000        -3.002665899984544E-075
   133.465500000000        -3.735988594198295E-075
   133.704900000000        -4.112514899880132E-075
   133.944300000000        -3.836369111001647E-075
   134.183700000000        -2.575581647311340E-075
   134.423100000000        -1.094931711081894E-077
   134.662500000000         4.090037498515971E-075
   134.901900000000         9.775482530838623E-075
   135.141300000000         1.679444543264897E-074
   135.380700000000         2.447943393497334E-074
   135.620100000000         3.164830663138615E-074
   135.859500000000         3.655600727817346E-074
   136.098900000000         3.693293319626723E-074
   136.338300000000         3.014916444220844E-074
   136.577700000000         1.353969168654766E-074
   136.817100000000        -1.508741043963264E-074
   137.056500000000        -5.676234340401108E-074
   137.295900000000        -1.105236407282243E-073
   137.535300000000        -1.725341771851715E-073
   137.774700000000        -2.352863980224484E-073
   138.014100000000        -2.870971572280879E-073
   138.253500000000        -3.121403391889142E-073
   138.492900000000        -2.912899782097385E-073
   138.732300000000        -2.040314639898062E-073