  -1.79550000000000         0.000000000000000E+000
  -1.55610000000000         0.000000000000000E+000
  -1.31670000000000         0.000000000000000E+000
  -1.07730000000000         0.000000000000000E+000
 -0.837900000000000         0.000000000000000E+000
 -0.598500000000000         0.000000000000000E+000
 -0.359100000000000         0.000000000000000E+000
 -0.119700000000000         0.000000000000000E+000
  0.119700000000000         0.000000000000000E+000
  0.359100000000000         0.000000000000000E+000
  0.598500000000000         0.000000000000000E+000
  0.837900000000000         0.000000000000000E+000
   1.07730000000000         0.000000000000000E+000
   1.31670000000000         0.000000000000000E+000
   1.55610000000000         0.000000000000000E+000
   1.79550000000000         0.000000000000000E+000
   2.03490000000000         0.000000000000000E+000
   2.27430000000000         0.000000000000000E+000
   2.51370000000000         0.000000000000000E+000
   2.75310000000000         0.000000000000000E+000
   2.99250000000000         0.000000000000000E+000
   3.23190000000000         0.000000000000000E+000
   3.47130000000000         0.000000000000000E+000
   3.71070000000000         0.000000000000000E+000
   3.95010000000000         0.000000000000000E+000
   4.18950000000000         0.000000000000000E+000
   4.42890000000000         0.000000000000000E+000
   4.66830000000000         0.000000000000000E+000
   4.90770000000000         0.000000000000000E+000
   5.14710000000000         0.000000000000000E+000
   5.38650000000000         0.000000000000000E+000
   5.62590000000000         0.000000000000000E+000
   5.86530000000000         0.000000000000000E+000
   6.10470000000000         0.000000000000000E+000
   6.34410000000000         0.000000000000000E+000
   6.58350000000000         0.000000000000000E+000
   6.82290000000000         0.000000000000000E+000
   7.06230000000000         0.000000000000000E+000
   7.30170000000000         0.000000000000000E+000
   7.54110000000000         0.000000000000000E+000
   7.78050000000000         0.000000000000000E+000
   8.01990000000000         0.000000000000000E+000
   8.25930000000000         0.000000000000000E+000
   8.49870000000000         0.000000000000000E+000
   8.73810000000000         0.000000000000000E+000
   8.97750000000000         0.000000000000000E+000
   9.21690000000000         0.000000000000000E+000
   9.45630000000000         0.000000000000000E+000
   9.69570000000000         0.000000000000000E+000
   9.93510000000000         0.000000000000000E+000
   10.1745000000000         4.090474480719388E-208
   10.4139000000000        -5.315087885930790E-200
   10.6533000000000        -2.834651443869972E-198
   10.8927000000000         1.096387157675980E-195
   11.1321000000000         7.458003091901854E-194
   11.3715000000000         2.288845403243018E-192
   11.6109000000000         4.187186875218811E-191
   11.8503000000000         4.656696287336524E-190
   12.0897000000000         2.062665529803146E-189
   12.3291000000000        -3.058249276249039E-188
   12.5685000000000        -7.641110222800362E-187
   12.8079000000000        -8.139631837143236E-186
   13.0473000000000        -3.180645782789593E-185
   13.2867000000000         5.491724390677916E-184
   13.5261000000000         1.432537419284546E-182
   13.7655000000000         2.016880673420520E-181
   14.0049000000000         2.171714810747694E-180
   14.2443000000000         1.956392484050417E-179
   14.4837000000000         1.532288795665510E-178
   14.7231000000000         1.063831011065547E-177
   14.9625000000000         6.605069319769339E-177
   15.2019000000000         3.666718779832664E-176
   15.4413000000000         1.797582171609608E-175
   15.6807000000000         7.492134355132855E-175
   15.9201000000000         2.348293327774582E-174
   16.1595000000000         2.213867063819139E-174
   16.3989000000000        -4.290464467080013E-173
   16.6383000000000        -4.765012218531146E-172
   16.8777000000000        -3.457941223262777E-171
   17.1171000000000        -2.074362438082077E-170
   17.3565000000000        -1.095107992475067E-169
   17.5959000000000        -5.207553093765175E-169
   17.8353000000000        -2.247261476753915E-168
   18.0747000000000        -8.775762899029058E-168
   18.3141000000000        -3.055754116891892E-167
   18.5535000000000        -9.131151379665708E-167
   18.7929000000000        -2.091084298582651E-166
   19.0323000000000        -1.813075792843698E-166
   19.2717000000000         1.610859546996378E-165
   19.5111000000000         1.335243730319660E-164
   19.7505000000000         6.847724957534995E-164
   19.9899000000000         2.834847328599549E-163
   20.2293000000000         1.005603526051704E-162
   20.4687000000000         3.081945524008359E-162
   20.7081000000000         7.917181168332691E-162
   20.9475000000000         1.509470069751613E-161
   21.1869000000000         8.196265291149042E-162
   21.4263000000000        -1.024441948989065E-160
   21.6657000000000        -6.660344175089388E-160
   21.9051000000000        -2.793385991636959E-159
   22.1445000000000        -9.423848849310235E-159
   22.3839000000000        -2.668186600280759E-158
   22.6233000000000        -6.200604922606197E-158
   22.8627000000000        -1.031120558506216E-157
   23.1021000000000        -2.435046488674568E-158
   23.3415000000000         7.254513205209046E-157
   23.5809000000000         3.975936572841880E-156
   23.8203000000000         1.473572367109851E-155
   24.0597000000000         4.427402729207316E-155
   24.2991000000000         1.114359407254712E-154
   24.5385000000000         2.272335809105630E-154
   24.7779000000000         3.122997567767399E-154
   25.0173000000000        -8.808360208062416E-155
   25.2567000000000        -2.585932533716153E-153
   25.4961000000000        -1.170642064250052E-152
   25.7355000000000        -3.791601318498221E-152
   25.9749000000000        -1.002910067067079E-151
   26.2143000000000        -2.196986174598534E-151
   26.4537000000000        -3.718593050839451E-151
   26.6931000000000        -3.197244774065566E-151
   26.9325000000000         8.475676453843105E-151
   27.1719000000000         5.754287068643270E-150
   27.4113000000000         2.060510068397698E-149
   27.6507000000000         5.735575634468408E-149
   27.8901000000000         1.326159106090493E-148
   28.1295000000000         2.511333422047954E-148
   28.3689000000000         3.422437124906771E-148
   28.6083000000000         8.217826655348748E-149
   28.8477000000000        -1.510215969903045E-147
   29.0871000000000        -6.821778194585628E-147
   29.3265000000000        -2.065015040716239E-146
   29.5659000000000        -5.053793028341342E-146
   29.8053000000000        -1.031650743539286E-145
   30.0447000000000        -1.683087509060236E-145
   30.2841000000000        -1.724778500451688E-145
   30.5235000000000         1.279831081456210E-145
   30.7629000000000         1.348986253352769E-144
   31.0023000000000         4.772033365208741E-144
   31.2417000000000         1.255751920581682E-143
   31.4811000000000         2.724278607124291E-143
   31.7205000000000         4.887099219781315E-143
   31.9599000000000         6.628050993180090E-143
   32.1993000000000         3.666158273523789E-143
   32.4387000000000        -1.538290520802343E-142
   32.6781000000000        -7.503418768269629E-142
   32.9175000000000        -2.187708104317118E-141
   33.1569000000000        -5.055402286254397E-141
   33.3963000000000        -9.728216311037137E-141
   33.6357000000000        -1.515752730003725E-140
   33.8751000000000        -1.596053926150053E-140
   34.1145000000000         3.296774732260113E-141
   34.3539000000000         7.719913024521467E-140
   34.5933000000000         2.697429675156698E-139
   34.8327000000000         6.757021808566101E-139
   35.0721000000000         1.386130913341267E-138
   35.3115000000000         2.361329888012402E-138
   35.5509000000000         3.114066010931623E-138
   35.7903000000000         2.074686570139796E-138
   36.0297000000000        -4.450112398354653E-138
   36.2691000000000        -2.356372850591951E-137
   36.5085000000000        -6.644383369308815E-137
   36.7479000000000        -1.460035496124246E-136
   36.9873000000000        -2.665370108651821E-136
   37.2267000000000        -3.967531822780612E-136
   37.4661000000000        -4.146877405829767E-136
   37.7055000000000        -1.553670203812364E-137
   37.9449000000000         1.408169614196644E-135
   38.1843000000000         4.852502545343168E-135
   38.4237000000000         1.158249049200398E-134
   38.6631000000000         2.244724177590197E-134
   38.9025000000000         3.601967984357651E-134
   39.1419000000000         4.475185581336688E-134
   39.3813000000000         2.850850289973510E-134
   39.6207000000000        -5.395834737801846E-134
   39.8601000000000        -2.717159603896112E-133
   40.0995000000000        -7.158591882443470E-133
   40.3389000000000        -1.459333047488347E-132
   40.5783000000000        -2.446298547190402E-132
   40.8177000000000        -3.265277382482740E-132
   41.0571000000000        -2.774318308770118E-132
   41.2965000000000         1.378418548115977E-132
   41.5359000000000         1.310064495778526E-131
   41.7753000000000         3.744917151575543E-131
   42.0147000000000         7.825293827698945E-131
   42.2541000000000         1.318484876627831E-130
   42.4935000000000         1.746667098113244E-130
   42.7329000000000         1.435118983168860E-130
   42.9723000000000        -8.805594158028632E-131
   43.2117000000000        -7.227799000659190E-130
   43.4511000000000        -2.006990336487365E-129
   43.6905000000000        -4.085477475041691E-129
   43.9299000000000        -6.642234271020062E-129
   44.1693000000000        -8.211616622866329E-129
   44.4087000000000        -5.109529381851604E-129
   44.6481000000000         9.817095403901312E-129
   44.8875000000000         4.783654855243763E-128
   45.1269000000000         1.224896735673659E-127
   45.3663000000000         2.416922789759981E-127
   45.6057000000000         3.882431907081484E-127
   45.8451000000000         4.820578928206581E-127
   46.0845000000000         3.197972023424793E-127
   46.3239000000000        -5.016224269944777E-127
   46.5633000000000        -2.644153538487240E-126
   46.8027000000000        -6.984264612035089E-126
   47.0421000000000        -1.429379575753414E-125
   47.2815000000000        -2.436276690980522E-125
   47.5209000000000        -3.418022276577409E-125
   47.7603000000000        -3.480063026145315E-125
   47.9997000000000        -6.849473123357927E-126
   48.2391000000000         8.439941940215932E-125
   48.4785000000000         2.913429425636394E-124
   48.7179000000000         6.770261105426177E-124
   48.9573000000000         1.286541633002122E-123
   49.1967000000000         2.078108563847398E-123
   49.4361000000000         2.790464709969293E-123
   49.6755000000000         2.727116637326627E-123
   49.9149000000000         4.626963515065545E-124
   50.1543000000000        -6.458739055438570E-123
   50.3937000000000        -2.163461677317617E-122
   50.6331000000000        -4.930895181511440E-122
   50.8725000000000        -9.255048049961950E-122
   51.1119000000000        -1.490384041396193E-121
   51.3513000000000        -2.031707283669568E-121
   51.5907000000000        -2.134651256223812E-121
   51.8301000000000        -9.556903684536753E-122
   52.0695000000000         2.954397477179031E-121
   52.3089000000000         1.173248466339848E-120
   52.5483000000000         2.798066046477988E-120
   52.7877000000000         5.388027789166933E-120
   53.0271000000000         8.911503303184021E-120
   53.2665000000000         1.269613601911956E-119
   53.5059000000000         1.479967352716799E-119
   53.7453000000000         1.114401536127565E-119
   53.9847000000000        -5.443287039204762E-120
   54.2241000000000        -4.585779600093902E-119
   54.4635000000000        -1.241369493643206E-118
   54.7029000000000        -2.541411920999749E-118
   54.9423000000000        -4.412158623040795E-118
   55.1817000000000        -6.659548405151487E-118
   55.4211000000000        -8.573066445004626E-118
   55.6605000000000        -8.540804598221480E-118
   55.8999000000000        -3.588946234420184E-118
   56.1393000000000         1.101362949979918E-117
   56.3787000000000         4.177570113966302E-117
   56.6181000000000         9.607253202903027E-117
   56.8575000000000         1.794430013815249E-116
   57.0969000000000         2.899518118529041E-116
   57.3363000000000         4.083854965686322E-116
   57.5757000000000         4.834721247067275E-116
   57.8151000000000         4.127304708539788E-116
   58.0545000000000         2.261029232732083E-117
   58.2939000000000        -9.430182923614068E-116
   58.5333000000000        -2.808744929821380E-115
   58.7727000000000        -5.899781077362709E-115
   59.0121000000000        -1.038074054645996E-114
   59.2515000000000        -1.595358593258175E-114
   59.4909000000000        -2.137197341139928E-114
   59.7303000000000        -2.376043472156940E-114
   59.9697000000000        -1.780427045397464E-114
   60.2091000000000         4.976856748222167E-115
   60.4485000000000         5.642067375349634E-114
   60.6879000000000         1.505931907160880E-113
   60.9273000000000         3.001495736146947E-113
   61.1667000000000         5.086220395133618E-113
   61.4061000000000         7.569312149219938E-113
   61.6455000000000         9.828623536655188E-113
   61.8849000000000         1.053805500298023E-112
   62.1243000000000         7.364139093907178E-113
   62.3637000000000        -3.272748192275576E-113
   62.6031000000000        -2.618747137671716E-112
   62.8425000000000        -6.686532686990514E-112
   63.0819000000000        -1.299057675308620E-111
   63.3213000000000        -2.159286197657775E-111
   63.5607000000000        -3.163882117075052E-111
   63.8001000000000        -4.059538496888959E-111
   64.0395000000000        -4.327222613400663E-111
   64.2789000000000        -3.077413655588042E-111
   64.5183000000000         1.026424564009124E-111
   64.7577000000000         9.751213607287442E-111
   64.9971000000000         2.508130074661701E-110
   65.2365000000000         4.866482018832968E-110
   65.4759000000000         8.074384040771111E-110
   65.7153000000000         1.183951495760145E-109
   65.9547000000000         1.529815375147393E-109
   66.1941000000000         1.669083704557214E-109
   66.4335000000000         1.301590172683803E-109
   66.6729000000000        -2.293889073687169E-111
   66.9123000000000        -2.902003831196835E-109
   67.1517000000000        -8.017123836357960E-109
   67.3911000000000        -1.596623989861268E-108
   67.6305000000000        -2.693782384452121E-108
   67.8699000000000        -4.017219110214404E-108
   68.1093000000000        -5.317454162507650E-108
   68.3487000000000        -6.069742416896721E-108
   68.5881000000000        -5.361552836438819E-108
   68.8275000000000        -1.799142989365931E-108
   69.0669000000000         6.510981558760891E-108
   69.3063000000000         2.181594725720275E-107
   69.5457000000000         4.627743277609590E-107
   69.7851000000000         8.107725259157575E-107
   70.0245000000000         1.248927492410405E-106
   70.2639000000000         1.716043167375746E-106
   70.5033000000000         2.072249649832621E-106
   70.7427000000000         2.063124849888384E-106
   70.9821000000000         1.285970699021471E-106
   71.2215000000000        -8.271895238861623E-107
   71.4609000000000        -4.985437559725658E-106
   71.7003000000000        -1.193729033713510E-105
   71.9397000000000        -2.224350171182671E-105
   72.1791000000000        -3.586914681732874E-105
   72.4185000000000        -5.154476782726867E-105
   72.6579000000000        -6.587489439484941E-105
   72.8973000000000        -7.223972729503252E-105
   73.1367000000000        -5.966016544505741E-105
   73.3761000000000        -1.199448542387765E-105
   73.6155000000000         9.188493592853891E-105
   73.8549000000000         2.759372414661224E-104
   74.0943000000000         5.614570983136051E-104
   74.3337000000000         9.566043509816456E-104
   74.5731000000000         1.439358396535329E-103
   74.8125000000000         1.932940830946470E-103
   75.0519000000000         2.274430871501336E-103
   75.2913000000000         2.180515289016194E-103
   75.5307000000000         1.219541807900302E-103
   75.7701000000000        -1.193471321434778E-103
   76.0095000000000        -5.752788107629690E-103
   76.2489000000000        -1.313275955038634E-102
   76.4883000000000        -2.372971553959565E-102
   76.7277000000000        -3.723112959084942E-102
   76.9671000000000        -5.198373919444626E-102
   77.2065000000000        -6.417394702819557E-102
   77.4459000000000        -6.691380109898686E-102
   77.6853000000000        -4.945518881224578E-102
   77.9247000000000         3.061648598783473E-103
   78.1641000000000         1.086911144556773E-101
   78.4035000000000         2.857248830184258E-101
   78.6429000000000         5.466483733694725E-101
   78.8823000000000         8.879799146026841E-101
   79.1217000000000         1.275347722079445E-100
   79.3611000000000         1.624153164829570E-100
   79.6005000000000         1.778026600934134E-100
   79.8399000000000         1.490215952808311E-100
   80.0793000000000         4.171068002110897E-101
   80.3187000000000        -1.862032734891066E-100
   80.5581000000000        -5.780110845347764E-100
   80.7975000000000        -1.164990600662409E-099
   81.0369000000000        -1.944339794436441E-099
   81.2763000000000        -2.847104556793703E-099
   81.5157000000000        -3.697137461314856E-099
   81.7551000000000        -4.166072365814055E-099
   81.9945000000000        -3.735320165688542E-099
   82.2339000000000        -1.684132795494604E-099
   82.4733000000000         2.867916366414966E-099
   82.7127000000000         1.082700241469195E-098
   82.9521000000000         2.285795639081669E-098
   83.1915000000000         3.894679738826154E-098
   83.4309000000000         5.777624540801991E-098
   83.6703000000000         7.594213234829059E-098
   83.9097000000000         8.711451631858597E-098
   84.1491000000000         8.135839922375605E-098
   84.3885000000000         4.497139574924507E-098
   84.6279000000000        -3.864764726691162E-098
   84.8673000000000        -1.864508710357947E-097
   85.1067000000000        -4.108160329530116E-097
   85.3461000000000        -7.116676062815223E-097
   85.5855000000000        -1.065475273190170E-096
   85.8249000000000        -1.411771530558352E-096
   86.0643000000000        -1.639142267251114E-096
   86.3037000000000        -1.574484289498818E-096
   86.5431000000000        -9.815801863111519E-097
   86.7825000000000         4.226179331995160E-097
   87.0219000000000         2.923812225735452E-096
   87.2613000000000         6.727858597713157E-096
   87.5007000000000         1.183215980873483E-095
   87.7401000000000         1.785032073892514E-095
   87.9795000000000         2.380266353100860E-095
   88.2189000000000         2.790557352432672E-095
   88.4583000000000         2.741999232350051E-095
   88.6977000000000         1.865134467901113E-095
   88.9371000000000        -2.775785238439059E-096
   89.1765000000000        -4.122453690137952E-095
   89.4159000000000        -9.979510788497831E-095
   89.6553000000000        -1.784253447752530E-094
   89.8947000000000        -2.713629670788684E-094
   90.1341000000000        -3.642230314589389E-094
   90.3735000000000        -4.311279082056269E-094
   90.6129000000000        -4.327911674402437E-094
   90.8523000000000        -3.168112226277660E-094
   91.0917000000000        -2.180354899641693E-095
   91.3311000000000         5.128101101659075E-094
   91.5705000000000         1.329703603923914E-093
   91.8099000000000         2.428330488238284E-093
   92.0493000000000         3.732027096234201E-093
   92.2887000000000         5.050691891620892E-093
   92.5281000000000         6.045728284120631E-093
   92.7675000000000         6.208263273647450E-093
   93.0069000000000         4.866192770811117E-093
   93.2463000000000         1.239300211953336E-093
   93.4857000000000        -5.437034472835599E-093
   93.7251000000000        -1.570223074190336E-092
   93.9645000000000        -2.956771548287098E-092
   94.2039000000000        -4.613260649469772E-092
   94.4433000000000        -6.315872116450449E-092
   94.6827000000000        -7.668468198364040E-092
   94.9221000000000        -8.080419016895826E-092
   95.1615000000000        -6.777793949927613E-092
   95.4009000000000        -2.868021329628833E-092
   95.6403000000000         4.521664727084178E-092
   95.8797000000000         1.601640584802134E-091
   96.1191000000000         3.167269315851890E-091
   96.3585000000000         5.058069420977602E-091
   96.5979000000000         7.043605068136553E-091
   96.8373000000000         8.716452134640638E-091
   97.0767000000000         9.472349648080052E-091
   97.3161000000000         8.524060881181024E-091
   97.5555000000000         4.966980055879109E-091
   97.7949000000000        -2.086549467534742E-091
   98.0343000000000        -1.329300770690806E-090
   98.2737000000000        -2.878425895603596E-090
   98.5131000000000        -4.781439635118731E-090
   98.7525000000000        -6.839160217398853E-090
   98.9919000000000        -8.696912056463048E-090
   99.2313000000000        -9.829827898193340E-090
   99.4707000000000        -9.556764236816703E-090
   99.7101000000000        -7.095654389811241E-090
   99.9495000000000        -1.670815860576531E-090
   100.188900000000         7.323211905646039E-090
   100.428300000000         2.010678645099450E-089
   100.667700000000         3.626861642953774E-089
   100.907100000000         5.452320944894448E-089
   101.146500000000         7.252380596564098E-089
   101.385900000000         8.679345266665476E-089
   101.625300000000         9.283815345974036E-089
   101.864700000000         8.549222611943783E-089
   102.104100000000         5.951342489663263E-089
   102.343500000000         1.039404651107980E-089
   102.582900000000        -6.470995228378929E-089
   102.822300000000        -1.660930336232193E-088
   103.061700000000        -2.908585061839477E-088
   103.301100000000        -4.327099141190902E-088
   103.540500000000        -5.822681157289929E-088
   103.779900000000        -7.278045585974732E-088
   104.019300000000        -8.559715614632565E-088
   104.258700000000        -9.517311755433510E-088
   104.498100000000        -9.963297281232918E-088
   104.737500000000        -9.619980583765141E-088
   104.976900000000        -8.023073666902420E-088
   105.216300000000        -4.380501288104549E-088
   105.455700000000         2.595961271618223E-088
   105.695100000000         1.483877126984691E-087
   105.934500000000         3.496505198686875E-087
   106.173900000000         6.607705565181209E-087
   106.413300000000         1.111510768754577E-086
   106.652700000000         1.718272486040868E-086
   106.892100000000         2.464443255787928E-086
   107.131500000000         3.272720261811041E-086
   107.370900000000         3.971076122359648E-086
   107.610300000000         4.257430404135547E-086
   107.849700000000         3.672726715159422E-086
   108.089100000000         1.597605866113193E-086
   108.328500000000        -2.706711562259773E-086
   108.567900000000        -9.988959139441677E-086
   108.807300000000        -2.080561825140709E-085
   109.046700000000        -3.520893567071879E-085
   109.286100000000        -5.232533143023515E-085
   109.525500000000        -6.985440118476774E-085
   109.764900000000        -8.356288502570925E-085
   110.004300000000        -8.690473656758832E-085
   110.243700000000        -7.096184081723497E-085
   110.483100000000        -2.495814155880302E-085
   110.722500000000         6.236582930954113E-085
   110.961900000000         2.002463924723851E-084
   111.201300000000         3.920820313922966E-084
   111.440700000000         6.303412775755055E-084
   111.680100000000         8.905661571229672E-084
   111.919500000000         1.125328544012678E-083
   112.158900000000         1.259598909419146E-083
   112.398300000000         1.189637340946153E-083
   112.637700000000         7.880879994215353E-084
   112.877100000000        -8.174122622575308E-085
   113.116500000000        -1.539653114864548E-083
   113.355900000000        -3.648659087771901E-083
   113.595300000000        -6.361788598591733E-083
   113.834700000000        -9.459401610875128E-083
   114.074100000000        -1.248550306517166E-082
   114.313500000000        -1.469729000114972E-082
   114.552900000000        -1.504822306909425E-082
   114.792300000000        -1.223009741070929E-082
   115.031700000000        -4.802139990741542E-083
   115.271100000000         8.567145974436685E-083
   115.510500000000         2.872930932002904E-082
   115.749900000000         5.555965014718640E-082
   115.989300000000         8.736890412436586E-082
   116.228700000000         1.202979495210303E-081
   116.468100000000         1.478203009958883E-081
   116.707500000000         1.605289873702914E-081
   116.946900000000         1.464279979189365E-081
   117.186300000000         9.196919797089218E-082
   117.425700000000        -1.594465964225609E-082
   117.665100000000        -1.868510675940526E-081
   117.904500000000        -4.225323244404622E-081
   118.143900000000        -7.120005299247456E-081
   118.383300000000        -1.026263488059665E-080
   118.622700000000        -1.313867798585669E-080
   118.862100000000        -1.498623258971519E-080
   119.101500000000        -1.481251193343866E-080
   119.340900000000        -1.146856339004880E-080
   119.580300000000        -3.799617872415315E-081
   119.819700000000         9.117736828261297E-081
   120.059100000000         2.765239934851404E-080
   120.298500000000         5.122898410177103E-080
   120.537900000000         7.791546959884975E-080
   120.777300000000         1.040612362880963E-079
   121.016700000000         1.240879024430865E-079
   121.256100000000         1.305593946065793E-079
   121.495500000000         1.146683745984278E-079
   121.734900000000         6.726414051530718E-080
   121.974300000000        -1.949710927172014E-080
   122.213700000000        -1.498830183620694E-079
   122.453100000000        -3.218280090972298E-079
   122.692500000000        -5.239872725014803E-079
   122.931900000000        -7.330942746498003E-079
   123.171300000000        -9.123073201540043E-079
   123.410700000000        -1.011383372920394E-078
   123.650100000000        -9.695777532060532E-079
   123.889500000000        -7.220775280194021E-079
   124.128900000000        -2.104769476675971E-079
   124.368300000000         6.027479979174579E-079
   124.607700000000         1.716624657189387E-078
   124.847100000000         3.072832101728547E-078
   125.086500000000         4.538690398117775E-078
   125.325900000000         5.896195536788971E-078
   125.565300000000         6.842133529451271E-078
   125.804700000000         7.004525186099249E-078
   126.044100000000         5.979923341207435E-078
   126.283500000000         3.394103765345907E-078
   126.522900000000        -1.014729362887787E-078
   126.762300000000        -7.295942975061730E-078
   127.001700000000        -1.518133481813668E-077
   127.241100000000        -2.399283181648086E-077
   127.480500000000        -3.258659303973969E-077
   127.719900000000        -3.936043629901954E-077
   127.959300000000        -4.235089394489352E-077
   128.198700000000        -3.943991925707792E-077
   128.438100000000        -2.867801620309523E-077
   128.677500000000        -8.709948301710198E-078
   128.916900000000         2.073780014186460E-077
   129.156300000000         5.837911581876508E-077
   129.395700000000         1.010001763614214E-076
   129.635100000000         1.433218688401699E-076
   129.874500000000         1.782166484172088E-076
   130.113900000000         1.973810930728848E-076
   130.353300000000         1.925095202644072E-076
   130.592700000000         1.569217276422038E-076
   130.832100000000         8.747280818908457E-077
   131.071500000000        -1.357187526176645E-077
   131.310900000000        -1.371537726551807E-076
   131.550300000000        -2.670875054205970E-076
   131.789700000000        -3.813486778406288E-076
   132.029100000000        -4.554372328405762E-076
   132.268500000000        -4.679776197564629E-076
   132.507900000000        -4.082272441011734E-076
   132.747300000000        -2.844907986814074E-076
   132.986700000000        -1.316440983654760E-076
   133.226100000000        -1.518468906434874E-077
   133.465500000000        -2.864411909050449E-077
   133.704900000000        -2.810749995176116E-076
   133.944300000000        -8.719551730562192E-076
   134.183700000000        -1.852506705224117E-075
   134.423100000000        -3.175297328502716E-075
   134.662500000000        -4.638086589090054E-075
   134.901900000000        -5.832929640343869E-075
   135.141300000000        -6.116918124106015E-075
   135.380700000000        -4.625547648644615E-075
   135.620100000000        -3.520537149504257E-076
   135.859500000000         7.685678524963956E-075
   136.098900000000         2.017678597858681E-074
   136.338300000000         3.714929066984159E-074
   136.577700000000         5.752780475040312E-074
   136.817100000000         7.867485115402486E-074
   137.056500000000         9.601122902571894E-074
   137.295900000000         1.028488846094306E-073
   137.535300000000         9.060008913900929E-074
   137.774700000000         4.953854781977905E-074
   138.014100000000        -2.973141043473979E-074
   138.253500000000        -1.540052685265706E-073
   138.492900000000        -3.244351407347791E-073
   138.732300000000        -5.329190793526224E-073