  -1.79550000000000         0.000000000000000E+000
  -1.55610000000000         0.000000000000000E+000
  -1.31670000000000         0.000000000000000E+000
  -1.07730000000000         0.000000000000000E+000
 -0.837900000000000         0.000000000000000E+000
 -0.598500000000000         0.000000000000000E+000
 -0.359100000000000         0.000000000000000E+000
 -0.119700000000000         0.000000000000000E+000
  0.119700000000000         0.000000000000000E+000
  0.359100000000000         0.000000000000000E+000
  0.598500000000000         0.000000000000000E+000
  0.837900000000000         0.000000000000000E+000
   1.07730000000000         0.000000000000000E+000
   1.31670000000000         0.000000000000000E+000
   1.55610000000000         0.000000000000000E+000
   1.79550000000000         0.000000000000000E+000
   2.03490000000000         0.000000000000000E+000
   2.27430000000000         0.000000000000000E+000
   2.51370000000000         0.000000000000000E+000
   2.75310000000000         0.000000000000000E+000
   2.99250000000000         0.000000000000000E+000
   3.23190000000000         0.000000000000000E+000
   3.47130000000000         0.000000000000000E+000
   3.71070000000000         0.000000000000000E+000
   3.95010000000000         0.000000000000000E+000
   4.18950000000000         0.000000000000000E+000
   4.42890000000000         0.000000000000000E+000
   4.66830000000000         0.000000000000000E+000
   4.90770000000000         0.000000000000000E+000
   5.14710000000000         0.000000000000000E+000
   5.38650000000000         0.000000000000000E+000
   5.62590000000000         0.000000000000000E+000
   5.86530000000000         0.000000000000000E+000
   6.10470000000000         0.000000000000000E+000
   6.34410000000000         0.000000000000000E+000
   6.58350000000000         0.000000000000000E+000
   6.82290000000000         0.000000000000000E+000
   7.06230000000000         0.000000000000000E+000
   7.30170000000000         0.000000000000000E+000
   7.54110000000000         0.000000000000000E+000
   7.78050000000000         0.000000000000000E+000
   8.01990000000000         0.000000000000000E+000
   8.25930000000000         0.000000000000000E+000
   8.49870000000000         0.000000000000000E+000
   8.73810000000000         0.000000000000000E+000
   8.97750000000000         0.000000000000000E+000
   9.21690000000000         0.000000000000000E+000
   9.45630000000000         0.000000000000000E+000
   9.69570000000000         0.000000000000000E+000
   9.93510000000000         0.000000000000000E+000
   10.1745000000000         0.000000000000000E+000
   10.4139000000000         0.000000000000000E+000
   10.6533000000000         0.000000000000000E+000
   10.8927000000000         1.612819827440125E-222
   11.1321000000000        -2.634939522438333E-216
   11.3715000000000         2.974957951729227E-212
   11.6109000000000        -8.028835503006475E-210
   11.8503000000000        -1.009977900664344E-207
   12.0897000000000        -3.239189482071849E-206
   12.3291000000000         1.918194383650540E-205
   12.5685000000000         4.808263010977472E-203
   12.8079000000000         1.932166177505464E-201
   13.0473000000000         4.743925834914606E-200
   13.2867000000000         8.341912094309384E-199
   13.5261000000000         1.091591344555413E-197
   13.7655000000000         1.017992698975386E-196
   14.0049000000000         4.861739822850721E-196
   14.2443000000000        -4.207643998592559E-195
   14.4837000000000        -1.431532996668047E-193
   14.7231000000000        -2.225801922300094E-192
   14.9625000000000        -2.590038560035615E-191
   15.2019000000000        -2.493131413240339E-190
   15.4413000000000        -2.057070530606523E-189
   15.6807000000000        -1.467499476189491E-188
   15.9201000000000        -8.881672868586092E-188
   16.1595000000000        -4.173661683172440E-187
   16.3989000000000        -8.744001050052009E-187
   16.6383000000000         1.127081422283979E-185
   16.8777000000000         2.127679110818490E-184
   17.1171000000000         2.444596380035549E-183
   17.3565000000000         2.342373455736074E-182
   17.5959000000000         2.017846309491977E-181
   17.8353000000000         1.607819135534810E-180
   18.0747000000000         1.200571105049606E-179
   18.3141000000000         8.460448947236207E-179
   18.5535000000000         5.651873408574289E-178
   18.7929000000000         3.591272759258973E-177
   19.0323000000000         2.176866685365763E-176
   19.2717000000000         1.262257163510719E-175
   19.5111000000000         7.020930949987179E-175
   19.7505000000000         3.756559088751722E-174
   19.9899000000000         1.939009369115768E-173
   20.2293000000000         9.683453596704241E-173
   20.4687000000000         4.692522206306145E-172
   20.7081000000000         2.212744745738450E-171
   20.9475000000000         1.017956591688750E-170
   21.1869000000000         4.578843315468723E-170
   21.4263000000000         2.017102259424886E-169
   21.6657000000000         8.710986421349031E-169
   21.9051000000000         3.688673776907056E-168
   22.1445000000000         1.530771409730918E-167
   22.3839000000000         6.218294639364512E-167
   22.6233000000000         2.468289866008751E-166
   22.8627000000000         9.552922198479474E-166
   23.1021000000000         3.595688546958722E-165
   23.3415000000000         1.312384474127853E-164
   23.5809000000000         4.628993639923683E-164
   23.8203000000000         1.571211456077070E-163
   24.0597000000000         5.103889616142829E-163
   24.2991000000000         1.574080851269538E-162
   24.5385000000000         4.550850680371650E-162
   24.7779000000000         1.205263132537043E-161
   25.0173000000000         2.780404590052341E-161
   25.2567000000000         4.786704292600607E-161
   25.4961000000000         9.758896521046281E-162
   25.7355000000000        -4.301137338763294E-160
   25.9749000000000        -2.743438067619419E-159
   26.2143000000000        -1.246812729147903E-158
   26.4537000000000        -4.869093327040973E-158
   26.6931000000000        -1.728070681386596E-157
   26.9325000000000        -5.708679949152739E-157
   27.1719000000000        -1.776447046652390E-156
   27.4113000000000        -5.239725801475335E-156
   27.6507000000000        -1.469143704924707E-155
   27.8901000000000        -3.917954655874068E-155
   28.1295000000000        -9.922449762979386E-155
   28.3689000000000        -2.376928951194420E-154
   28.6083000000000        -5.345826296996620E-154
   28.8477000000000        -1.113667357017129E-153
   29.0871000000000        -2.093519166256766E-153
   29.3265000000000        -3.344067520245609E-153
   29.5659000000000        -3.709755574018442E-153
   29.8053000000000         1.003662922394284E-153
   30.0447000000000         2.246854785312981E-152
   30.2841000000000         8.806912267037811E-152
   30.5235000000000         2.527086995322345E-151
   30.7629000000000         6.072610814276406E-151
   31.0023000000000         1.260107317768140E-150
   31.2417000000000         2.243749605107019E-150
   31.4811000000000         3.312652022631471E-150
   31.7205000000000         3.865924614051423E-150
   31.9599000000000         4.479172267610088E-150
   32.1993000000000         1.586233050230668E-149
   32.4387000000000         9.379745599111560E-149
   32.6781000000000         4.517911485780547E-148
   32.9175000000000         1.780811486355474E-147
   33.1569000000000         6.067890870196330E-147
   33.3963000000000         1.850080669775694E-146
   33.6357000000000         5.147394575530968E-146
   33.8751000000000         1.320278359955404E-145
   34.1145000000000         3.132559760433551E-145
   34.3539000000000         6.853347010409273E-145
   34.5933000000000         1.365580987086340E-144
   34.8327000000000         2.403734165001653E-144
   35.0721000000000         3.439781272129722E-144
   35.3115000000000         2.754250745692313E-144
   35.5509000000000        -4.983944137637235E-144
   35.7903000000000        -3.339823577260486E-143
   36.0297000000000        -1.128277297383785E-142
   36.2691000000000        -3.025952225115691E-142
   36.5085000000000        -7.015777417546228E-142
   36.7479000000000        -1.434701001565723E-141
   36.9873000000000        -2.551884497271994E-141
   37.2267000000000        -3.689240566106773E-141
   37.4661000000000        -3.183579225324917E-141
   37.7055000000000         3.910076355425725E-141
   37.9449000000000         2.970144469453415E-140
   38.1843000000000         1.000034846208426E-139
   38.4237000000000         2.630360780701276E-139
   38.6631000000000         5.952667241111571E-139
   38.9025000000000         1.187289935549759E-138
   39.1419000000000         2.065602908364100E-138
   39.3813000000000         2.953268619156499E-138
   39.6207000000000         2.682838986643118E-138
   39.8601000000000        -2.049602146716065E-138
   40.0995000000000        -1.901119718936031E-137
   40.3389000000000        -6.418931394224183E-137
   40.5783000000000        -1.666425279512499E-136
   40.8177000000000        -3.718950832591424E-136
   41.0571000000000        -7.358907517348059E-136
   41.2965000000000        -1.290190468986588E-135
   41.5359000000000        -1.938493440830407E-135
   41.7753000000000        -2.212385648358638E-135
   42.0147000000000        -7.744093865250098E-136
   42.2541000000000         5.469019340358159E-135
   42.4935000000000         2.273122215723189E-134
   42.7329000000000         6.200348931990197E-134
   42.9723000000000         1.400702012113010E-133
   43.2117000000000         2.772501157711036E-133
   43.4511000000000         4.859793656998886E-133
   43.6905000000000         7.389228109230697E-133
   43.9299000000000         8.976907864580489E-133
   44.1693000000000         5.754659186568578E-133
   44.4087000000000        -1.094268057454659E-132
   44.6481000000000        -5.788832639438467E-132
   44.8875000000000        -1.635588177888162E-131
   45.1269000000000        -3.694133856277269E-131
   45.3663000000000        -7.224459500425865E-131
   45.6057000000000        -1.245942575644962E-130
   45.8451000000000        -1.865411595822995E-130
   46.0845000000000        -2.254728981652593E-130
   46.3239000000000        -1.559532288909670E-130
   46.5633000000000         2.034202791319960E-130
   46.8027000000000         1.185794150698788E-129
   47.0421000000000         3.325232648327616E-129
   47.2815000000000         7.345258742613259E-129
   47.5209000000000         1.396983494860382E-128
   47.7603000000000         2.334180387690381E-128
   47.9997000000000         3.370701077095069E-128
   48.2391000000000         3.890807672521719E-128
   48.4785000000000         2.424246114513536E-128
   48.7179000000000        -3.938966641762844E-128
   48.9573000000000        -2.019747760550314E-127
   49.1967000000000        -5.378848224505328E-127
   49.4361000000000        -1.138012627783661E-126
   49.6755000000000        -2.074586743474614E-126
   49.9149000000000        -3.312487755646880E-126
   50.1543000000000        -4.530489048467616E-126
   50.3937000000000        -4.812322286045975E-126
   50.6331000000000        -2.185753751055332E-126
   50.8725000000000         6.945631574603039E-126
   51.1119000000000         2.827860207153876E-125
   51.3513000000000         6.950265230891652E-125
   51.5907000000000         1.386440150974455E-124
   51.8301000000000         2.392487308946996E-124
   52.0695000000000         3.600997426972610E-124
   52.3089000000000         4.568078476859134E-124
   52.5483000000000         4.234003310733061E-124
   52.7877000000000         5.535036585004423E-125
   53.0271000000000        -9.865904541835423E-124
   53.2665000000000        -3.187377368091755E-123
   53.5059000000000        -7.114947023030273E-123
   53.7453000000000        -1.320243371450507E-122
   53.9847000000000        -2.125914736629504E-122
   54.2241000000000        -2.957577455766524E-122
   54.4635000000000        -3.352476083566740E-122
   54.7029000000000        -2.370874651405348E-122
   54.9423000000000         1.593365572180447E-122
   55.1817000000000         1.089959191464755E-121
   55.4211000000000         2.843494612348744E-121
   55.6605000000000         5.673376297345591E-121
   55.8999000000000         9.596890948960020E-121
   56.1393000000000         1.402993317441174E-120
   56.3787000000000         1.722588856402306E-120
   56.6181000000000         1.555597591618888E-120
   56.8575000000000         2.817188091194614E-121
   57.0969000000000        -2.998798317669047E-120
   57.3363000000000        -9.358226237366984E-120
   57.5757000000000        -1.968027130605823E-119
   57.8151000000000        -3.388751968114712E-119
   58.0545000000000        -4.961570846092641E-119
   58.2939000000000        -6.031776269753694E-119
   58.5333000000000        -5.310001791780953E-119
   58.7727000000000        -7.201081589251426E-120
   59.0121000000000         1.050241501298827E-118
   59.2515000000000         3.115314393935381E-118
   59.4909000000000         6.242051451913537E-118
   59.7303000000000         1.008232573625375E-117
   59.9697000000000         1.335033196188979E-117
   60.2091000000000         1.323535443072421E-117
   60.4485000000000         4.892123933871490E-118
   60.6879000000000        -1.854984511332936E-117
   60.9273000000000        -6.466794352096998E-117
   61.1667000000000        -1.379406540975336E-116
   61.4061000000000        -2.320252886222756E-116
   61.6455000000000        -3.169397318590937E-116
   61.8849000000000        -3.213204720792614E-116
   62.1243000000000        -1.132268034867339E-116
   62.3637000000000         5.108518037571174E-116
   62.6031000000000         1.809409890808238E-115
   62.8425000000000         4.019608544334593E-115
   63.0819000000000         7.176165060307746E-115
   63.3213000000000         1.077462076408505E-114
   63.5607000000000         1.324327472611043E-114
   63.8001000000000         1.124584998220043E-114
   64.0395000000000        -1.033454846655536E-115
   64.2789000000000        -3.223858328800495E-114
   64.5183000000000        -9.308667139472044E-114
   64.7577000000000        -1.933197321084723E-113
   64.9971000000000        -3.347268248927384E-113
   65.2365000000000        -4.984088163790155E-113
   65.4759000000000        -6.249765071455806E-113
   65.7153000000000        -5.883089003400896E-113
   65.9547000000000        -1.677826102231792E-113
   66.1941000000000         9.685067877699163E-113
   66.4335000000000         3.245486742848031E-112
   66.6729000000000         7.088941263001893E-112
   66.9123000000000         1.270551332405569E-111
   67.1517000000000         1.967291663681885E-111
   67.3911000000000         2.629059338325109E-111
   67.6305000000000         2.869392120728323E-111
   67.8699000000000         1.985558464602856E-111
   68.1093000000000        -1.118528379817066E-111
   68.3487000000000        -7.919285809381812E-111
   68.5881000000000        -2.005929139131405E-110
   68.8275000000000        -3.877430441075583E-110
   69.0669000000000        -6.377249793667922E-110
   69.3063000000000        -9.139460637655277E-110
   69.5457000000000        -1.120029368610395E-109
   69.7851000000000        -1.068382583473295E-109
   70.0245000000000        -4.512391128032209E-110
   70.2639000000000         1.169556480189877E-109
   70.5033000000000         4.326291005712119E-109
   70.7427000000000         9.522036839253637E-109
   70.9821000000000         1.696928806054588E-108
   71.2215000000000         2.613950785570647E-108
   71.4609000000000         3.509459337170902E-108
   71.7003000000000         3.963197225431542E-108
   71.9397000000000         3.239311190128712E-108
   72.1791000000000         2.276311667243102E-109
   72.4185000000000        -6.523879103712401E-108
   72.6579000000000        -1.859322654843205E-107
   72.8973000000000        -3.716411248993043E-107
   73.1367000000000        -6.206978007332371E-107
   73.3761000000000        -9.030174210191185E-107
   73.6155000000000        -1.139936396732339E-106
   73.8549000000000        -1.181178867361788E-106
   74.0943000000000        -7.851517711568597E-107
   74.3337000000000         3.857102391485813E-107
   74.5731000000000         2.735992636748921E-106
   74.8125000000000         6.649351300955977E-106
   75.0519000000000         1.231207664531655E-105
   75.2913000000000         1.942187594699631E-105
   75.5307000000000         2.677256879204109E-105
   75.7701000000000         3.174412318248377E-105
   76.0095000000000         2.979571201391906E-105
   76.2489000000000         1.416165535701285E-105
   76.4883000000000        -2.391789169894115E-105
   76.7277000000000        -9.395767823017363E-105
   76.9671000000000        -2.033977354648527E-104
   77.2065000000000        -3.526035264707262E-104
   77.4459000000000        -5.273390127131581E-104
   77.6853000000000        -6.889399712598905E-104
   77.9247000000000        -7.635055039439719E-104
   78.1641000000000        -6.331240160116800E-104
   78.4035000000000        -1.344323653343002E-104
   78.6429000000000         9.275892076918334E-104
   78.8823000000000         2.740396827140257E-103
   79.1217000000000         5.408223807099790E-103
   79.3611000000000         8.831334166454000E-103
   79.6005000000000         1.253933391514935E-102
   79.8399000000000         1.549334058394215E-102
   80.0793000000000         1.589726766994555E-102
   80.3187000000000         1.109401959981126E-102
   80.5581000000000        -2.335021827438976E-103
   80.7975000000000        -2.810759406338250E-102
   81.0369000000000        -6.923147004257818E-102
   81.2763000000000        -1.262823440906423E-101
   81.5157000000000        -1.948938793572333E-101
   81.7551000000000        -2.625875976844449E-101
   81.9945000000000        -3.054158857828404E-101
   82.2339000000000        -2.853922309698806E-101
   82.4733000000000        -1.503087388191469E-101
   82.7127000000000         1.618081186305442E-101
   82.9521000000000         7.108753142555437E-101
   83.1915000000000         1.532849973434962E-100
   83.4309000000000         2.605968040927062E-100
   83.6703000000000         3.805715643279729E-100
   83.9097000000000         4.853393134284320E-100
   84.1491000000000         5.269552364844348E-100
   84.3885000000000         4.351911294025809E-100
   84.6279000000000         1.206482452863937E-100
   84.8673000000000        -5.131712226458007E-100
   85.1067000000000        -1.544961979956477E-099
   85.3461000000000        -2.994834449485150E-099
   85.5855000000000        -4.767122495220699E-099
   85.8249000000000        -6.581076113634975E-099
   86.0643000000000        -7.901265498364392E-099
   86.3037000000000        -7.889598706074057E-099
   86.5431000000000        -5.412368394713929E-099
   86.7825000000000         8.537954390601251E-100
   87.0219000000000         1.216798728198273E-098
   87.2613000000000         2.928006315524519E-098
   87.5007000000000         5.177619145230631E-098
   87.7401000000000         7.724691504203575E-098
   87.9795000000000         1.003911535039342E-097
   88.2189000000000         1.122813858799175E-097
   88.4583000000000         1.001467982604504E-097
   88.6977000000000         4.815709009370573E-098
   88.9371000000000        -6.023387761579349E-098
   89.1765000000000        -2.378613403076495E-097
   89.4159000000000        -4.870424541176847E-097
   89.6553000000000        -7.905864488251647E-097
   89.8947000000000        -1.101641482317221E-096
   90.1341000000000        -1.334546092352231E-096
   90.3735000000000        -1.360227709057081E-096
   90.6129000000000        -1.011042232753585E-096
   90.8523000000000        -1.008432428304482E-097
   91.0917000000000         1.534118802240587E-096
   91.3311000000000         3.969907763977560E-096
   91.5705000000000         7.106341257869350E-096
   91.8099000000000         1.056415561919575E-095
   92.0493000000000         1.358797913268084E-095
   92.2887000000000         1.498850282037463E-095
   92.5281000000000         1.317034961399489E-095
   92.7675000000000         6.300881948287982E-096
   93.0069000000000        -7.326411649613498E-096
   93.2463000000000        -2.869949253576342E-095
   93.4857000000000        -5.727584068054274E-095
   93.7251000000000        -9.003427494664567E-095
   93.9645000000000        -1.205766332980244E-094
   94.2039000000000        -1.385872448821174E-094
   94.4433000000000        -1.300752729440145E-094
   94.6827000000000        -7.889760041463949E-095
   94.9221000000000         2.996780752894984E-095
   95.1615000000000         2.051222983053268E-094
   95.4009000000000         4.415689306187489E-094
   95.6403000000000         7.124977514286485E-094
   95.8797000000000         9.618194973799997E-094
   96.1191000000000         1.100321683621245E-093
   96.3585000000000         1.009318291780710E-093
   96.5979000000000         5.561875175124904E-094
   96.8373000000000        -3.742802864392621E-094
   97.0767000000000        -1.830870848698355E-093
   97.3161000000000        -3.731631659977488E-093
   97.5555000000000        -5.793266204917800E-093
   97.7949000000000        -7.472071482663573E-093
   98.0343000000000        -7.944106866000069E-093
   98.2737000000000        -6.160830275627926E-093
   98.5131000000000        -1.019985708436872E-093
   98.7525000000000         8.314851529072801E-093
   98.9919000000000         2.193451956468605E-092
   99.2313000000000         3.857500202241715E-092
   99.4707000000000         5.497427434766985E-092
   99.7101000000000         6.537545642332916E-092
   99.9495000000000         6.144921712621200E-092
   100.188900000000         3.298667085272956E-092
   100.428300000000        -3.025747543793919E-092
   100.667700000000        -1.352597163813343E-091
   100.907100000000        -2.808654603597174E-091
   101.146500000000        -4.516866443223301E-091
   101.385900000000        -6.117053931729501E-091
   101.625300000000        -6.993488256833843E-091
   101.864700000000        -6.267038597885673E-091
   102.104100000000        -2.863205594843895E-091
   102.343500000000         4.306191157006428E-091
   102.582900000000         1.601549481358309E-090
   102.822300000000         3.223911557422927E-090
   103.061700000000         5.153192882083023E-090
   103.301100000000         7.035994776794827E-090
   103.540500000000         8.254289298069782E-090
   103.779900000000         7.905864933992753E-090
   104.019300000000         4.854057405289581E-090
   104.258700000000        -2.115660971981314E-090
   104.498100000000        -1.399773072457140E-089
   104.737500000000        -3.110791621145625E-089
   104.976900000000        -5.247664599644168E-089
   105.216300000000        -7.515827954852044E-089
   105.455700000000        -9.359088001816094E-089
   105.695100000000        -9.922471157167855E-089
   105.934500000000        -8.072032562726534E-089
   106.173900000000        -2.507508229328167E-089
   106.413300000000         7.996319983331888E-089
   106.652700000000         2.419359451337314E-088
   106.892100000000         4.581477934330395E-088
   107.131500000000         7.089705222185255E-088
   107.370900000000         9.509702677695394E-088
   107.610300000000         1.111597085163129E-087
   107.849700000000         1.087971019646586E-087
   108.089100000000         7.529643995483832E-088
   108.328500000000        -2.795007102060618E-089
   108.567900000000        -1.366082636279910E-087
   108.807300000000        -3.303717836437225E-087
   109.046700000000        -5.754717682857856E-087
   109.286100000000        -8.437795063219750E-087
   109.525500000000        -1.081487200862835E-086
   109.764900000000        -1.205399588709388E-086
   110.004300000000        -1.104301891793764E-086
   110.243700000000        -6.484701836685559E-087
   110.483100000000         2.896560512310050E-087
   110.722500000000         1.801467873990365E-086
   110.961900000000         3.894633867577679E-086
   111.201300000000         6.435077584482467E-086
   111.440700000000         9.086217671147372E-086
   111.680100000000         1.125892818973593E-085
   111.919500000000         1.209172370613262E-085
   112.158900000000         1.048573788223507E-085
   112.398300000000         5.221261104403333E-086
   112.637700000000        -4.820427125570917E-086
   112.877100000000        -2.031699762123651E-085
   113.116500000000        -4.105464471038913E-085
   113.355900000000        -6.540709189671277E-085
   113.595300000000        -8.982604168857656E-085
   113.834700000000        -1.084736688477188E-084
   114.074100000000        -1.131748752176477E-084
   114.313500000000        -9.390039457587818E-085
   114.552900000000        -3.999502046916447E-085
   114.792300000000         5.768091600589521E-085
   115.031700000000         2.036430545646437E-084
   115.271100000000         3.938502770806972E-084
   115.510500000000         6.113720157557179E-084
   115.749900000000         8.224306359662489E-084
   115.989300000000         9.739726201019361E-084
   116.228700000000         9.942565701820231E-084
   116.468100000000         7.981315108576724E-084
   116.707500000000         2.985848222481678E-084
   116.946900000000        -5.743765432185182E-084
   117.186300000000        -1.847511538571055E-083
   117.425700000000        -3.472481510361387E-083
   117.665100000000        -5.292298559539097E-083
   117.904500000000        -7.012734503196990E-083
   118.143900000000        -8.188060090412599E-083
   118.383300000000        -8.232637507384079E-083
   118.622700000000        -6.470664000898508E-083
   118.862100000000        -2.234805699017173E-083
   119.101500000000         4.980394262106877E-083
   119.340900000000         1.531335754812559E-082
   119.580300000000         2.829481582373045E-082
   119.819700000000         4.260491102150190E-082
   120.059100000000         5.588037299089984E-082
   120.298500000000         6.464215234575697E-082
   120.537900000000         6.442637958047633E-082
   120.777300000000         5.020266464824124E-082
   121.016700000000         1.714712698034241E-082
   121.256100000000        -3.820281546094162E-082
   121.495500000000        -1.164529405986736E-081
   121.734900000000        -2.136528682661315E-081
   121.974300000000        -3.196473375373690E-081
   122.213700000000        -4.168581456742537E-081
   122.453100000000        -4.799874221576672E-081
   122.692500000000        -4.771970514939400E-081
   122.931900000000        -3.732986255229630E-081
   123.171300000000        -1.353435957653993E-081
   123.410700000000         2.592993590052640E-081
   123.650100000000         8.127706861114314E-081
   123.889500000000         1.495483249047876E-080
   124.128900000000         2.235611077335807E-080
   124.368300000000         2.911859332610731E-080
   124.607700000000         3.352695868976669E-080
   124.847100000000         3.345504656971068E-080
   125.086500000000         2.658825587662449E-080
   125.325900000000         1.079748151897698E-080
   125.565300000000        -1.533542467677410E-080
   125.804700000000        -5.187162576972056E-080
   126.044100000000        -9.681953426882201E-080
   126.283500000000        -1.455051421946112E-079
   126.522900000000        -1.901677199012654E-079
   126.762300000000        -2.199724443678362E-079
   127.001700000000        -2.216407463214794E-079
   127.241100000000        -1.808724512097753E-079
   127.480500000000        -8.465943366607342E-080
   127.719900000000         7.553906957204398E-080
   127.959300000000         2.999741391881515E-079
   128.198700000000         5.765814253866127E-079
   128.438100000000         8.774435595776901E-079
   128.677500000000         1.156659006059220E-078
   128.916900000000         1.350686393727164E-078
   129.156300000000         1.382243815165168E-078
   129.395700000000         1.168647018479471E-078
   129.635100000000         6.350143048908967E-079
   129.874500000000        -2.679783176993664E-079
   130.113900000000        -1.543123865036983E-078
   130.353300000000        -3.125035009181133E-078
   130.592700000000        -4.861615702684317E-078
   130.832100000000        -6.503528493184852E-078
   131.071500000000        -7.707147914213523E-078
   131.310900000000        -8.056326957314557E-078
   131.550300000000        -7.107059326334625E-078
   131.789700000000        -4.456573655087484E-078
   132.029100000000         1.655166702858100E-079
   132.268500000000         6.791491106387385E-078
   132.507900000000         1.510853860429359E-077
   132.747300000000         2.436957056606185E-077
   132.986700000000         3.334543135535475E-077
   133.226100000000         4.034410597837252E-077
   133.465500000000         4.332057582807465E-077
   133.704900000000         4.009386568007725E-077
   133.944300000000         2.867484525588562E-077
   134.183700000000         7.689617409195200E-078
   134.423100000000        -2.313989722269866E-077
   134.662500000000        -6.252167833172341E-077
   134.901900000000        -1.072121524456692E-076
   135.141300000000        -1.518299389039128E-076
   135.380700000000        -1.889701537252369E-076
   135.620100000000        -2.097093799114295E-076
   135.859500000000        -2.045540020642141E-076
   136.098900000000        -1.648238811623971E-076
   136.338300000000        -8.438221117917498E-077
   136.577700000000         3.847123285094417E-077
   136.817100000000         1.992191075638901E-076
   137.056500000000         3.858074960160613E-076
   137.295900000000         5.781728868369488E-076
   137.535300000000         7.489727331723556E-076
   137.774700000000         8.657735181482124E-076
   138.014100000000         8.947620715734615E-076
   138.253500000000         8.057802974785143E-076
   138.492900000000         5.781660295192765E-076
   138.732300000000         2.065593008434968E-076