  -1.42500000000000         0.000000000000000E+000
  -1.23500000000000         3.015940546841250E-014
  -1.04500000000000         4.250310221238316E-013
 -0.855000000000000         2.939685005245292E-012
 -0.665000000000000         1.445336611641170E-011
 -0.475000000000000         5.796687717664665E-011
 -0.285000000000000         1.961832100679372E-010
 -9.499999999999975E-002    5.771658062751784E-010
  9.500000000000020E-002    1.495605725987900E-009
  0.285000000000000         3.444669747702683E-009
  0.475000000000000         7.145543375270759E-009
  0.665000000000000         1.345391602344619E-008
  0.855000000000000         2.332359508244783E-008
   1.04500000000000         3.748279958182428E-008
   1.23500000000000         5.635706552213398E-008
   1.42500000000000         7.983878479736941E-008
   1.61500000000000         1.071459004415909E-007
   1.80500000000000         1.368698187637677E-007
   1.99500000000000         1.670303731128060E-007
   2.18500000000000         1.953230928883673E-007
   2.37500000000000         2.192486223194748E-007
   2.56500000000000         2.363675250654856E-007
   2.75500000000000         2.442984735200127E-007
   2.94500000000000         2.426241830911911E-007
   3.13500000000000         2.282510342312882E-007
   3.32500000000000         2.009033648113218E-007
   3.51500000000000         1.604967199128730E-007
   3.70500000000000         1.081777400818542E-007
   3.89500000000000         4.621077945398530E-008
   4.08500000000000        -2.176409332214763E-008
   4.27500000000000        -9.078776931372803E-008
   4.46500000000000        -1.548239765389330E-007
   4.65500000000000        -2.073184317611409E-007
   4.84500000000000        -2.415170239645053E-007
   5.03500000000000        -2.516508144767162E-007
   5.22500000000000        -2.340485586730478E-007
   5.41500000000000        -1.864278753900610E-007
   5.60500000000000        -1.097550607024291E-007
   5.79500000000000        -7.532184673631494E-009
   5.98500000000000         1.133113542999702E-007
   6.17500000000000         2.439033761773032E-007
   6.36500000000000         3.754887397007911E-007
   6.55500000000000         4.984766469002378E-007
   6.74500000000000         6.042094354643293E-007
   6.93500000000000         6.864814779696708E-007
   7.12500000000000         7.395837348238381E-007
   7.31500000000000         7.608464294401109E-007
   7.50500000000000         7.499564333545316E-007
   7.69500000000000         7.080109982924993E-007
   7.88500000000000         6.390752251762977E-007
   8.07500000000000         5.483049260681703E-007
   8.26500000000000         4.444230472376120E-007
   8.45500000000000         3.251351510832680E-007
   8.64500000000000         2.050346463393824E-007
   8.83500000000000         8.376487163624237E-008
   9.02500000000000        -2.796294746575015E-008
   9.21500000000000        -1.223502704655487E-007
   9.40500000000000        -1.927591866466305E-007
   9.59500000000000        -2.333512970051791E-007
   9.78500000000000        -2.384451232352445E-007
   9.97500000000000        -2.091443662029789E-007
   10.1650000000000        -1.446581199965105E-007
   10.3550000000000        -4.868477744319910E-008
   10.5450000000000         7.113400264212520E-008
   10.7350000000000         2.053372914137227E-007
   10.9250000000000         3.424225899550588E-007
   11.1150000000000         4.677864826609750E-007
   11.3050000000000         5.721721379039157E-007
   11.4950000000000         6.472491469669025E-007
   11.6850000000000         6.889793761016466E-007
   11.8750000000000         6.969444295121838E-007
   12.0650000000000         6.720305305086445E-007
   12.2550000000000         6.227660646417232E-007
   12.4450000000000         5.572959647426261E-007
   12.6350000000000         4.850624524456342E-007
   12.8250000000000         4.156916646425369E-007
   13.0150000000000         3.620317703646359E-007
   13.2050000000000         3.209071297074293E-007
   13.3950000000000         3.097865967831883E-007
   13.5850000000000         3.183216787419825E-007
   13.7750000000000         3.596168216841244E-007
   13.9650000000000         4.288804369870335E-007
   14.1550000000000         5.273219037202175E-007
   14.3450000000000         6.558995297656677E-007
   14.5350000000000         8.117087665390425E-007
   14.7250000000000         9.901153314173667E-007
   14.9150000000000         1.182827130272643E-006
   15.1050000000000         1.379284458649721E-006
   15.2950000000000         1.562433198061315E-006
   15.4850000000000         1.716648855501203E-006
   15.6750000000000         1.828051413173273E-006
   15.8650000000000         1.882872939844410E-006
   16.0550000000000         1.871313126903921E-006
   16.2450000000000         1.790082784735670E-006
   16.4350000000000         1.638757414283512E-006
   16.6250000000000         1.426082022205805E-006
   16.8150000000000         1.166878884214994E-006
   17.0050000000000         8.795479262947133E-007
   17.1950000000000         5.848763305551968E-007
   17.3850000000000         3.028546141045653E-007
   17.5750000000000         5.197727301074934E-008
   17.7650000000000        -1.514680731044116E-007
   17.9550000000000        -3.010556197590945E-007
   18.1450000000000        -3.938399753516244E-007
   18.3350000000000        -4.264138117464463E-007
   18.5250000000000        -4.000355024682895E-007
   18.7150000000000        -3.295117086930199E-007
   18.9050000000000        -2.135878141596209E-007
   19.0950000000000        -6.105026215488611E-008
   19.2850000000000         1.204755313669002E-007
   19.4750000000000         3.212329521140360E-007
   19.6650000000000         5.296679669761838E-007
   19.8550000000000         7.321555131461775E-007
   20.0450000000000         9.137428403155220E-007
   20.2350000000000         1.054714528853947E-006
   20.4250000000000         1.140482058142587E-006
   20.6150000000000         1.158932926471357E-006
   20.8050000000000         1.102139173846999E-006
   20.9950000000000         9.686402252284993E-007
   21.1850000000000         7.630006258938588E-007
   21.3750000000000         4.964332115718030E-007
   21.5650000000000         1.880879966302298E-007
   21.7550000000000        -1.391760344339091E-007
   21.9450000000000        -4.593729794761409E-007
   22.1350000000000        -7.487569214520846E-007
   22.3250000000000        -9.863012350532408E-007
   22.5150000000000        -1.157757396419863E-006
   22.7050000000000        -1.255492921303289E-006
   22.8950000000000        -1.271646953550932E-006
   23.0850000000000        -1.224566970300804E-006
   23.2750000000000        -1.114334293087934E-006
   23.4650000000000        -9.542554425803095E-007
   23.6550000000000        -7.590826662115186E-007
   23.8450000000000        -5.493178210875302E-007
   24.0350000000000        -3.296053359726610E-007
   24.2250000000000        -1.133976322986401E-007
   24.4150000000000         8.527651726435309E-008
   24.6050000000000         2.544333804113291E-007
   24.7950000000000         3.891197571564600E-007
   24.9850000000000         4.750560369061276E-007
   25.1750000000000         5.004081262504213E-007
   25.3650000000000         4.607750969223431E-007
   25.5550000000000         3.533028193455516E-007
   25.7450000000000         1.820732818189813E-007
   25.9350000000000        -4.025960535959716E-008
   26.1250000000000        -2.946462897033381E-007
   26.3150000000000        -5.573098369052617E-007
   26.5050000000000        -7.968137403577794E-007
   26.6950000000000        -9.862759514582750E-007
   26.8850000000000        -1.102109597610516E-006
   27.0750000000000        -1.126862687511844E-006
   27.2650000000000        -1.048429870347163E-006
   27.4550000000000        -8.671775442392043E-007
   27.6450000000000        -5.919956442981005E-007
   27.8350000000000        -2.405240722670887E-007
   28.0250000000000         1.628637413005807E-007
   28.2150000000000         5.894365931616770E-007
   28.4050000000000         1.008755295637973E-006
   28.5950000000000         1.398785044924410E-006
   28.7850000000000         1.734459646471547E-006
   28.9750000000000         1.999790452475074E-006
   29.1650000000000         2.179012884289854E-006
   29.3550000000000         2.264621361656984E-006
   29.5450000000000         2.264963067674488E-006
   29.7350000000000         2.170256504199487E-006
   29.9250000000000         1.990217619481501E-006
   30.1150000000000         1.735273841971998E-006
   30.3050000000000         1.421181623675403E-006
   30.4950000000000         1.067870560287396E-006
   30.6850000000000         6.991525452014989E-007
   30.8750000000000         3.478615740639900E-007
   31.0650000000000         4.092884953715059E-008
   31.2550000000000        -1.999207248522375E-007
   31.4450000000000        -3.427427680925122E-007
   31.6350000000000        -3.736703982051039E-007
   31.8250000000000        -2.849258745565852E-007
   32.0150000000000        -8.246237544492780E-008
   32.2050000000000         2.153655256285501E-007
   32.3950000000000         5.825619947179373E-007
   32.5850000000000         9.821668471165882E-007
   32.7750000000000         1.377550579302495E-006
   32.9650000000000         1.732574908697428E-006
   33.1550000000000         2.016038440987069E-006
   33.3450000000000         2.203926584948630E-006
   33.5350000000000         2.284538054336174E-006
   33.7250000000000         2.252530427010064E-006
   33.9150000000000         2.118217310218618E-006
   34.1050000000000         1.896429989526538E-006
   34.2950000000000         1.615102400715351E-006
   34.4850000000000         1.299014706683995E-006
   34.6750000000000         9.711611818119766E-007
   34.8650000000000         6.567233350076778E-007
   35.0550000000000         3.774127139947001E-007
   35.2450000000000         1.518271761387134E-007
   35.4350000000000        -5.961200336577050E-009
   35.6250000000000        -8.288329417863260E-008
   35.8150000000000        -6.976697510103858E-008
   36.0050000000000         2.540714600584480E-008
   36.1950000000000         2.088028225090525E-007
   36.3850000000000         4.693624061960522E-007
   36.5750000000000         7.921922382733407E-007
   36.7650000000000         1.156523965541924E-006
   36.9550000000000         1.536668723223704E-006
   37.1450000000000         1.901931190626623E-006
   37.3350000000000         2.225022196436194E-006
   37.5250000000000         2.480359543106125E-006
   37.7150000000000         2.648021222639730E-006
   37.9050000000000         2.717631123058334E-006
   38.0950000000000         2.685884675955872E-006
   38.2850000000000         2.555868830732732E-006
   38.4750000000000         2.345264801124308E-006
   38.6650000000000         2.081215502671907E-006
   38.8550000000000         1.787491045629584E-006
   39.0450000000000         1.491483359505540E-006
   39.2350000000000         1.215104564857001E-006
   39.4250000000000         9.772212274054772E-007
   39.6150000000000         7.903715947558625E-007
   39.8050000000000         6.614756634176663E-007
   39.9950000000000         5.893099555991475E-007
   40.1850000000000         5.696499392593430E-007
   40.3750000000000         5.949701421934759E-007
   40.5650000000000         6.449377452448468E-007
   40.7550000000000         7.226359703874454E-007
   40.9450000000000         8.149684779302305E-007
   41.1350000000000         9.136986179649343E-007
   41.3250000000000         1.010333266739956E-006
   41.5150000000000         1.099143703841083E-006
   41.7050000000000         1.162043928421702E-006
   41.8950000000000         1.191656836932944E-006
   42.0850000000000         1.187812596648487E-006
   42.2750000000000         1.135536687935598E-006
   42.4650000000000         1.032478738222513E-006
   42.6550000000000         8.790637219250391E-007
   42.8450000000000         6.812178835873467E-007
   43.0350000000000         4.494604840648538E-007
   43.2250000000000         1.984683945954735E-007
   43.4150000000000        -5.377073324161199E-008
   43.6050000000000        -2.897410272620152E-007
   43.7950000000000        -4.949107245869277E-007
   43.9850000000000        -6.571295372428107E-007
   44.1750000000000        -7.701851005628288E-007
   44.3650000000000        -8.325977450527811E-007
   44.5550000000000        -8.479200460162895E-007
   44.7450000000000        -8.269823562296307E-007
   44.9350000000000        -7.669774829378278E-007
   45.1250000000000        -6.782433320835299E-007
   45.3150000000000        -5.804898063522535E-007
   45.5050000000000        -4.632212526808286E-007
   45.6950000000000        -3.311780746368546E-007
   45.8850000000000        -1.838958859803143E-007
   46.0750000000000        -2.071421888272978E-008
   46.2650000000000         1.577497754553203E-007
   46.4550000000000         3.483957595201267E-007
   46.6450000000000         5.441108157521558E-007
   46.8350000000000         7.346893604517841E-007
   47.0250000000000         9.130846048059135E-007
   47.2150000000000         1.073128960079510E-006
   47.4050000000000         1.200274138093783E-006
   47.5950000000000         1.291143216174541E-006
   47.7850000000000         1.347331705563510E-006
   47.9750000000000         1.371411942879118E-006
   48.1650000000000         1.372827340679070E-006
   48.3550000000000         1.359536569538826E-006
   48.5450000000000         1.340547289931050E-006
   48.7350000000000         1.325632406543627E-006
   48.9250000000000         1.320672213991038E-006
   49.1150000000000         1.334196879382751E-006
   49.3050000000000         1.354524834523640E-006
   49.4950000000000         1.392994850370145E-006
   49.6850000000000         1.430434006136988E-006
   49.8750000000000         1.472269307193809E-006
   50.0650000000000         1.513712674757811E-006
   50.2550000000000         1.544027681661885E-006
   50.4450000000000         1.577539908312226E-006
   50.6350000000000         1.613309256630757E-006
   50.8250000000000         1.656131469690256E-006
   51.0150000000000         1.711390154222372E-006
   51.2050000000000         1.773114914067305E-006
   51.3950000000000         1.842790333852604E-006
   51.5850000000000         1.922286609204460E-006
   51.7750000000000         1.999444688469536E-006
   51.9650000000000         2.066592508131767E-006
   52.1550000000000         2.116336981535306E-006
   52.3450000000000         2.143761546248790E-006
   52.5350000000000         2.142545523992831E-006
   52.7250000000000         2.123863063949591E-006
   52.9150000000000         2.087902962614078E-006
   53.1050000000000         2.039804492077881E-006
   53.2950000000000         1.986518013723885E-006
   53.4850000000000         1.937959794275364E-006
   53.6750000000000         1.900062569566127E-006
   53.8650000000000         1.871314719243302E-006
   54.0550000000000         1.852763733979333E-006
   54.2450000000000         1.843905048328060E-006
   54.4350000000000         1.841815831096125E-006
   54.6250000000000         1.841785331513998E-006
   54.8150000000000         1.841945707639565E-006
   55.0050000000000         1.842423498308938E-006
   55.1950000000000         1.844906314900707E-006
   55.3850000000000         1.852063684763643E-006
   55.5750000000000         1.868524107111164E-006
   55.7650000000000         1.896735714495718E-006
   55.9550000000000         1.942660614139591E-006
   56.1450000000000         2.003872180488599E-006
   56.3350000000000         2.069359449785113E-006
   56.5250000000000         2.130222966080450E-006
   56.7150000000000         2.174571737834286E-006
   56.9050000000000         2.190342182824198E-006
   57.0950000000000         2.167076493631493E-006
   57.2850000000000         2.098011895620939E-006
   57.4750000000000         1.988914369797640E-006
   57.6650000000000         1.839907925199204E-006
   57.8550000000000         1.655131765872749E-006
   58.0450000000000         1.455882142133692E-006
   58.2350000000000         1.255078802029447E-006
   58.4250000000000         1.066761673059302E-006
   58.6150000000000         9.037495882303589E-007
   58.8050000000000         7.706516277049154E-007
   58.9950000000000         6.762353236827511E-007
   59.1850000000000         6.304032823430699E-007
   59.3750000000000         6.208107233014938E-007
   59.5650000000000         6.573981804197084E-007
   59.7550000000000         7.347895845242907E-007
   59.9450000000000         8.511509389106924E-007
   60.1350000000000         9.968737657055949E-007
   60.3250000000000         1.176704334884458E-006
   60.5150000000000         1.383464559087898E-006
   60.7050000000000         1.610045391968251E-006
   60.8950000000000         1.845772410600546E-006
   61.0850000000000         2.074307331730661E-006
   61.2750000000000         2.279621094025012E-006
   61.4650000000000         2.444902369031931E-006
   61.6550000000000         2.554772289782988E-006
   61.8450000000000         2.597449685546826E-006
   62.0350000000000         2.567572302032458E-006
   62.2250000000000         2.464060555828043E-006
   62.4150000000000         2.289493558825077E-006
   62.6050000000000         2.066599753179372E-006
   62.7950000000000         1.813875469050204E-006
   62.9850000000000         1.555236343777091E-006
   63.1750000000000         1.311962642019582E-006
   63.3650000000000         1.106097725402060E-006
   63.5550000000000         9.553725085207160E-007
   63.7450000000000         8.746809916636930E-007
   63.9350000000000         8.623762431833593E-007
   64.1250000000000         9.156779702491650E-007
   64.3150000000000         1.025713533095773E-006
   64.5050000000000         1.182028556969779E-006
   64.6950000000000         1.374755961868065E-006
   64.8850000000000         1.588518819088428E-006
   65.0750000000000         1.801508062505706E-006
   65.2650000000000         2.003579587072950E-006
   65.4550000000000         2.181493973449277E-006
   65.6450000000000         2.322826946299223E-006
   65.8350000000000         2.416599417261066E-006
   66.0250000000000         2.453145719602342E-006
   66.2150000000000         2.425499662378750E-006
   66.4050000000000         2.331005382915877E-006
   66.5950000000000         2.172954819095191E-006
   66.7850000000000         1.960283236413507E-006
   66.9750000000000         1.708677424710530E-006
   67.1650000000000         1.437810087112351E-006
   67.3550000000000         1.170993501679306E-006
   67.5450000000000         9.333404159148963E-007
   67.7350000000000         7.512746420244979E-007
   67.9250000000000         6.484564871338507E-007
   68.1150000000000         6.376235588049850E-007
   68.3050000000000         7.282993798905269E-007
   68.4950000000000         9.147825385119546E-007
   68.6850000000000         1.188750542998119E-006
   68.8750000000000         1.531479830859364E-006
   69.0650000000000         1.918816755854792E-006
   69.2550000000000         2.321453108134511E-006
   69.4450000000000         2.711301985294272E-006
   69.6350000000000         3.064279209481423E-006
   69.8250000000000         3.358458991857405E-006
   70.0150000000000         3.576697189166200E-006
   70.2050000000000         3.708722883974822E-006
   70.3950000000000         3.749106394949652E-006
   70.5850000000000         3.695603210989223E-006
   70.7750000000000         3.558915097357540E-006
   70.9650000000000         3.348095237852742E-006
   71.1550000000000         3.076269029272706E-006
   71.3450000000000         2.761393987066744E-006
   71.5350000000000         2.424447645448287E-006
   71.7250000000000         2.089144630380122E-006
   71.9150000000000         1.780115107580085E-006
   72.1050000000000         1.521533587920818E-006
   72.2950000000000         1.335360918444461E-006
   72.4850000000000         1.238367446017409E-006
   72.6750000000000         1.242623796364234E-006
   72.8650000000000         1.351177831838133E-006
   73.0550000000000         1.555706108110536E-006
   73.2450000000000         1.839797117647813E-006
   73.4350000000000         2.180782076821579E-006
   73.6250000000000         2.549668329315425E-006
   73.8150000000000         2.914832670762256E-006
   74.0050000000000         3.245743398826692E-006
   74.1950000000000         3.515306649685244E-006
   74.3850000000000         3.702825784291862E-006
   74.5750000000000         3.790134621226669E-006
   74.7650000000000         3.785641790358555E-006
   74.9550000000000         3.684204504098415E-006
   75.1450000000000         3.509532085874201E-006
   75.3350000000000         3.274413403870831E-006
   75.5250000000000         3.004015550955103E-006
   75.7150000000000         2.726772449426767E-006
   75.9050000000000         2.468108893939694E-006
   76.0950000000000         2.248412748554607E-006
   76.2850000000000         2.086351436114017E-006
   76.4750000000000         1.996306587900329E-006
   76.6650000000000         1.983768919590996E-006
   76.8550000000000         2.053737797878574E-006
   77.0450000000000         2.207749445727646E-006
   77.2350000000000         2.433766248907753E-006
   77.4250000000000         2.714119209773013E-006
   77.6150000000000         3.026313628713794E-006
   77.8050000000000         3.350970908350121E-006
   77.9950000000000         3.660806724859788E-006
   78.1850000000000         3.929266528010723E-006
   78.3750000000000         4.130709596059951E-006
   78.5650000000000         4.248495464567943E-006
   78.7550000000000         4.259351364436199E-006
   78.9450000000000         4.169569255020974E-006
   79.1350000000000         3.973488930860723E-006
   79.3250000000000         3.686694851030526E-006
   79.5150000000000         3.328649995439256E-006
   79.7050000000000         2.926103916405641E-006
   79.8950000000000         2.509468223162711E-006
   80.0850000000000         2.110118467097646E-006
   80.2750000000000         1.760168072997812E-006
   80.4650000000000         1.482978498946083E-006
   80.6550000000000         1.296803470792635E-006
   80.8450000000000         1.213145997326842E-006
   81.0350000000000         1.231633170173776E-006
   81.2250000000000         1.349937499936580E-006
   81.4150000000000         1.558375161053386E-006
   81.6050000000000         1.841064509922822E-006
   81.7950000000000         2.176606080818424E-006
   81.9850000000000         2.540368747890345E-006
   82.1750000000000         2.905221316192382E-006
   82.3650000000000         3.252569320508474E-006
   82.5550000000000         3.560447591288133E-006
   82.7450000000000         3.810517420195426E-006
   82.9350000000000         3.988780236802975E-006
   83.1250000000000         4.084898114412908E-006
   83.3150000000000         4.094651432327287E-006
   83.5050000000000         4.020719275585828E-006
   83.6950000000000         3.870090441450721E-006
   83.8850000000000         3.654338778950350E-006
   84.0750000000000         3.392225187162176E-006
   84.2650000000000         3.101687883646038E-006
   84.4550000000000         2.804914968772297E-006
   84.6450000000000         2.521747404120529E-006
   84.8350000000000         2.270647373346977E-006
   85.0250000000000         2.065069428717295E-006
   85.2150000000000         1.914210919743720E-006
   85.4050000000000         1.822466247317317E-006
   85.5950000000000         1.787897284326479E-006
   85.7850000000000         1.806458606824559E-006
   85.9750000000000         1.868870008464183E-006
   86.1650000000000         1.963967984668889E-006
   86.3550000000000         2.080855437817968E-006
   86.5450000000000         2.208425291467745E-006
   86.7350000000000         2.336656091661992E-006
   86.9250000000000         2.458641405723244E-006
   87.1150000000000         2.569119158233888E-006
   87.3050000000000         2.664298044394095E-006
   87.4950000000000         2.743660438142970E-006
   87.6850000000000         2.808896257153777E-006
   87.8750000000000         2.861167046067618E-006
   88.0650000000000         2.905638599707359E-006
   88.2550000000000         2.938249132998757E-006
   88.4450000000000         2.966738981277005E-006
   88.6350000000000         2.992642062665595E-006
   88.8250000000000         3.026073316644968E-006
   89.0150000000000         3.068072056405383E-006
   89.2050000000000         3.127726323812285E-006
   89.3950000000000         3.210286402424715E-006
   89.5850000000000         3.318743681721486E-006
   89.7750000000000         3.455298893020130E-006
   89.9650000000000         3.620460463273192E-006
   90.1550000000000         3.811966234293396E-006
   90.3450000000000         4.024899549171344E-006
   90.5350000000000         4.255648991253298E-006
   90.7250000000000         4.488228134601039E-006
   90.9150000000000         4.712009801469173E-006
   91.1050000000000         4.913332765155116E-006
   91.2950000000000         5.078810003644105E-006
   91.4850000000000         5.196349365900070E-006
   91.6750000000000         5.257947472038152E-006
   91.8650000000000         5.256815247208548E-006
   92.0550000000000         5.188776642818620E-006
   92.2450000000000         5.057789119348550E-006
   92.4350000000000         4.866473670878995E-006
   92.6250000000000         4.622472476725693E-006
   92.8150000000000         4.336113387782823E-006
   93.0050000000000         4.021539860522153E-006
   93.1950000000000         3.693595825139298E-006
   93.3850000000000         3.368332404809178E-006
   93.5750000000000         3.061899876807296E-006
   93.7650000000000         2.789765492311507E-006
   93.9550000000000         2.565970862817247E-006
   94.1450000000000         2.402411879480470E-006
   94.3350000000000         2.307401811228351E-006
   94.5250000000000         2.286057781904479E-006
   94.7150000000000         2.337617703656976E-006
   94.9050000000000         2.469385371496865E-006
   95.0950000000000         2.660644543032659E-006
   95.2850000000000         2.908344040236288E-006
   95.4750000000000         3.194631363059928E-006
   95.6650000000000         3.502003377901537E-006
   95.8550000000000         3.812704717369501E-006
   96.0450000000000         4.109031810024947E-006
   96.2350000000000         4.374953908506607E-006
   96.4250000000000         4.597632524676142E-006
   96.6150000000000         4.768078620899282E-006
   96.8050000000000         4.882825341911464E-006
   96.9950000000000         4.941927307166621E-006
   97.1850000000000         4.950064334142182E-006
   97.3750000000000         4.922600917104475E-006
   97.5650000000000         4.859735591457799E-006
   97.7550000000000         4.777692380225177E-006
   97.9450000000000         4.687461959035055E-006
   98.1350000000000         4.598929569611699E-006
   98.3250000000000         4.520230039930664E-006
   98.5150000000000         4.457332386580379E-006
   98.7050000000000         4.413728419221528E-006
   98.8950000000000         4.386302154020417E-006
   99.0850000000000         4.389802396090020E-006
   99.2750000000000         4.405562456523364E-006
   99.4650000000000         4.441213784934566E-006
   99.6550000000000         4.489801961918176E-006
   99.8450000000000         4.540224263103953E-006
   100.035000000000         4.597620923111474E-006
   100.225000000000         4.644424441311271E-006
   100.415000000000         4.684106311616964E-006
   100.605000000000         4.704385400136857E-006
   100.795000000000         4.699583918074067E-006
   100.985000000000         4.663382959121624E-006
   101.175000000000         4.597404742994876E-006
   101.365000000000         4.499363958965223E-006
   101.555000000000         4.374731529975190E-006
   101.745000000000         4.230452642847445E-006
   101.935000000000         4.075708706574250E-006
   102.125000000000         3.921809277834534E-006
   102.315000000000         3.780080324555306E-006
   102.505000000000         3.660971218788866E-006
   102.695000000000         3.571972121105543E-006
   102.885000000000         3.518420297018494E-006
   103.075000000000         3.503838762392379E-006
   103.265000000000         3.529061472259957E-006
   103.455000000000         3.587986186846006E-006
   103.645000000000         3.676916104153532E-006
   103.835000000000         3.789369604008212E-006
   104.025000000000         3.912983439298174E-006
   104.215000000000         4.045920516646788E-006
   104.405000000000         4.183930534318865E-006
   104.595000000000         4.323102368815042E-006
   104.785000000000         4.460328841824123E-006
   104.975000000000         4.592491582450785E-006
   105.165000000000         4.716879464759653E-006
   105.355000000000         4.825151948664868E-006
   105.545000000000         4.912795569603721E-006
   105.735000000000         4.977010252322971E-006
   105.925000000000         5.022426947175329E-006
   106.115000000000         5.032982786681379E-006
   106.305000000000         5.013128136906349E-006
   106.495000000000         4.965719345128312E-006
   106.685000000000         4.896526632092733E-006
   106.875000000000         4.813570355635836E-006
   107.065000000000         4.726261358467875E-006
   107.255000000000         4.644384832416964E-006
   107.445000000000         4.576425179391249E-006
   107.635000000000         4.528603536509374E-006
   107.825000000000         4.504571740763741E-006
   108.015000000000         4.504095221551318E-006
   108.205000000000         4.521652954433155E-006
   108.395000000000         4.560166560439824E-006
   108.585000000000         4.610906526008574E-006
   108.775000000000         4.671120208911414E-006
   108.965000000000         4.725340860842309E-006
   109.155000000000         4.779834868941537E-006
   109.345000000000         4.831057251417688E-006
   109.535000000000         4.878870801718023E-006
   109.725000000000         4.923704578496535E-006
   109.915000000000         4.965743649957965E-006
   110.105000000000         5.004779696982280E-006