  -1.79550000000000         0.000000000000000E+000
  -1.55610000000000         0.000000000000000E+000
  -1.31670000000000         0.000000000000000E+000
  -1.07730000000000         0.000000000000000E+000
 -0.837900000000000         0.000000000000000E+000
 -0.598500000000000         0.000000000000000E+000
 -0.359100000000000         0.000000000000000E+000
 -0.119700000000000         0.000000000000000E+000
  0.119700000000000         0.000000000000000E+000
  0.359100000000000         0.000000000000000E+000
  0.598500000000000         0.000000000000000E+000
  0.837900000000000         0.000000000000000E+000
   1.07730000000000         0.000000000000000E+000
   1.31670000000000         0.000000000000000E+000
   1.55610000000000         0.000000000000000E+000
   1.79550000000000         0.000000000000000E+000
   2.03490000000000         0.000000000000000E+000
   2.27430000000000         0.000000000000000E+000
   2.51370000000000         0.000000000000000E+000
   2.75310000000000         0.000000000000000E+000
   2.99250000000000         0.000000000000000E+000
   3.23190000000000         0.000000000000000E+000
   3.47130000000000         0.000000000000000E+000
   3.71070000000000         0.000000000000000E+000
   3.95010000000000         0.000000000000000E+000
   4.18950000000000         0.000000000000000E+000
   4.42890000000000         0.000000000000000E+000
   4.66830000000000         0.000000000000000E+000
   4.90770000000000         0.000000000000000E+000
   5.14710000000000         0.000000000000000E+000
   5.38650000000000         0.000000000000000E+000
   5.62590000000000         0.000000000000000E+000
   5.86530000000000         0.000000000000000E+000
   6.10470000000000         0.000000000000000E+000
   6.34410000000000         0.000000000000000E+000
   6.58350000000000         0.000000000000000E+000
   6.82290000000000         0.000000000000000E+000
   7.06230000000000         0.000000000000000E+000
   7.30170000000000         0.000000000000000E+000
   7.54110000000000         0.000000000000000E+000
   7.78050000000000         0.000000000000000E+000
   8.01990000000000         0.000000000000000E+000
   8.25930000000000         0.000000000000000E+000
   8.49870000000000         0.000000000000000E+000
   8.73810000000000         0.000000000000000E+000
   8.97750000000000         0.000000000000000E+000
   9.21690000000000         0.000000000000000E+000
   9.45630000000000         0.000000000000000E+000
   9.69570000000000         0.000000000000000E+000
   9.93510000000000         0.000000000000000E+000
   10.1745000000000         0.000000000000000E+000
   10.4139000000000         0.000000000000000E+000
   10.6533000000000         2.814087270948404E-221
   10.8927000000000        -4.597512208671895E-215
   11.1321000000000         5.191698509352953E-211
   11.3715000000000        -1.411272768558227E-208
   11.6109000000000        -1.734164288608624E-206
   11.8503000000000        -5.300770698483330E-205
   12.0897000000000         4.459653207542433E-204
   12.3291000000000         8.316984213915442E-202
   12.5685000000000         3.203833757193526E-200
   12.8079000000000         7.611448669055840E-199
   13.0473000000000         1.293342062532675E-197
   13.2867000000000         1.621809027763190E-196
   13.5261000000000         1.409846570894329E-195
   13.7655000000000         5.120908577757903E-195
   14.0049000000000        -8.860554151434635E-194
   14.2443000000000        -2.342458724214716E-192
   14.4837000000000        -3.391420222383230E-191
   14.7231000000000        -3.767413356459717E-190
   14.9625000000000        -3.485080217349656E-189
   15.2019000000000        -2.764403059931246E-188
   15.4413000000000        -1.886184209131485E-187
   15.6807000000000        -1.073482398782351E-186
   15.9201000000000        -4.438967540464517E-186
   16.1595000000000        -2.241828761833810E-186
   16.3989000000000         2.198870935437477E-184
   16.6383000000000         3.303857711166741E-183
   16.8777000000000         3.542571571114312E-182
   17.1171000000000         3.271076205616290E-181
   17.3565000000000         2.746035204526768E-180
   17.5959000000000         2.142074777925346E-179
   17.8353000000000         1.568921155990722E-178
   18.0747000000000         1.085296199753504E-177
   18.3141000000000         7.118605357783223E-177
   18.5535000000000         4.441454804891086E-176
   18.7929000000000         2.643637197281199E-175
   19.0323000000000         1.505428417238718E-174
   19.2717000000000         8.225282105818566E-174
   19.5111000000000         4.324719161984182E-173
   19.7505000000000         2.194826492689004E-172
   19.9899000000000         1.078491754195408E-171
   20.2293000000000         5.146764893082181E-171
   20.4687000000000         2.392284736563392E-170
   20.7081000000000         1.085861522024432E-169
   20.9475000000000         4.823051444165041E-169
   21.1869000000000         2.099249194240153E-168
   21.4263000000000         8.959090559254812E-168
   21.6657000000000         3.748208446798803E-167
   21.9051000000000         1.535701057438565E-166
   22.1445000000000         6.151586145804118E-166
   22.3839000000000         2.403858572756279E-165
   22.6233000000000         9.139689816295161E-165
   22.8627000000000         3.370883861463220E-164
   23.1021000000000         1.201793097895294E-163
   23.3415000000000         4.124404485112545E-163
   23.5809000000000         1.355119865078176E-162
   23.8203000000000         4.230092894414152E-162
   24.0597000000000         1.239565206612812E-161
   24.2991000000000         3.337984929336113E-161
   24.5385000000000         7.895348954216268E-161
   24.7779000000000         1.439416197510312E-160
   25.0173000000000         7.522953949775677E-161
   25.2567000000000        -1.014984262215731E-159
   25.4961000000000        -7.010084456344422E-159
   25.7355000000000        -3.268844108575732E-158
   25.9749000000000        -1.293152976097393E-157
   26.2143000000000        -4.623455874975505E-157
   26.4537000000000        -1.533584184795725E-156
   26.6931000000000        -4.779855373402253E-156
   26.9325000000000        -1.408977269406638E-155
   27.1719000000000        -3.939289366352786E-155
   27.4113000000000        -1.044876269786969E-154
   27.6507000000000        -2.623587348649030E-154
   27.8901000000000        -6.204044216912299E-154
   28.1295000000000        -1.368351371651680E-153
   28.3689000000000        -2.764174029660823E-153
   28.6083000000000        -4.923806884540208E-153
   28.8477000000000        -6.992681542378842E-153
   29.0871000000000        -4.723179166748747E-153
   29.3265000000000         1.543925778341723E-152
   29.5659000000000         8.862148671221267E-152
   29.8053000000000         2.922836615753184E-151
   30.0447000000000         7.700902542926648E-151
   30.2841000000000         1.728056601483659E-150
   30.5235000000000         3.313644823447331E-150
   30.7629000000000         5.204703740084919E-150
   31.0023000000000         5.771809972550066E-150
   31.2417000000000         1.487639493218820E-150
   31.4811000000000        -8.996834646217678E-150
   31.7205000000000         1.046459474687652E-150
   31.9599000000000         1.879160198801431E-148
   32.1993000000000         1.161214915144175E-147
   32.4387000000000         4.886530010247872E-147
   32.6781000000000         1.694270913273296E-146
   32.9175000000000         5.161293386040005E-146
   33.1569000000000         1.421305359562886E-145
   33.3963000000000         3.583908118596431E-145
   33.6357000000000         8.302005218887859E-145
   33.8751000000000         1.756588802268549E-144
   34.1145000000000         3.330007435564642E-144
   34.3539000000000         5.376982574925203E-144
   34.5933000000000         6.244846519492497E-144
   34.8327000000000        -3.674723545225573E-146
   35.0721000000000        -3.003850536892001E-143
   35.3115000000000        -1.230566034428200E-142
   35.5509000000000        -3.607615661200846E-142
   35.7903000000000        -8.901256610407586E-142
   36.0297000000000        -1.925204245775553E-141
   36.2691000000000        -3.650434678834779E-141
   36.5085000000000        -5.830168929844219E-141
   36.7479000000000        -6.701176428525542E-141
   36.9873000000000        -3.519759634485021E-142
   37.2267000000000         2.866776746964588E-140
   37.4661000000000         1.149489261996676E-139
   37.7055000000000         3.262422409120439E-139
   37.9449000000000         7.766330262302938E-139
   38.1843000000000         1.617985256984296E-138
   38.4237000000000         2.952208783441209E-138
   38.6631000000000         4.532923882345317E-138
   38.9025000000000         4.995253403903438E-138
   39.1419000000000         1.631888475375495E-139
   39.3813000000000        -2.020672928676783E-137
   39.6207000000000        -7.785426216693566E-137
   39.8601000000000        -2.133772524684913E-136
   40.0995000000000        -4.923287352019230E-136
   40.3389000000000        -9.993498305797652E-136
   40.5783000000000        -1.793667915592457E-135
   40.8177000000000        -2.769788456936180E-135
   41.0571000000000        -3.320471339447874E-135
   41.2965000000000        -1.640191654854846E-135
   41.5359000000000         6.532810100920424E-135
   41.7753000000000         2.986909750988895E-134
   42.0147000000000         8.384670366129644E-134
   42.2541000000000         1.922582509251158E-133
   42.4935000000000         3.840369572252186E-133
   42.7329000000000         6.768949093830539E-133
   42.9723000000000         1.031421540980053E-132
   43.2117000000000         1.248410209752004E-132
   43.4511000000000         7.714600357478916E-133
   43.6905000000000        -1.643196505748531E-132
   43.9299000000000        -8.392480144530251E-132
   44.1693000000000        -2.351166673838462E-131
   44.4087000000000        -5.277798027986095E-131
   44.6481000000000        -1.024645391929305E-130
   44.8875000000000        -1.748036138181694E-130
   45.1269000000000        -2.567997489127116E-130
   45.3663000000000        -2.974298409409685E-130
   45.6057000000000        -1.674549688333506E-130
   45.8451000000000         4.015741706473685E-130
   46.0845000000000         1.892286547914833E-129
   46.3239000000000         5.057440292960725E-129
   46.5633000000000         1.087026190413079E-128
   46.8027000000000         2.018874508155023E-128
   47.0421000000000         3.281294988824076E-128
   47.2815000000000         4.544482397348348E-128
   47.5209000000000         4.793717659348592E-128
   47.7603000000000         1.733025765728167E-128
   47.9997000000000        -9.010518742868711E-128
   48.2391000000000        -3.466386924975400E-127
   48.4785000000000        -8.543796134495589E-127
   48.7179000000000        -1.726555704121050E-126
   48.9573000000000        -3.024215662347504E-126
   49.1967000000000        -4.610135735775430E-126
   49.4361000000000        -5.870397072426000E-126
   49.6755000000000        -5.257624995399116E-126
   49.9149000000000         3.472151443690148E-127
   50.1543000000000         1.633448797506118E-125
   50.3937000000000         5.074650167204773E-125
   50.6331000000000         1.134976258291881E-124
   50.8725000000000         2.128962264209212E-124
   51.1119000000000         3.470643983329604E-124
   51.3513000000000         4.871080610037923E-124
   51.5907000000000         5.489802375739713E-124
   51.8301000000000         3.532622981379131E-124
   52.0695000000000        -4.212513114781683E-124
   52.3089000000000        -2.270289019702898E-123
   52.5483000000000        -5.838922853825161E-123
   52.7877000000000        -1.175821157618226E-122
   53.0271000000000        -2.021982856533258E-122
   53.2665000000000        -3.012932535024394E-122
   53.5059000000000        -3.768675790939817E-122
   53.7453000000000        -3.435955106917914E-122
   53.9847000000000        -4.535034669314291E-123
   54.2241000000000         7.620766119852745E-122
   54.4635000000000         2.401750791559811E-121
   54.7029000000000         5.204180723711957E-121
   54.9423000000000         9.320827337909853E-121
   55.1817000000000         1.435838249615402E-120
   55.4211000000000         1.878035146542316E-120
   55.6605000000000         1.908197405616488E-120
   55.8999000000000         8.890361064128052E-121
   56.1393000000000        -2.158499206524388E-120
   56.3787000000000        -8.490084926611823E-120
   56.6181000000000        -1.931324268824400E-119
   56.8575000000000        -3.501231399804651E-119
   57.0969000000000        -5.372158453969489E-119
   57.3363000000000        -6.914070802516781E-119
   57.5757000000000        -6.778997246663115E-119
   57.8151000000000        -2.653773818929091E-119
   58.0545000000000         8.769721824696701E-119
   58.2939000000000         3.126690126935612E-118
   58.5333000000000         6.749188403484117E-118
   58.7727000000000         1.157277337568650E-117
   59.0121000000000         1.645056276595857E-117
   59.2515000000000         1.852417463426043E-117
   59.4909000000000         1.244997111202648E-117
   59.7303000000000        -9.985072307337946E-118
   59.9697000000000        -5.902712358733125E-117
   60.2091000000000        -1.435685594815347E-116
   60.4485000000000        -2.634464633867480E-116
   60.6879000000000        -3.956586216383306E-116
   60.9273000000000        -4.738002791879978E-116
   61.1667000000000        -3.631315120888096E-116
   61.4061000000000         1.600037284788776E-116
   61.6455000000000         1.405171642149278E-115
   61.8849000000000         3.707305174881912E-115
   62.1243000000000         7.258206408727954E-115
   62.3637000000000         1.176848204832726E-114
   62.6031000000000         1.590652638410343E-114
   62.8425000000000         1.651228221009914E-114
   63.0819000000000         7.710364532260632E-115
   63.3213000000000        -1.971305564370275E-114
   63.5607000000000        -7.792522775079194E-114
   63.8001000000000        -1.794007450564935E-113
   64.0395000000000        -3.302223745888921E-113
   64.2789000000000        -5.172175716610880E-113
   64.5183000000000        -6.871985834650038E-113
   64.7577000000000        -7.184145282189447E-113
   64.9971000000000        -3.886578515002870E-113
   65.2365000000000         6.475793479750615E-113
   65.4759000000000         2.848169183262670E-112
   65.7153000000000         6.697659690011357E-112
   65.9547000000000         1.248880883418838E-111
   66.1941000000000         1.990304634262175E-111
   66.4335000000000         2.733222929706168E-111
   66.6729000000000         3.093778621051263E-111
   66.9123000000000         2.356963230460859E-111
   67.1517000000000        -6.102114209411687E-112
   67.3911000000000        -7.353298524786107E-111
   67.6305000000000        -1.961472950212973E-110
   67.8699000000000        -3.873951776361078E-110
   68.1093000000000        -6.450040768073104E-110
   68.3487000000000        -9.316050067328407E-110
   68.5881000000000        -1.147223293109817E-109
   68.8275000000000        -1.096304620239263E-109
   69.0669000000000        -4.578270575404995E-110
   69.3063000000000         1.223781040492277E-109
   69.5457000000000         4.496937309543143E-109
   69.7851000000000         9.866923740934289E-109
   70.0245000000000         1.751196639473621E-108
   70.2639000000000         2.679943615180297E-108
   70.5033000000000         3.557716534477511E-108
   70.7427000000000         3.928481374263285E-108
   70.9821000000000         3.006277483370697E-108
   71.2215000000000        -3.753715239749998E-109
   71.4609000000000        -7.708122006136490E-108
   71.7003000000000        -2.054746870593825E-107
   71.9397000000000        -3.991798606969902E-107
   72.1791000000000        -6.525346796105244E-107
   72.4185000000000        -9.278691671888826E-107
   72.6579000000000        -1.134404253598829E-106
   72.8973000000000        -1.105308111879337E-106
   73.1367000000000        -5.803799468726944E-107
   73.3761000000000         7.921614913896688E-107
   73.6155000000000         3.414211264093300E-106
   73.8549000000000         7.629585779304462E-106
   74.0943000000000         1.351950807994145E-105
   74.3337000000000         2.057881384216069E-105
   74.5731000000000         2.727293495864971E-105
   74.8125000000000         3.052337541419560E-105
   75.0519000000000         2.524889844562629E-105
   75.2913000000000         4.203169148243631E-106
   75.5307000000000        -4.151178654311414E-105
   75.7701000000000        -1.207412425348981E-104
   76.0095000000000        -2.387904718692701E-104
   76.2489000000000        -3.916343769310458E-104
   76.4883000000000        -5.576500335229342E-104
   76.7277000000000        -6.874655083728312E-104
   76.9671000000000        -6.938421968872718E-104
   77.2065000000000        -4.454483332488586E-104
   77.4459000000000         2.291744345495370E-104
   77.6853000000000         1.518615284079229E-103
   77.9247000000000         3.575965474399824E-103
   78.1641000000000         6.426365320588573E-103
   78.4035000000000         9.829117529774625E-103
   78.6429000000000         1.309989758618019E-102
   78.8823000000000         1.491858580786254E-102
   79.1217000000000         1.317836814597552E-102
   79.3611000000000         4.970819371966818E-103
   79.6005000000000        -1.315585468653804E-102
   79.8399000000000        -4.449440893359473E-102
   80.0793000000000        -9.085605890487985E-102
   80.3187000000000        -1.505049409432094E-101
   80.5581000000000        -2.153729284345173E-101
   80.7975000000000        -2.678532823155797E-101
   81.0369000000000        -2.778981369615292E-101
   81.2763000000000        -2.017132293719333E-101
   81.5157000000000         1.601429324109554E-102
   81.7551000000000         4.338580757940564E-101
   81.9945000000000         1.096655990284734E-100
   82.2339000000000         2.007592033163074E-100
   82.4733000000000         3.088921225699958E-100
   82.7127000000000         4.134367144806262E-100
   82.9521000000000         4.761755815925542E-100
   83.1915000000000         4.382011285396083E-100
   83.4309000000000         2.209462930170118E-100
   83.6703000000000        -2.653356297805136E-100
   83.9097000000000        -1.101888424145442E-099
   84.1491000000000        -2.327247214001598E-099
   84.3885000000000        -3.887098298418241E-099
   84.6279000000000        -5.570815506742470E-099
   84.8673000000000        -6.943899873927400E-099
   85.1067000000000        -7.294791424013897E-099
   85.3461000000000        -5.625585409619784E-099
   85.5855000000000        -7.269910483310640E-100
   85.8249000000000         8.615318470306583E-099
   86.0643000000000         2.323855058524464E-098
   86.3037000000000         4.301975209308763E-098
   86.5431000000000         6.611023385555793E-098
   86.7825000000000         8.807922076753683E-098
   87.0219000000000         1.011628910472340E-097
   87.2613000000000         9.394225650101726E-098
   87.5007000000000         5.190146231403406E-098
   87.7401000000000        -4.059307848832311E-098
   87.9795000000000        -1.963626360162995E-097
   88.2189000000000        -4.191909039420172E-097
   88.4583000000000        -6.954018391020320E-097
   88.6977000000000        -9.841028975731323E-097
   88.9371000000000        -1.208055208027673E-096
   89.1765000000000        -1.248485511993907E-096
   89.4159000000000        -9.485367710812237E-097
   89.6553000000000        -1.310544319685364E-097
   89.8947000000000         1.363587600598662E-096
   90.1341000000000         3.615677199999432E-096
   90.3735000000000         6.540772234965462E-096
   90.6129000000000         9.788700266742498E-096
   90.8523000000000         1.264584210365614E-095
   91.0917000000000         1.397302286393265E-095
   91.3311000000000         1.222501624701573E-095
   91.5705000000000         5.607531559241443E-096
   91.8099000000000        -7.572377892679734E-096
   92.0493000000000        -2.832373027024704E-095
   92.2887000000000        -5.616025747454008E-095
   92.5281000000000        -8.813656354976792E-095
   92.7675000000000        -1.179121908815928E-094
   93.0069000000000        -1.351503809692786E-094
   93.2463000000000        -1.256843595103989E-094
   93.4857000000000        -7.297005604591401E-095
   93.7251000000000         3.866663167812608E-095
   93.9645000000000         2.186569662684594E-094
   94.2039000000000         4.627724896025209E-094
   94.4433000000000         7.444415234562319E-094
   94.6827000000000         1.006549641547029E-093
   94.9221000000000         1.156628043807438E-093
   95.1615000000000         1.069440196443579E-093
   95.4009000000000         6.016536135744146E-094
   95.6403000000000        -3.770054986140563E-094
   95.8797000000000        -1.933606637557874E-093
   96.1191000000000        -4.004469159563148E-093
   96.3585000000000        -6.318486665488624E-093
   96.5979000000000        -8.328692618547434E-093
   96.8373000000000        -9.179917879971104E-093
   97.0767000000000        -7.749990560850060E-093
   97.3161000000000        -2.806964041633908E-093
   97.5555000000000         6.679698187171763E-093
   97.7949000000000         2.105601469577032E-092
   98.0343000000000         3.935123198047752E-092
   98.2737000000000         5.858366287514439E-092
   98.5131000000000         7.317780440935632E-092
   98.7525000000000         7.476277016168199E-092
   98.9919000000000         5.270790492867249E-092
   99.2313000000000        -4.208693072112088E-093
   99.4707000000000        -1.046561378661321E-091
   99.7101000000000        -2.499883336295430E-091
   99.9495000000000        -4.281154532175133E-091
   100.188900000000        -6.068778186273662E-091
   100.428300000000        -7.286053942417723E-091
   100.667700000000        -7.084597988110750E-091
   100.907100000000        -4.399651311554718E-091
   101.146500000000         1.884835158069347E-091
   101.385900000000         1.262822126678882E-090
   101.625300000000         2.796750969690501E-090
   101.864700000000         4.671563593077673E-090
   102.104100000000         6.570247236038690E-090
   102.343500000000         7.921340012392328E-090
   102.582900000000         7.876690305667974E-090
   102.822300000000         5.355201715571928E-090
   103.061700000000        -8.109844010662112E-091
   103.301100000000        -1.159448631040226E-089
   103.540500000000        -2.733649225667881E-089
   103.779900000000        -4.716928712455988E-089
   104.019300000000        -6.836066161937360E-089
   104.258700000000        -8.571190185361743E-089
   104.498100000000        -9.122143520690422E-089
   104.737500000000        -7.430411691475580E-089
   104.976900000000        -2.290786432618254E-089
   105.216300000000         7.413816291002912E-089
   105.455700000000         2.233160336814416E-088
   105.695100000000         4.211694911521848E-088
   105.934500000000         6.480427152113514E-088
   106.173900000000         8.618217569930273E-088
   106.413300000000         9.934063642434548E-088
   106.652700000000         9.463770641951519E-088
   106.892100000000         6.038990627183691E-088
   107.131500000000        -1.539455578948809E-088
   107.370900000000        -1.419814646568810E-087
   107.610300000000        -3.214889125314882E-087
   107.849700000000        -5.433043667747428E-087
   108.089100000000        -7.780308653679345E-087
   108.328500000000        -9.722476873929375E-087
   108.567900000000        -1.046026781828581E-086
   108.807300000000        -8.957311237284869E-087
   109.046700000000        -4.049345271094476E-087
   109.286100000000         5.339170031617890E-087
   109.525500000000         1.985528194865935E-086
   109.764900000000         3.926030698477207E-086
   110.004300000000         6.189485325845670E-086
   110.243700000000         8.415192233827963E-086
   110.483100000000         1.000980570089592E-085
   110.722500000000         1.014360900210622E-085
   110.961900000000         7.804210528365536E-086
   111.201300000000         1.931457189341301E-086
   111.440700000000        -8.347755494213587E-086
   111.680100000000        -2.337916292736614E-085
   111.919500000000        -4.255245012235146E-085
   112.158900000000        -6.383424018718098E-085
   112.398300000000        -8.335394759773475E-085
   112.637700000000        -9.517811281355971E-085
   112.877100000000        -9.144757943115618E-085
   113.116500000000        -6.307191148944175E-085
   113.355900000000        -1.160353639950599E-086
   113.595300000000         1.006994413198407E-084
   113.834700000000         2.433405427592453E-084
   114.074100000000         4.183336196886409E-084
   114.313500000000         6.042482540405625E-084
   114.552900000000         7.637194205289395E-084
   114.792300000000         8.425094008288767E-084
   115.031700000000         7.719989886527953E-084
   115.271100000000         4.765903229070869E-084
   115.510500000000        -1.127700632898345E-084
   115.749900000000        -1.038460745201276E-083
   115.989300000000        -2.290222110127724E-083
   116.228700000000        -3.775957043200425E-083
   116.468100000000        -5.294174402958694E-083
   116.707500000000        -6.515430124622010E-083
   116.946900000000        -6.982326846876510E-083
   117.186300000000        -6.138902261881970E-083
   117.425700000000        -3.399739207866817E-083
   117.665100000000         1.734025706144603E-083
   117.904500000000         9.511218111455993E-083
   118.143900000000         1.972956915827806E-082
   118.383300000000         3.152114000290774E-082
   118.622700000000         4.316494374678977E-082
   118.862100000000         5.198427807270046E-082
   119.101500000000         5.439949296966070E-082
   119.340900000000         4.621158489348778E-082
   119.580300000000         2.318238024339975E-082
   119.819700000000        -1.805253227006398E-082
   120.059100000000        -7.875583232902693E-082
   120.298500000000        -1.566425134148677E-081
   120.537900000000        -2.444139827247467E-081
   120.777300000000        -3.285822244218129E-081
   121.016700000000        -3.889981981789829E-081
   121.256100000000        -3.995679587517934E-081
   121.495500000000        -3.306407645702606E-081
   121.734900000000        -1.534493014033873E-081
   121.974300000000         1.532594563258714E-081
   122.213700000000         5.946628555074572E-081
   122.453100000000         1.150182040089446E-080
   122.692500000000         1.764157946161169E-080
   122.931900000000         2.339052235618753E-080
   123.171300000000         2.733929034035585E-080
   123.410700000000         2.771276079636293E-080
   123.650100000000         2.255032524053761E-080
   123.889500000000         1.001795517607121E-080
   124.128900000000        -1.114586330296066E-080
   124.368300000000        -4.107520941538379E-080
   124.607700000000        -7.817297147971873E-080
   124.847100000000        -1.185586943729098E-079
   125.086500000000        -1.557078379700527E-079
   125.325900000000        -1.804520323033909E-079
   125.565300000000        -1.815192202379274E-079
   125.804700000000        -1.467695171888752E-079
   126.044100000000        -6.521628888930396E-080
   126.283500000000         7.019480997005090E-080
   126.522900000000         2.592434378916399E-079
   126.762300000000         4.909311449210535E-079
   127.001700000000         7.404440694005153E-079
   127.241100000000         9.674130053621556E-079
   127.480500000000         1.116434320527290E-078
   127.719900000000         1.120815237376198E-078
   127.959300000000         9.103135271755295E-079
   128.198700000000         4.232044883968554E-079
   128.438100000000        -3.776966732751624E-079
   128.677500000000        -1.486381974387110E-078
   128.916900000000        -2.834815495818691E-078
   129.156300000000        -4.277510437952697E-078
   129.395700000000        -5.584064535169660E-078
   129.635100000000        -6.444681548651792E-078
   129.874500000000        -6.493414766855776E-078
   130.113900000000        -5.352520761778650E-078
   130.353300000000        -2.698711924601199E-078
   130.592700000000         1.651788602016277E-078
   130.832100000000         7.647449336789876E-078
   131.071500000000         1.490848357889357E-077
   131.310900000000         2.265561345023942E-077
   131.550300000000         2.968326623205208E-077
   131.789700000000         3.440103764922869E-077
   132.029100000000         3.496425746083889E-077
   132.268500000000         2.950625417980750E-077
   132.507900000000         1.647087057420172E-077
   132.747300000000        -4.975735992644053E-078
   132.986700000000        -3.449842523105159E-077
   133.226100000000        -7.018040739058097E-077
   133.465500000000        -1.082345936844955E-076
   133.704900000000        -1.429414226912702E-076
   133.944300000000        -1.669135143361532E-076
   134.183700000000        -1.717655107066511E-076
   134.423100000000        -1.492220260539066E-076
   134.662500000000        -9.262736702730588E-077
   134.901900000000         1.268271899852371E-078
   135.141300000000         1.304704890344682E-076
   135.380700000000         2.861684396722027E-076
   135.620100000000         4.518153507098273E-076
   135.859500000000         6.032685280208606E-076
   136.098900000000         7.103450125139699E-076
   136.338300000000         7.400109513357504E-076
   136.577700000000         6.611912453583612E-076
   136.817100000000         4.508715700980630E-076
   137.056500000000         1.007985427352146E-076
   137.295900000000        -3.762808665614260E-076
   137.535300000000        -9.421887592754938E-076
   137.774700000000        -1.532169178700850E-075
   138.014100000000        -2.058374973918298E-075
   138.253500000000        -2.418893478898623E-075
   138.492900000000        -2.512415484487852E-075
   138.732300000000        -2.257524193668349E-075