  -1.79550000000000         0.000000000000000E+000
  -1.55610000000000         0.000000000000000E+000
  -1.31670000000000         0.000000000000000E+000
  -1.07730000000000         0.000000000000000E+000
 -0.837900000000000         0.000000000000000E+000
 -0.598500000000000         0.000000000000000E+000
 -0.359100000000000         0.000000000000000E+000
 -0.119700000000000         0.000000000000000E+000
  0.119700000000000         0.000000000000000E+000
  0.359100000000000         0.000000000000000E+000
  0.598500000000000         0.000000000000000E+000
  0.837900000000000         0.000000000000000E+000
   1.07730000000000         0.000000000000000E+000
   1.31670000000000         0.000000000000000E+000
   1.55610000000000         0.000000000000000E+000
   1.79550000000000         0.000000000000000E+000
   2.03490000000000         0.000000000000000E+000
   2.27430000000000         0.000000000000000E+000
   2.51370000000000         0.000000000000000E+000
   2.75310000000000         0.000000000000000E+000
   2.99250000000000         0.000000000000000E+000
   3.23190000000000         0.000000000000000E+000
   3.47130000000000         0.000000000000000E+000
   3.71070000000000         0.000000000000000E+000
   3.95010000000000         0.000000000000000E+000
   4.18950000000000         0.000000000000000E+000
   4.42890000000000         0.000000000000000E+000
   4.66830000000000         0.000000000000000E+000
   4.90770000000000         0.000000000000000E+000
   5.14710000000000         0.000000000000000E+000
   5.38650000000000         0.000000000000000E+000
   5.62590000000000         0.000000000000000E+000
   5.86530000000000         0.000000000000000E+000
   6.10470000000000         0.000000000000000E+000
   6.34410000000000         0.000000000000000E+000
   6.58350000000000         0.000000000000000E+000
   6.82290000000000         0.000000000000000E+000
   7.06230000000000         0.000000000000000E+000
   7.30170000000000         0.000000000000000E+000
   7.54110000000000         0.000000000000000E+000
   7.78050000000000         0.000000000000000E+000
   8.01990000000000         0.000000000000000E+000
   8.25930000000000         0.000000000000000E+000
   8.49870000000000         0.000000000000000E+000
   8.73810000000000         0.000000000000000E+000
   8.97750000000000         0.000000000000000E+000
   9.21690000000000         0.000000000000000E+000
   9.45630000000000         0.000000000000000E+000
   9.69570000000000         0.000000000000000E+000
   9.93510000000000         0.000000000000000E+000
   10.1745000000000         0.000000000000000E+000
   10.4139000000000         0.000000000000000E+000
   10.6533000000000        -3.430329830731569E-220
   10.8927000000000         3.137432461168304E-210
   11.1321000000000        -8.705520786068344E-208
   11.3715000000000        -1.046369431101448E-205
   11.6109000000000        -3.745727051301020E-204
   11.8503000000000        -4.624328684009262E-203
   12.0897000000000         9.493321728621996E-202
   12.3291000000000         5.806295720031425E-200
   12.5685000000000         1.525500746531029E-198
   12.8079000000000         2.822153014859189E-197
   13.0473000000000         4.136720259290696E-196
   13.2867000000000         5.064086524434892E-195
   13.5261000000000         5.334669595025661E-194
   13.7655000000000         4.936026030550023E-193
   14.0049000000000         4.086409789814804E-192
   14.2443000000000         3.098987185587777E-191
   14.4837000000000         2.231941520495856E-190
   14.7231000000000         1.605684219261383E-189
   14.9625000000000         1.209346253818154E-188
   15.2019000000000         9.632230531939029E-188
   15.4413000000000         7.853133330718513E-187
   15.6807000000000         6.277700374659660E-186
   15.9201000000000         4.790842788873706E-185
   16.1595000000000         3.474573881621527E-184
   16.3989000000000         2.431603838137130E-183
   16.6383000000000         1.693440114201158E-182
   16.8777000000000         1.215627276893189E-181
   17.1171000000000         9.168461237551003E-181
   17.3565000000000         7.193777722011145E-180
   17.5959000000000         5.704536845389596E-179
   17.8353000000000         4.442320656597463E-178
   18.0747000000000         3.333318265160855E-177
   18.3141000000000         2.387096989805690E-176
   18.5535000000000         1.625889259903385E-175
   18.7929000000000         1.053080769056698E-174
   19.0323000000000         6.494851850538373E-174
   19.2717000000000         3.821710061586720E-173
   19.5111000000000         2.149921425388162E-172
   19.7505000000000         1.158542198650241E-171
   19.9899000000000         5.990752025461748E-171
   20.2293000000000         2.976978564192426E-170
   20.4687000000000         1.423380343907257E-169
   20.7081000000000         6.554211949267664E-169
   20.9475000000000         2.908370943699484E-168
   21.1869000000000         1.244075484741702E-167
   21.4263000000000         5.129713689006893E-167
   21.6657000000000         2.037900908459876E-166
   21.9051000000000         7.792361512202925E-166
   22.1445000000000         2.862667815647564E-165
   22.3839000000000         1.007433429541459E-164
   22.6233000000000         3.380250998757190E-164
   22.8627000000000         1.072879900886043E-163
   23.1021000000000         3.176681587154629E-163
   23.3415000000000         8.536134596852164E-163
   23.5809000000000         1.948309327832996E-162
   23.8203000000000         2.958825089561404E-162
   24.0597000000000        -3.002869240842195E-162
   24.2991000000000        -5.366199939080856E-161
   24.5385000000000        -3.172558522040063E-160
   24.7779000000000        -1.465437855547628E-159
   25.0173000000000        -5.986834009014238E-159
   25.2567000000000        -2.259097143727908E-158
   25.4961000000000        -8.035161231301488E-158
   25.7355000000000        -2.723861266241108E-157
   25.9749000000000        -8.858736998597213E-157
   26.2143000000000        -2.775477773911663E-156
   26.4537000000000        -8.398175251302148E-156
   26.6931000000000        -2.457719594421031E-155
   26.9325000000000        -6.959943932550724E-155
   27.1719000000000        -1.906594975439499E-154
   27.4113000000000        -5.045820025137463E-154
   27.6507000000000        -1.286890805642611E-153
   27.8901000000000        -3.149528426275407E-153
   28.1295000000000        -7.344658785421624E-153
   28.3689000000000        -1.612149940228090E-152
   28.6083000000000        -3.254562326023408E-152
   28.8477000000000        -5.738340907161547E-152
   29.0871000000000        -7.518635123614395E-152
   29.3265000000000        -6.691556927286166E-153
   29.5659000000000         4.334112618923126E-151
   29.8053000000000         2.123600183557848E-150
   30.0447000000000         7.510133426067700E-150
   30.2841000000000         2.288280398249424E-149
   30.5235000000000         6.326514586013509E-149
   30.7629000000000         1.618597614743175E-148
   31.0023000000000         3.854574388443700E-148
   31.2417000000000         8.513088043232583E-148
   31.4811000000000         1.717338454266012E-147
   31.7205000000000         3.044380481366997E-147
   31.9599000000000         4.231740770776126E-147
   32.1993000000000         2.247337772532978E-147
   32.4387000000000        -1.319051270924118E-146
   32.6781000000000        -7.146089847589024E-146
   32.9175000000000        -2.476939920712693E-145
   33.1569000000000        -7.175210906406858E-145
   33.3963000000000        -1.857928422513572E-144
   33.6357000000000        -4.405534398240299E-144
   33.8751000000000        -9.634048250182905E-144
   34.1145000000000        -1.934181157223511E-143
   34.3539000000000        -3.497646649087164E-143
   34.5933000000000        -5.413504010647265E-143
   34.8327000000000        -6.041384695882943E-143
   35.0721000000000         1.558579015234202E-144
   35.3115000000000         2.804314245328385E-142
   35.5509000000000         1.123158086010944E-141
   35.7903000000000         3.251247663960645E-141
   36.0297000000000         7.995827627351068E-141
   36.2691000000000         1.745519315153138E-140
   36.5085000000000         3.410030584687057E-140
   36.7479000000000         5.857714788198598E-140
   36.9873000000000         8.290098437251316E-140
   37.2267000000000         7.354882682306548E-140
   37.4661000000000        -6.482289162288488E-140
   37.7055000000000        -5.575441328429713E-139
   37.9449000000000        -1.869212607092011E-138
   38.1843000000000        -4.837755799114764E-138
   38.4237000000000        -1.073407140160097E-137
   38.6631000000000        -2.094033706905743E-137
   38.9025000000000        -3.549525103953997E-137
   39.1419000000000        -4.892201301597161E-137
   39.3813000000000        -4.041637768645684E-137
   39.6207000000000         4.622878624430763E-137
   39.8601000000000         3.386784711386784E-136
   40.0995000000000         1.091317498328023E-135
   40.3389000000000         2.749787660064454E-135
   40.5783000000000         5.976594273394245E-135
   40.8177000000000         1.150057755490656E-134
   41.0571000000000         1.947471312915122E-134
   41.2965000000000         2.771455721186256E-134
   41.5359000000000         2.772463161417408E-134
   41.7753000000000        -3.107478720558296E-135
   42.0147000000000        -1.149774659442989E-133
   42.2541000000000        -4.054938812126731E-133
   42.4935000000000        -1.041924796959660E-132
   42.7329000000000        -2.269661644335024E-132
   42.9723000000000        -4.364267845804482E-132
   43.2117000000000        -7.435138918448961E-132
   43.4511000000000        -1.090879357187541E-131
   43.6905000000000        -1.241177247103819E-131
   43.9299000000000        -5.671428636571355E-132
   44.1693000000000         2.293542660168458E-131
   44.4087000000000         9.918398889727051E-131
   44.6481000000000         2.659386902390047E-130
   44.8875000000000         5.841533535169814E-130
   45.1269000000000         1.120210004792649E-129
   45.3663000000000         1.900182948406620E-129
   45.6057000000000         2.797383748188914E-129
   45.8451000000000         3.302986885119888E-129
   46.0845000000000         2.119447055405351E-129
   46.3239000000000        -3.465406438733788E-129
   46.5633000000000        -1.837541957204236E-128
   46.8027000000000        -5.042805245651509E-128
   47.0421000000000        -1.101174588189590E-127
   47.2815000000000        -2.078261166727251E-127
   47.5209000000000        -3.454220634348345E-127
   47.7603000000000        -4.974491724222454E-127
   47.9997000000000        -5.755785914698871E-127
   48.2391000000000        -3.702289819083272E-127
   48.4785000000000         5.314775590455747E-127
   48.7179000000000         2.836304003568090E-126
   48.9573000000000         7.593759738229765E-126
   49.1967000000000         1.608819487921846E-125
   49.4361000000000         2.935633744194105E-125
   49.6755000000000         4.697512129688006E-125
   49.9149000000000         6.462657192090733E-125
   50.1543000000000         6.990301192309395E-125
   50.3937000000000         3.606641312051116E-125
   50.6331000000000        -8.562992535867688E-125
   50.8725000000000        -3.723877147331610E-124
   51.1119000000000        -9.285367143961877E-124
   51.3513000000000        -1.863675016211686E-123
   51.5907000000000        -3.229061992781478E-123
   51.8301000000000        -4.882130084770700E-123
   52.0695000000000        -6.244655542108980E-123
   52.3089000000000        -5.930895539972612E-123
   52.5483000000000        -1.265973588990202E-123
   52.7877000000000         1.218149921153800E-122
   53.0271000000000         4.073352344244244E-122
   53.2665000000000         9.177327588084824E-122
   53.5059000000000         1.709031615552807E-121
   53.7453000000000         2.756050625802101E-121
   53.9847000000000         3.837070000408585E-121
   54.2241000000000         4.354620416124937E-121
   54.4635000000000         3.100654217786069E-121
   54.7029000000000        -1.979011483474314E-121
   54.9423000000000        -1.388063964124044E-120
   55.1817000000000        -3.622662977966273E-120
   55.4211000000000        -7.209601518810060E-120
   55.6605000000000        -1.213985525462483E-119
   55.8999000000000        -1.761466959110882E-119
   56.1393000000000        -2.132600346755678E-119
   56.3787000000000        -1.854577285430853E-119
   56.6181000000000        -1.276213845960421E-120
   56.8575000000000         4.194692068537739E-119
   57.0969000000000         1.245164937914677E-118
   57.3363000000000         2.568303363852462E-118
   57.5757000000000         4.359093969341019E-118
   57.8151000000000         6.276889981046214E-118
   58.0545000000000         7.417534115360514E-118
   58.2939000000000         6.025052054303369E-118
   58.5333000000000        -7.114707247039558E-119
   58.7727000000000        -1.652680751803098E-117
   59.0121000000000        -4.519729267877362E-117
   59.2515000000000        -8.832538097819579E-117
   59.4909000000000        -1.411524938599518E-116
   59.7303000000000        -1.860100735430293E-116
   59.9697000000000        -1.838788490002755E-116
   60.2091000000000        -6.639309421593670E-117
   60.4485000000000         2.661206065019415E-116
   60.6879000000000         9.302272281351704E-116
   60.9273000000000         2.012601001990214E-115
   61.1667000000000         3.470385448407409E-115
   61.4061000000000         4.959211645521152E-115
   61.6455000000000         5.583474352568504E-115
   61.8849000000000         3.601681815636574E-115
   62.1243000000000        -3.804685789331880E-115
   62.3637000000000        -2.046621601202972E-114
   62.6031000000000        -5.045954720884591E-114
   62.8425000000000        -9.604275966328959E-114
   63.0819000000000        -1.535611631211527E-113
   63.3213000000000        -2.066775182890837E-113
   63.5607000000000        -2.168491099422140E-113
   63.8001000000000        -1.123994893886362E-113
   64.0395000000000         2.197522087305668E-113
   64.2789000000000         9.312945293023670E-113
   64.5183000000000         2.184324393029540E-112
   64.7577000000000         4.076866702221284E-112
   64.9971000000000         6.496668117790325E-112
   65.2365000000000         8.880321671644533E-112
   65.4759000000000         9.872662980184254E-112
   65.7153000000000         6.926244863287083E-112
   65.9547000000000        -4.034083557975504E-112
   66.1941000000000        -2.862011740261132E-111
   66.4335000000000        -7.321445408253370E-111
   66.6729000000000        -1.427703695183712E-110
   66.9123000000000        -2.363548175093451E-110
   67.1517000000000        -3.396392603784165E-110
   67.3911000000000        -4.139933846225276E-110
   67.6305000000000        -3.830361284216605E-110
   67.8699000000000        -1.198287321298676E-110
   68.1093000000000         5.583166421504136E-110
   68.3487000000000         1.875138983232905E-109
   68.5881000000000         4.042341412981545E-109
   68.8275000000000         7.144199573918383E-109
   69.0669000000000         1.093483798554577E-108
   69.3063000000000         1.453212838070485E-108
   69.5457000000000         1.601947273659739E-108
   69.7851000000000         1.202227783932186E-108
   70.0245000000000        -2.581133659591023E-109
   70.2639000000000        -3.452062790307314E-108
   70.5033000000000        -9.110958674256319E-108
   70.7427000000000        -1.777179541543347E-107
   70.9821000000000        -2.930489066811189E-107
   71.2215000000000        -4.216568526354077E-107
   71.4609000000000        -5.236721082222773E-107
   71.7003000000000        -5.228526657841486E-107
   71.9397000000000        -2.960958741983840E-107
   72.1791000000000         3.294576476747473E-107
   72.4185000000000         1.561745671417994E-106
   72.6579000000000         3.597492239156759E-106
   72.8973000000000         6.527442459880175E-106
   73.1367000000000         1.017721753448854E-105
   73.3761000000000         1.387639458774080E-105
   73.6155000000000         1.616934890161610E-105
   73.8549000000000         1.451989692934749E-105
   74.0943000000000         5.121519624256118E-106
   74.3337000000000        -1.699491071985422E-105
   74.5731000000000        -5.727324163296143E-105
   74.8125000000000        -1.200044106697769E-104
   75.0519000000000        -2.053811803913682E-104
   75.2913000000000        -3.049666815362606E-104
   75.5307000000000        -3.956369940817027E-104
   75.7701000000000        -4.327089597555262E-104
   76.0095000000000        -3.440231486617790E-104
   76.2489000000000        -2.823675847039535E-105
   76.4883000000000         6.376319158335498E-104
   76.7277000000000         1.774640798682499E-103
   76.9671000000000         3.454621605941027E-103
   77.2065000000000         5.622364432449895E-103
   77.4459000000000         7.984927877204242E-103
   77.6853000000000         9.875423252666501E-103
   77.9247000000000         1.011533621684645E-102
   78.1641000000000         6.923999208013247E-103
   78.4035000000000        -2.044985159434747E-103
   78.6429000000000        -1.942750278732364E-102
   78.8823000000000        -4.749508353047096E-102
   79.1217000000000        -8.698565684804166E-102
   79.3611000000000        -1.353299405537847E-101
   79.6005000000000        -1.843115951534511E-101
   79.8399000000000        -2.174343850316766E-101
   80.0793000000000        -2.076326282292582E-101
   80.3187000000000        -1.164462152664315E-101
   80.5581000000000         1.036653350046307E-101
   80.7975000000000         5.017009510860224E-101
   81.0369000000000         1.112807546486424E-100
   81.2763000000000         1.933303020363297E-100
   81.5157000000000         2.885497314452416E-100
   81.7551000000000         3.774717612556086E-100
   81.9945000000000         4.245752112964305E-100
   82.2339000000000         3.752674375889482E-100
   82.4733000000000         1.564187682193233E-100
   82.7127000000000        -3.165198582335934E-100
   82.9521000000000        -1.122237767059846E-099
   83.1915000000000        -2.302685919746348E-099
   83.4309000000000        -3.816544245348874E-099
   83.6703000000000        -5.478239853072911E-099
   83.9097000000000        -6.889426643950833E-099
   84.1491000000000        -7.378258255568841E-099
   84.3885000000000        -5.972550897480288E-099
   84.6279000000000        -1.444602857590218E-099
   84.8673000000000         7.524924506389019E-099
   85.1067000000000         2.201381046059852E-098
   85.3461000000000         4.231603049199620E-098
   85.5855000000000         6.718246021508035E-098
   85.8249000000000         9.289712959299169E-098
   86.0643000000000         1.123360755783870E-097
   86.3037000000000         1.142826472902683E-097
   86.5431000000000         8.341961247245830E-098
   86.7825000000000         1.555657848838321E-099
   87.0219000000000        -1.492774368446517E-097
   87.2613000000000        -3.812712956504797E-097
   87.5007000000000        -6.925129644272876E-097
   87.7401000000000        -1.056139684858044E-096
   87.9795000000000        -1.408186494091303E-096
   88.2189000000000        -1.636677555398639E-096
   88.4583000000000        -1.576143762667778E-096
   88.6977000000000        -1.013413027131878E-096
   88.9371000000000         2.882502869037013E-097
   89.1765000000000         2.539476573719477E-096
   89.4159000000000         5.844320144152937E-096
   89.6553000000000         1.008859304184699E-095
   89.8947000000000         1.480527213173277E-095
   90.1341000000000         1.903800426840006E-095
   90.3735000000000         2.123993929620171E-095
   90.6129000000000         1.926265807405705E-095
   90.8523000000000         1.050478889159939E-095
   91.0917000000000        -7.704175817230060E-096
   91.3311000000000        -3.742044936092393E-095
   91.5705000000000        -7.907566758412862E-095
   91.8099000000000        -1.301838384627970E-094
   92.0493000000000        -1.839191787290909E-094
   92.2887000000000        -2.278624340345242E-094
   92.5281000000000        -2.433753089880097E-094
   92.7675000000000        -2.062100595393060E-094
   93.0069000000000        -8.904299545944784E-095
   93.2463000000000         1.334310909438861E-094
   93.4857000000000         4.764680710610575E-094
   93.7251000000000         9.344722378092912E-094
   93.9645000000000         1.468444903050685E-093
   94.2039000000000         1.993854013871285E-093
   94.4433000000000         2.372409067880540E-093
   94.6827000000000         2.412452172489430E-093
   94.9221000000000         1.883418931720691E-093
   95.1615000000000         5.495620813413455E-094
   95.4009000000000        -1.773709935355895E-093
   95.6403000000000        -5.141452571137991E-093
   95.8797000000000        -9.385586533595520E-093
   96.1191000000000        -1.402121424172186E-092
   96.3585000000000        -1.817732777453681E-092
   96.5979000000000        -2.058477763509721E-092
   96.8373000000000        -1.965883020771231E-092
   97.0767000000000        -1.371040755003394E-092
   97.3161000000000        -1.305253812412334E-093
   97.5555000000000         1.823921060200471E-092
   97.7949000000000         4.427430938975165E-092
   98.0343000000000         7.426913765123874E-092
   98.2737000000000         1.034580469612587E-091
   98.5131000000000         1.249006620969468E-091
   98.7525000000000         1.301754516183504E-091
   98.9919000000000         1.108707668676008E-091
   99.2313000000000         6.089134280146235E-092
   99.4707000000000        -2.064995971226579E-092
   99.7101000000000        -1.265259059379029E-091
   99.9495000000000        -2.394308541285693E-091
   100.188900000000        -3.322522547326866E-091
   100.428300000000        -3.720114078200607E-091
   100.667700000000        -3.286624430774831E-091
   100.907100000000        -1.891075831230470E-091
   101.146500000000         2.478743120683235E-092
   101.385900000000         2.377421659859222E-091
   101.625300000000         3.086632852587359E-091
   101.864700000000         3.375586313737975E-092
   102.104100000000        -8.233324320948457E-091
   102.343500000000        -2.463007956933660E-090
   102.582900000000        -4.935665014984652E-090
   102.822300000000        -7.984565578714853E-090
   103.061700000000        -1.086462451779740E-089
   103.301100000000        -1.217915533465999E-089
   103.540500000000        -9.804145772693118E-090
   103.779900000000        -9.963285907085679E-091
   104.019300000000         1.720167691327029E-089
   104.258700000000         4.715103076238417E-089
   104.498100000000         8.933533276256452E-089
   104.737500000000         1.406368155476647E-088
   104.976900000000         1.923553364245031E-088
   105.216300000000         2.283740561469726E-088
   105.455700000000         2.241373392250830E-088
   105.695100000000         1.473662211408476E-088
   105.934500000000        -3.838160733629515E-089
   106.173900000000        -3.662052721758266E-088
   106.413300000000        -8.536291122572050E-088
   106.652700000000        -1.485644770264025E-087
   106.892100000000        -2.194359826948424E-087
   107.131500000000        -2.838496655298602E-087
   107.370900000000        -3.188347407235422E-087
   107.610300000000        -2.924269342338815E-087
   107.849700000000        -1.658802634121961E-087
   108.089100000000         1.006861828476876E-087
   108.328500000000         5.383142477006646E-087
   108.567900000000         1.154556996971329E-086
   108.807300000000         1.914812170590268E-086
   109.046700000000         2.721813241986579E-086
   109.286100000000         3.397416456848089E-086
   109.525500000000         3.673017656293620E-086
   109.764900000000         3.196940224949418E-086
   110.004300000000         1.568310918076157E-086
   110.243700000000        -1.593563776876941E-086
   110.483100000000        -6.538454534178374E-086
   110.722500000000        -1.323392732464534E-085
   110.961900000000        -2.118517349551272E-085
   111.201300000000        -2.925245750941768E-085
   111.440700000000        -3.551040097202137E-085
   111.680100000000        -3.721126098826833E-085
   111.919500000000        -3.092819063156599E-085
   112.158900000000        -1.295817411243452E-085
   112.398300000000         1.994932620503859E-085
   112.637700000000         6.951040343721261E-085
   112.877100000000         1.345128919852818E-084
   113.116500000000         2.092538651436565E-084
   113.355900000000         2.820810988800309E-084
   113.595300000000         3.344539921928216E-084
   113.834700000000         3.410692036431747E-084
   114.074100000000         2.716738750811542E-084
   114.313500000000         9.516487678281953E-085
   114.552900000000        -2.136090809449703E-084
   114.792300000000        -6.643145821984961E-084
   115.031700000000        -1.239468835691383E-083
   115.271100000000        -1.882098955817501E-083
   115.510500000000        -2.485200976589767E-083
   115.749900000000        -2.886513806500216E-083
   115.989300000000        -2.872950727575349E-083
   116.228700000000        -2.199331391798490E-083
   116.468100000000        -6.254578138628378E-084
   116.707500000000         2.026298031338915E-083
   116.946900000000         5.794175205460209E-083
   117.186300000000         1.048737386517552E-082
   117.425700000000         1.559654103125991E-082
   117.665100000000         2.022468697928085E-082
   117.904500000000         2.306567916463382E-082
   118.143900000000         2.246201952439907E-082
   118.383300000000         1.657357623026354E-082
   118.622700000000         3.681784072792209E-083
   118.862100000000        -1.736276125115158E-082
   119.101500000000        -4.656886399954945E-082
   119.340900000000        -8.216716191804443E-082
   119.580300000000        -1.200103354365039E-081
   119.819700000000        -1.531633011261393E-081
   120.059100000000        -1.718765014122623E-081
   120.298500000000        -1.641559410473527E-081
   120.537900000000        -1.171284356701450E-081
   120.777300000000        -1.933399379792803E-082
   121.016700000000         1.360532750331453E-081
   121.256100000000         3.472741326125480E-081
   121.495500000000         5.997635249829714E-081
   121.734900000000         8.624208509685914E-081
   121.974300000000         1.085425185214474E-080
   122.213700000000         1.200869554991707E-080
   122.453100000000         1.127550323780589E-080
   122.692500000000         7.810572358931717E-081
   122.931900000000         8.977839869998409E-082
   123.171300000000        -9.834980493595552E-081
   123.410700000000        -2.416043383856361E-080
   123.650100000000        -4.099035731206289E-080
   123.889500000000        -5.815935238317850E-080
   124.128900000000        -7.232174922266696E-080
   124.368300000000        -7.904011955060774E-080
   124.607700000000        -7.314335922371653E-080
   124.847100000000        -4.941541783338217E-080
   125.086500000000        -3.637893360897352E-081
   125.325900000000         6.605156230258882E-080
   125.565300000000         1.576065532334212E-079
   125.804700000000         2.635457870848686E-079
   126.044100000000         3.697767048886704E-079
   126.283500000000         4.551782579231571E-079
   126.522900000000         4.923966390335075E-079
   126.762300000000         4.502815824497043E-079
   127.001700000000         2.982656840402667E-079
   127.241100000000         1.274339850716179E-080
   127.480500000000        -4.148675542177842E-079
   127.719900000000        -9.691869107405669E-079
   127.959300000000        -1.602415442754993E-078
   128.198700000000        -2.228268378923171E-078
   128.438100000000        -2.720628602959166E-078
   128.677500000000        -2.919408044850966E-078
   128.916900000000        -2.645846114600029E-078
   129.156300000000        -1.728655107095903E-078
   129.395700000000        -4.094864943911124E-080
   129.635100000000         2.454249970403778E-078
   129.874500000000         5.654812308846252E-078
   130.113900000000         9.274480359950634E-078
   130.353300000000         1.281266161707162E-077
   130.592700000000         1.555168693466457E-077
   130.832100000000         1.659463120780007E-077
   131.071500000000         1.495493739207545E-077
   131.310900000000         9.704229811772332E-078
   131.550300000000         1.764463672266752E-079
   131.789700000000        -1.378517672061062E-077
   132.029100000000        -3.156594583507643E-077
   132.268500000000        -5.154534589942624E-077
   132.507900000000        -7.094739819241472E-077
   132.747300000000        -8.584207480276616E-077
   132.986700000000        -9.136519758226923E-077
   133.226100000000        -8.221317759867184E-077
   133.465500000000        -5.344245619022802E-077
   133.704900000000        -1.559780277337836E-078
   133.944300000000         7.417092766319610E-077
   134.183700000000         1.703524528062116E-076
   134.423100000000         2.782341876353409E-076
   134.662500000000         3.829438113549526E-076
   134.901900000000         4.635134656526719E-076
   135.141300000000         4.940477567617724E-076
   135.380700000000         4.463239782845049E-076
   135.620100000000         2.939801045751731E-076
   135.859500000000         1.822397194227216E-077
   136.098900000000        -3.853101108580202E-076
   136.338300000000        -8.993048767936388E-076
   136.577700000000        -1.478253460282952E-075
   136.817100000000        -2.044223062151487E-075
   137.056500000000        -2.486668630875878E-075
   137.295900000000        -2.668129074546893E-075
   137.535300000000        -2.437385236228280E-075
   137.774700000000        -1.651010595048464E-075
   138.014100000000        -2.031444064924591E-076
   138.253500000000         1.938240750239860E-075
   138.492900000000         4.692243954849722E-075
   138.732300000000         7.828924850106285E-075