  -1.79550000000000         0.000000000000000E+000
  -1.55610000000000         0.000000000000000E+000
  -1.31670000000000         0.000000000000000E+000
  -1.07730000000000         0.000000000000000E+000
 -0.837900000000000         0.000000000000000E+000
 -0.598500000000000         0.000000000000000E+000
 -0.359100000000000         0.000000000000000E+000
 -0.119700000000000         0.000000000000000E+000
  0.119700000000000         0.000000000000000E+000
  0.359100000000000         0.000000000000000E+000
  0.598500000000000         0.000000000000000E+000
  0.837900000000000         0.000000000000000E+000
   1.07730000000000         0.000000000000000E+000
   1.31670000000000         0.000000000000000E+000
   1.55610000000000         0.000000000000000E+000
   1.79550000000000         0.000000000000000E+000
   2.03490000000000         0.000000000000000E+000
   2.27430000000000         0.000000000000000E+000
   2.51370000000000         0.000000000000000E+000
   2.75310000000000         0.000000000000000E+000
   2.99250000000000         0.000000000000000E+000
   3.23190000000000         0.000000000000000E+000
   3.47130000000000         0.000000000000000E+000
   3.71070000000000         0.000000000000000E+000
   3.95010000000000         0.000000000000000E+000
   4.18950000000000         0.000000000000000E+000
   4.42890000000000         0.000000000000000E+000
   4.66830000000000         0.000000000000000E+000
   4.90770000000000         0.000000000000000E+000
   5.14710000000000         0.000000000000000E+000
   5.38650000000000         0.000000000000000E+000
   5.62590000000000         0.000000000000000E+000
   5.86530000000000         0.000000000000000E+000
   6.10470000000000         0.000000000000000E+000
   6.34410000000000         0.000000000000000E+000
   6.58350000000000         0.000000000000000E+000
   6.82290000000000         0.000000000000000E+000
   7.06230000000000         0.000000000000000E+000
   7.30170000000000         0.000000000000000E+000
   7.54110000000000         0.000000000000000E+000
   7.78050000000000         0.000000000000000E+000
   8.01990000000000         0.000000000000000E+000
   8.25930000000000         0.000000000000000E+000
   8.49870000000000         0.000000000000000E+000
   8.73810000000000         0.000000000000000E+000
   8.97750000000000         0.000000000000000E+000
   9.21690000000000         0.000000000000000E+000
   9.45630000000000         0.000000000000000E+000
   9.69570000000000         0.000000000000000E+000
   9.93510000000000         0.000000000000000E+000
   10.1745000000000         0.000000000000000E+000
   10.4139000000000         0.000000000000000E+000
   10.6533000000000         2.535098345593519E-221
   10.8927000000000        -5.946895415407220E-211
   11.1321000000000         1.627680957311059E-208
   11.3715000000000         2.054097684871029E-206
   11.6109000000000         7.951638403100547E-205
   11.8503000000000         1.172754645369866E-203
   12.0897000000000        -1.560189781317338E-202
   12.3291000000000        -1.254700630043160E-200
   12.5685000000000        -3.606432798136019E-199
   12.8079000000000        -7.082031736525057E-198
   13.0473000000000        -1.076419747591712E-196
   13.2867000000000        -1.324365802183656E-195
   13.5261000000000        -1.332857137156804E-194
   13.7655000000000        -1.071102992954866E-193
   14.0049000000000        -6.148271983743848E-193
   14.2443000000000        -1.064012408016241E-192
   14.4837000000000         3.138806908103666E-191
   14.7231000000000         5.630462252274946E-190
   14.9625000000000         6.318144243628027E-189
   15.2019000000000         5.651148631860760E-188
   15.4413000000000         4.277922148682722E-187
   15.6807000000000         2.763035894912548E-186
   15.9201000000000         1.457682401116449E-185
   16.1595000000000         5.038672905963207E-185
   16.3989000000000        -9.708981197604014E-185
   16.6383000000000        -4.116113001875039E-183
   16.8777000000000        -5.239630723346107E-182
   17.1171000000000        -5.110397721748766E-181
   17.3565000000000        -4.331610228970215E-180
   17.5959000000000        -3.326483307180775E-179
   17.8353000000000        -2.356426960423833E-178
   18.0747000000000        -1.553188456136353E-177
   18.3141000000000        -9.566248791033220E-177
   18.5535000000000        -5.514625276390328E-176
   18.7929000000000        -2.974154666888140E-175
   19.0323000000000        -1.496680854573177E-174
   19.2717000000000        -6.986662363479781E-174
   19.5111000000000        -2.990985037033170E-173
   19.7505000000000        -1.147345347935114E-172
   19.9899000000000        -3.735376015288394E-172
   20.2293000000000        -8.629544919858428E-172
   20.4687000000000         1.506158987076682E-172
   20.7081000000000         1.816031431070963E-170
   20.9475000000000         1.478092688429967E-169
   21.1869000000000         8.733726329094492E-169
   21.4263000000000         4.390321914755174E-168
   21.6657000000000         1.969077051466516E-167
   21.9051000000000         8.013028190592942E-167
   22.1445000000000         2.963319175201714E-166
   22.3839000000000         9.832105190186707E-166
   22.6233000000000         2.814585218184380E-165
   22.8627000000000         6.138915417770341E-165
   23.1021000000000         4.012984606123375E-165
   23.3415000000000        -5.737349567828796E-164
   23.5809000000000        -4.616100086584670E-163
   23.8203000000000        -2.470636377996400E-162
   24.0597000000000        -1.112697329435580E-161
   24.2991000000000        -4.499387894470751E-161
   24.5385000000000        -1.678082723923848E-160
   24.7779000000000        -5.848359757303111E-160
   25.0173000000000        -1.916974488919552E-159
   25.2567000000000        -5.923818844735580E-159
   25.4961000000000        -1.724287472558168E-158
   25.7355000000000        -4.706317248261224E-158
   25.9749000000000        -1.192617945680198E-157
   26.2143000000000        -2.749353000633539E-157
   26.4537000000000        -5.505860751389132E-157
   26.6931000000000        -8.331781558966279E-157
   26.9325000000000        -2.776210124587437E-157
   27.1719000000000         4.619439117049590E-156
   27.4113000000000         2.566431157402430E-155
   27.6507000000000         9.805038426564001E-155
   27.8901000000000         3.176129722853718E-154
   28.1295000000000         9.265768899552993E-154
   28.3689000000000         2.499258877863088E-153
   28.6083000000000         6.328089487119680E-153
   28.8477000000000         1.522846529453678E-152
   29.0871000000000         3.535374671132826E-152
   29.3265000000000         8.093814381459966E-152
   29.5659000000000         1.885337827680044E-151
   29.8053000000000         4.625322968585618E-151
   30.0447000000000         1.219785640595959E-150
   30.2841000000000         3.429443749269300E-150
   30.5235000000000         9.973717237728265E-150
   30.7629000000000         2.903163549828493E-149
   31.0023000000000         8.254190561085940E-149
   31.2417000000000         2.257836017903513E-148
   31.4811000000000         5.886900993501070E-148
   31.7205000000000         1.452893345509122E-147
   31.9599000000000         3.368698997823512E-147
   32.1993000000000         7.255920158859879E-147
   32.4387000000000         1.422507617735139E-146
   32.6781000000000         2.428336877081843E-146
   32.9175000000000         3.172970075924585E-146
   33.1569000000000         1.221961750418027E-146
   33.3963000000000        -1.085013485055859E-145
   33.6357000000000        -5.208769387670927E-145
   33.8751000000000        -1.652562953443407E-144
   34.1145000000000        -4.343699041886694E-144
   34.3539000000000        -9.977740838027032E-144
   34.5933000000000        -2.016407231316595E-143
   34.8327000000000        -3.479256056043046E-143
   35.0721000000000        -4.557097937375257E-143
   35.3115000000000        -1.887996302399508E-143
   35.5509000000000         1.434816438044811E-142
   35.7903000000000         6.831393339865944E-142
   36.0297000000000         2.121323764231637E-141
   36.2691000000000         5.444193939230261E-141
   36.5085000000000         1.222598187060579E-140
   36.7479000000000         2.428905861352731E-140
   36.9873000000000         4.182025364892428E-140
   37.2267000000000         5.747284834099063E-140
   37.4661000000000         4.151364708131930E-140
   37.7055000000000        -9.055899409898012E-140
   37.9449000000000        -5.401048519024020E-139
   38.1843000000000        -1.728092671517733E-138
   38.4237000000000        -4.430285887244631E-138
   38.6631000000000        -9.869826060667374E-138
   38.9025000000000        -1.951963661229124E-137
   39.1419000000000        -3.399056763708298E-137
   39.3813000000000        -4.966491813173910E-137
   39.6207000000000        -5.055855448494989E-137
   39.8601000000000         8.665975995313035E-138
   40.0995000000000         2.338377114419816E-136
   40.3389000000000         8.404595613282567E-136
   40.5783000000000         2.215231774247173E-135
   40.8177000000000         4.955084405344512E-135
   41.0571000000000         9.780123350536628E-135
   41.2965000000000         1.707831059258046E-134
   41.5359000000000         2.559671438190981E-134
   41.7753000000000         2.943209968204356E-134
   42.0147000000000         1.206171016992426E-134
   42.2541000000000        -6.401713475264227E-134
   42.4935000000000        -2.726438849804800E-133
   42.7329000000000        -7.415138202851030E-133
   42.9723000000000        -1.660019590511203E-132
   43.2117000000000        -3.246372578905260E-132
   43.4511000000000        -5.607686797003101E-132
   43.6905000000000        -8.370815472130997E-132
   43.9299000000000        -9.889161060455704E-132
   44.1693000000000        -5.769368275461305E-132
   44.4087000000000         1.350787136769078E-131
   44.6481000000000         6.579934495706583E-131
   44.8875000000000         1.803701000808161E-130
   45.1269000000000         3.978194336945078E-130
   45.3663000000000         7.599898529581452E-130
   45.6057000000000         1.276627800448512E-129
   45.8451000000000         1.846769796968199E-129
   46.0845000000000         2.103786688059548E-129
   46.3239000000000         1.150663880809403E-129
   46.5633000000000        -2.827841576200611E-129
   46.8027000000000        -1.301734625573501E-128
   47.0421000000000        -3.425912057071923E-128
   47.2815000000000        -7.259981372505127E-128
   47.5209000000000        -1.329696054221724E-127
   47.7603000000000        -2.130421491250835E-127
   47.9997000000000        -2.904228981419223E-127
   48.2391000000000        -2.998141200100843E-127
   48.4785000000000        -9.787857699705793E-128
   48.7179000000000         5.816315007602802E-127
   48.9573000000000         2.167749423208783E-126
   49.1967000000000         5.248155218777626E-126
   49.4361000000000         1.044071647883305E-125
   49.6755000000000         1.800054140576477E-125
   49.9149000000000         2.695281154661962E-125
   50.1543000000000         3.349421166594825E-125
   50.3937000000000         2.845383319816934E-125
   50.6331000000000        -6.114554447782809E-126
   50.8725000000000        -1.004039908108282E-124
   51.1119000000000        -2.981073420824372E-124
   51.3513000000000        -6.506543806675011E-124
   51.5907000000000        -1.195984704396787E-123
   51.8301000000000        -1.909120731084580E-123
   52.0695000000000        -2.608654528997073E-123
   52.3089000000000        -2.805269702258520E-123
   52.5483000000000        -1.492963725128278E-123
   52.7877000000000         3.077794521346165E-123
   53.0271000000000         1.352822915074055E-122
   53.2665000000000         3.313323061428452E-122
   53.5059000000000         6.482201052010450E-122
   53.7453000000000         1.087446691801311E-121
   53.9847000000000         1.575933202414783E-121
   54.2241000000000         1.889615472109038E-121
   54.4635000000000         1.547206996635490E-121
   54.7029000000000        -3.079392212076254E-122
   54.9423000000000        -4.984140282463486E-121
   55.1817000000000        -1.416299776161223E-120
   55.4211000000000        -2.947074704727421E-120
   55.6605000000000        -5.141128772388383E-120
   55.8999000000000        -7.731150441291152E-120
   56.1393000000000        -9.798405941794906E-120
   56.3787000000000        -9.312746586023434E-120
   56.6181000000000        -2.626482603095190E-120
   56.8575000000000         1.584883215780637E-119
   57.0969000000000         5.331585292732892E-119
   57.3363000000000         1.168288745084376E-118
   57.5757000000000         2.089742289928787E-118
   57.8151000000000         3.196960317763431E-118
   58.0545000000000         4.132883176486709E-118
   58.2939000000000         4.109328336760247E-118
   58.5333000000000         1.722976314303788E-118
   58.7727000000000        -5.145879514726038E-118
   59.0121000000000        -1.917248415754900E-117
   59.2515000000000        -4.287422623089267E-117
   59.4909000000000        -7.694816337705565E-117
   59.7303000000000        -1.172296561853088E-116
   59.9697000000000        -1.500055100657738E-116
   60.2091000000000        -1.459640846749831E-116
   60.4485000000000        -5.424152399476246E-117
   60.6879000000000         1.999394355121265E-116
   60.9273000000000         7.075618191097229E-116
   61.1667000000000         1.547966184459199E-115
   61.4061000000000         2.727705741497623E-115
   61.6455000000000         4.072798385105334E-115
   61.8849000000000         5.068046339869358E-115
   62.1243000000000         4.657331543503117E-115
   62.3637000000000         1.059718989677487E-115
   62.6031000000000        -8.275687932130921E-115
   62.8425000000000        -2.635705862828277E-114
   63.0819000000000        -5.564903472626931E-114
   63.3213000000000        -9.596587844051731E-114
   63.5607000000000        -1.408549771263440E-113
   63.8001000000000        -1.723143116885784E-113
   64.0395000000000        -1.543527828177686E-113
   64.2789000000000        -2.720202635829602E-114
   64.5183000000000         2.938996142182421E-113
   64.7577000000000         9.085077061521153E-113
   64.9971000000000         1.899195854743870E-112
   65.2365000000000         3.265487496238839E-112
   65.4759000000000         4.811272980490684E-112
   65.7153000000000         5.980761748727239E-112
   65.9547000000000         5.657260994841495E-112
   66.1941000000000         1.976256571342453E-112
   66.4335000000000        -7.735753480652766E-112
   66.6729000000000        -2.670249180841479E-111
   66.9123000000000        -5.783054856843356E-111
   67.1517000000000        -1.018690127348441E-110
   67.3911000000000        -1.542341091313558E-110
   67.6305000000000        -2.003140763394863E-110
   67.8699000000000        -2.095553594961730E-110
   68.1093000000000        -1.295803235088490E-110
   68.3487000000000         1.168713524811371E-110
   68.5881000000000         6.272357219094143E-110
   68.8275000000000         1.499196365565039E-109
   69.0669000000000         2.785901639904587E-109
   69.3063000000000         4.416236625940060E-109
   69.5457000000000         6.073578177008092E-109
   69.7851000000000         7.037110004783284E-109
   70.0245000000000         6.011260229357361E-109
   70.2639000000000         1.004432814939674E-109
   70.5033000000000        -1.063110666075281E-108
   70.7427000000000        -3.182501208022528E-108
   70.9821000000000        -6.484928075732285E-108
   71.2215000000000        -1.095565958426005E-107
   71.4609000000000        -1.605938107375253E-107
   71.7003000000000        -2.035888366650939E-107
   71.9397000000000        -2.107387161135934E-107
   72.1791000000000        -1.369616836496934E-107
   72.4185000000000         8.114739193784921E-108
   72.6579000000000         5.199649885458671E-107
   72.8973000000000         1.252113843906503E-106
   73.1367000000000         2.312504400752686E-106
   73.3761000000000         3.641797162054575E-106
   73.6155000000000         5.005159574908334E-106
   73.8549000000000         5.891739706680553E-106
   74.0943000000000         5.413796193016740E-106
   74.3337000000000         2.244934305288321E-106
   74.5731000000000        -5.336230125830491E-106
   74.8125000000000        -1.920118573051383E-105
   75.0519000000000        -4.080622704937007E-105
   75.2913000000000        -7.018551659464680E-105
   75.5307000000000        -1.044234550746105E-104
   75.7701000000000        -1.356430708372313E-104
   76.0095000000000        -1.487679409605080E-104
   76.2489000000000        -1.196647863464809E-104
   76.4883000000000        -1.475196332440581E-105
   76.7277000000000         2.062827846249485E-104
   76.9671000000000         5.824996791190736E-104
   77.2065000000000         1.136070696718887E-103
   77.4459000000000         1.847007882099147E-103
   77.6853000000000         2.617801134382341E-103
   77.9247000000000         3.230699829093188E-103
   78.1641000000000         3.305694139763329E-103
   78.4035000000000         2.274865094063775E-103
   78.6429000000000        -6.018238013662733E-104
   78.8823000000000        -6.144634080526653E-103
   79.1217000000000        -1.504481928749001E-102
   79.3611000000000        -2.749836764752644E-102
   79.6005000000000        -4.265981971653843E-102
   79.8399000000000        -5.793367960787938E-102
   80.0793000000000        -6.819304069865438E-102
   80.3187000000000        -6.512343454476492E-102
   80.5581000000000        -3.703105543958733E-102
   80.7975000000000         3.038938652105190E-102
   81.0369000000000         1.516997432732357E-101
   81.2763000000000         3.371064270762617E-101
   81.5157000000000         5.850628036217089E-101
   81.7551000000000         8.720001834167901E-101
   81.9945000000000         1.139966827979200E-100
   82.2339000000000         1.284331135175485E-100
   82.4733000000000         1.145593378091310E-100
   82.7127000000000         5.115841432842262E-101
   82.9521000000000        -8.615131253203531E-101
   83.1915000000000        -3.199548828713490E-100
   83.4309000000000        -6.623070378346025E-100
   83.6703000000000        -1.101719367284880E-099
   83.9097000000000        -1.586272740111482E-099
   84.1491000000000        -2.004813717208349E-099
   84.3885000000000        -2.170442753451627E-099
   84.6279000000000        -1.813324517494099E-099
   84.8673000000000        -5.928481283670739E-100
   85.1067000000000         1.858439545550066E-099
   85.3461000000000         5.846133145389259E-099
   85.5855000000000         1.147040870381503E-098
   85.8249000000000         1.842580386166673E-098
   86.0643000000000         2.575803083573857E-098
   86.3037000000000         3.161528927492595E-098
   86.5431000000000         3.306305851589660E-098
   86.7825000000000         2.606733148893396E-098
   87.0219000000000         5.784588562260642E-099
   87.2613000000000        -3.268430976698004E-098
   87.5007000000000        -9.293129941022284E-098
   87.7401000000000        -1.751876898353810E-097
   87.9795000000000        -2.736334445335463E-097
   88.2189000000000        -3.733441525868761E-097
   88.4583000000000        -4.474604818505975E-097
   88.6977000000000        -4.555401139559039E-097
   88.9371000000000        -3.444349011333007E-097
   89.1765000000000        -5.332429493905768E-098
   89.4159000000000         4.754187529541714E-097
   89.6553000000000         1.278238002523119E-096
   89.8947000000000         2.345002710206116E-096
   90.1341000000000         3.587744864497192E-096
   90.3735000000000         4.807715522021604E-096
   90.6129000000000         5.668331604147364E-096
   90.8523000000000         5.685263677777869E-096
   91.0917000000000         4.248104881184294E-096
   91.3311000000000         6.895780481175061E-097
   91.5705000000000        -5.583433938581901E-096
   91.8099000000000        -1.488926346727890E-095
   92.0493000000000        -2.700625110735026E-095
   92.2887000000000        -4.086768597917399E-095
   92.5281000000000        -5.426751227900727E-095
   92.7675000000000        -6.365658884509910E-095
   93.0069000000000        -6.413617192741342E-095
   93.2463000000000        -4.977151387421877E-095
   93.4857000000000        -1.434341314547654E-095
   93.7251000000000         4.738208744135031E-095
   93.9645000000000         1.378651315983096E-094
   94.2039000000000         2.546085714672920E-094
   94.4433000000000         3.878664363465099E-094
   94.6827000000000         5.187107126919652E-094
   94.9221000000000         6.180802687829833E-094
   95.1615000000000         6.475166726217183E-094
   95.4009000000000         5.622325444285969E-094
   95.6403000000000         3.169007382669721E-094
   95.8797000000000        -1.259340757038530E-094
   96.1191000000000        -7.856125193837274E-094
   96.3585000000000        -1.652870065748108E-093
   96.5979000000000        -2.681367851435046E-093
   96.8373000000000        -3.783784024650567E-093
   97.0767000000000        -4.834493696122682E-093
   97.3161000000000        -5.679235091955381E-093
   97.5555000000000        -6.149249489805390E-093
   97.7949000000000        -6.073408763280732E-093
   98.0343000000000        -5.277619453324316E-093
   98.2737000000000        -3.557908917899124E-093
   98.5131000000000        -6.144835761900346E-094
   98.7525000000000         4.058235755884163E-093
   98.9919000000000         1.131293170036550E-092
   99.2313000000000         2.247967249601618E-092
   99.4707000000000         3.940150222977276E-092
   99.7101000000000         6.424399376240053E-092
   99.9495000000000         9.890515219597771E-092
   100.188900000000         1.438353463888651E-091
   100.428300000000         1.961143531889330E-091
   100.667700000000         2.467586449440480E-091
   100.907100000000         2.774808925640425E-091
   101.146500000000         2.575178768271851E-091
   101.385900000000         1.416771866818564E-091
   101.625300000000        -1.286268129006737E-091
   101.864700000000        -6.189957828014691E-091
   102.104100000000        -1.387646700356913E-090
   102.343500000000        -2.460531387372102E-090
   102.582900000000        -3.794681136135900E-090
   102.822300000000        -5.230974688525559E-090
   103.061700000000        -6.441667384121874E-090
   103.301100000000        -6.883881771372496E-090
   103.540500000000        -5.777484634825860E-090
   103.779900000000        -2.133339564859801E-090
   104.019300000000         5.136060063658474E-090
   104.258700000000         1.698996954005082E-089
   104.498100000000         3.388974527828487E-089
   104.737500000000         5.527815693963551E-089
   104.976900000000         7.893512112383363E-089
   105.216300000000         1.002916874406432E-088
   105.455700000000         1.118564742285673E-088
   105.695100000000         1.029927544499465E-088
   105.934500000000         6.036603271492982E-089
   106.173900000000        -3.056207946965211E-089
   106.413300000000        -1.826206060299273E-088
   106.652700000000        -4.023257451445819E-088
   106.892100000000        -6.835616965448613E-088
   107.131500000000        -9.999454039905031E-088
   107.370900000000        -1.296895777746261E-087
   107.610300000000        -1.485221646529313E-087
   107.849700000000        -1.438926402034450E-087
   108.089100000000        -1.000739294208972E-087
   108.328500000000         6.295889110236686E-091
   108.567900000000         1.717693913008466E-087
   108.807300000000         4.233291969388523E-087
   109.046700000000         7.491757644531182E-087
   109.286100000000         1.121687299628975E-086
   109.525500000000         1.482773614929538E-086
   109.764900000000         1.737166282347850E-086
   110.004300000000         1.750187253853401E-086
   110.243700000000         1.353532263232370E-086
   110.483100000000         3.630137372289682E-087
   110.722500000000        -1.388064594284468E-086
   110.961900000000        -3.997559134843213E-086
   111.201300000000        -7.425574499129902E-086
   111.440700000000        -1.141283506628864E-085
   111.680100000000        -1.539733340339550E-085
   111.919500000000        -1.844774526742529E-085
   112.158900000000        -1.924004006344975E-085
   112.398300000000        -1.611051512761417E-085
   112.637700000000        -7.221832763810839E-086
   112.877100000000         9.124407965236507E-086
   113.116500000000         3.400777428795440E-085
   113.355900000000         6.724651842806677E-085
   113.595300000000         1.066376244021974E-084
   113.834700000000         1.471795989105470E-084
   114.074100000000         1.804444939583579E-084
   114.313500000000         1.943347817816606E-084
   114.552900000000         1.735186699090478E-084
   114.792300000000         1.008642427746570E-084
   115.031700000000        -3.983657598505910E-085
   115.271100000000        -2.596761955940743E-084
   115.510500000000        -5.590150285296568E-084
   115.749900000000        -9.208292220414333E-084
   115.989300000000        -1.303876600815353E-083
   116.228700000000        -1.637088473403882E-083
   116.468100000000        -1.817164953860853E-083
   116.707500000000        -1.711820673659578E-083
   116.946900000000        -1.171332436912804E-083
   117.186300000000        -5.077963509266971E-085
   117.425700000000         1.755572717588753E-083
   117.665100000000         4.268108688396552E-083
   117.904500000000         7.367060159076890E-083
   118.143900000000         1.073593018289029E-082
   118.383300000000         1.381436534777629E-082
   118.622700000000         1.577613344726668E-082
   118.862100000000         1.555143471001588E-082
   119.101500000000         1.191421910744489E-082
   119.340900000000         3.652977545173451E-083
   119.580300000000        -1.016396368713459E-082
   119.819700000000        -2.983162555562687E-082
   120.059100000000        -5.458425807988305E-082
   120.298500000000        -8.215608049147560E-082
   120.537900000000        -1.084113906551421E-081
   120.777300000000        -1.271608275767617E-081
   121.016700000000        -1.303058154389884E-081
   121.256100000000        -1.084621850035942E-081
   121.495500000000        -5.219585121671486E-082
   121.734900000000         4.605266034902079E-082
   121.974300000000         1.893807661813481E-081
   122.213700000000         3.733521316712705E-081
   122.453100000000         5.828167475410697E-081
   122.692500000000         7.892229203136412E-081
   122.931900000000         9.492392926361342E-081
   123.171300000000         1.005667751089722E-080
   123.410700000000         8.916723490469192E-081
   123.650100000000         5.392037711156822E-081
   123.889500000000        -1.079052658340871E-081
   124.128900000000        -1.076410889883233E-080
   124.368300000000        -2.342964525672501E-080
   124.607700000000        -3.812825441348168E-080
   124.847100000000        -5.301987849022146E-080
   125.086500000000        -6.528077202577177E-080
   125.325900000000        -7.116299667304654E-080
   125.565300000000        -6.626839070171128E-080
   125.804700000000        -4.608953614215844E-080
   126.044100000000        -6.842410815899295E-081
   126.283500000000         5.343125125197303E-080
   126.522900000000         1.335790539505178E-079
   126.762300000000         2.280370583902551E-079
   127.001700000000         3.257637684926666E-079
   127.241100000000         4.097340287716176E-079
   127.480500000000         4.573619374842561E-079
   127.719900000000         4.422122621244786E-079
   127.959300000000         3.372728531144411E-079
   128.198700000000         1.198771942127744E-079
   128.438100000000        -2.219215361308428E-079
   128.677500000000        -6.821058669217005E-079
   128.916900000000        -1.229602695280092E-078
   129.156300000000        -1.802809562885992E-078
   129.395700000000        -2.307549568093878E-078
   129.635100000000        -2.620403876552488E-078
   129.874500000000        -2.599175415401199E-078
   130.113900000000        -2.101596077118267E-078
   130.353300000000        -1.012231632098528E-078
   130.592700000000         7.241313483286211E-079
   130.832100000000         3.066398382025645E-078
   131.071500000000         5.844371302121459E-078
   131.310900000000         8.737189335365367E-078
   131.550300000000         1.127212278111072E-077
   131.789700000000         1.285261896298826E-077
   132.029100000000         1.282231681050572E-077
   132.268500000000         1.056717323418226E-077
   132.507900000000         5.650783465157318E-078
   132.747300000000        -2.031170831593037E-078
   132.986700000000        -1.210160293774811E-077
   133.226100000000        -2.359156159345992E-077
   133.465500000000        -3.490868776399186E-077
   133.704900000000        -4.392496124652160E-077
   133.944300000000        -4.821554076910820E-077
   134.183700000000        -4.546080041888690E-077
   134.423100000000        -3.399202811829436E-077
   134.662500000000        -1.341918975406462E-077
   134.901900000000         1.476871109509050E-077
   135.141300000000         4.678564410623299E-077
   135.380700000000         7.649935054571285E-077
   135.620100000000         9.594052540396518E-077
   135.859500000000         9.652005651469296E-077
   136.098900000000         7.100857584758745E-077
   136.338300000000         1.617572574134879E-077
   136.577700000000        -6.422666595083833E-077
   136.817100000000        -1.567023888389861E-076
   137.056500000000        -2.362804184475077E-076
   137.295900000000        -2.668114922976151E-076
   137.535300000000        -2.043357246394907E-076
   137.774700000000        -4.396606842820627E-078
   138.014100000000         3.662846184187595E-076
   138.253500000000         9.141630238894034E-076
   138.492900000000         1.600783908088976E-075
   138.732300000000         2.325193134448739E-075