  -1.79550000000000         0.000000000000000E+000
  -1.55610000000000         0.000000000000000E+000
  -1.31670000000000         0.000000000000000E+000
  -1.07730000000000         0.000000000000000E+000
 -0.837900000000000         0.000000000000000E+000
 -0.598500000000000         0.000000000000000E+000
 -0.359100000000000         0.000000000000000E+000
 -0.119700000000000         0.000000000000000E+000
  0.119700000000000         0.000000000000000E+000
  0.359100000000000         0.000000000000000E+000
  0.598500000000000         0.000000000000000E+000
  0.837900000000000         0.000000000000000E+000
   1.07730000000000         0.000000000000000E+000
   1.31670000000000         0.000000000000000E+000
   1.55610000000000         0.000000000000000E+000
   1.79550000000000         0.000000000000000E+000
   2.03490000000000         0.000000000000000E+000
   2.27430000000000         0.000000000000000E+000
   2.51370000000000         0.000000000000000E+000
   2.75310000000000         0.000000000000000E+000
   2.99250000000000         0.000000000000000E+000
   3.23190000000000         0.000000000000000E+000
   3.47130000000000         0.000000000000000E+000
   3.71070000000000         0.000000000000000E+000
   3.95010000000000         0.000000000000000E+000
   4.18950000000000         0.000000000000000E+000
   4.42890000000000         0.000000000000000E+000
   4.66830000000000         0.000000000000000E+000
   4.90770000000000         0.000000000000000E+000
   5.14710000000000         0.000000000000000E+000
   5.38650000000000         0.000000000000000E+000
   5.62590000000000         0.000000000000000E+000
   5.86530000000000         0.000000000000000E+000
   6.10470000000000         0.000000000000000E+000
   6.34410000000000         0.000000000000000E+000
   6.58350000000000         0.000000000000000E+000
   6.82290000000000         0.000000000000000E+000
   7.06230000000000         0.000000000000000E+000
   7.30170000000000         0.000000000000000E+000
   7.54110000000000         0.000000000000000E+000
   7.78050000000000         0.000000000000000E+000
   8.01990000000000         0.000000000000000E+000
   8.25930000000000         0.000000000000000E+000
   8.49870000000000         0.000000000000000E+000
   8.73810000000000         0.000000000000000E+000
   8.97750000000000         0.000000000000000E+000
   9.21690000000000         0.000000000000000E+000
   9.45630000000000         0.000000000000000E+000
   9.69570000000000         0.000000000000000E+000
   9.93510000000000         0.000000000000000E+000
   10.1745000000000         0.000000000000000E+000
   10.4139000000000         0.000000000000000E+000
   10.6533000000000         0.000000000000000E+000
   10.8927000000000         0.000000000000000E+000
   11.1321000000000         0.000000000000000E+000
   11.3715000000000        -2.568558480671738E-231
   11.6109000000000         2.308586192433930E-224
   11.8503000000000         4.475005012463884E-222
   12.0897000000000        -1.114689775474093E-218
   12.3291000000000        -9.541063807206069E-217
   12.5685000000000        -7.489224797301916E-215
   12.8079000000000        -4.930947671184605E-213
   13.0473000000000        -1.510240625780961E-210
   13.2867000000000         1.146951888919914E-203
   13.5261000000000         2.042816995844775E-203
   13.7655000000000        -6.060382536567924E-200
   14.0049000000000        -3.685696547515212E-198
   14.2443000000000        -1.079838051385653E-196
   14.4837000000000        -1.629605538858234E-195
   14.7231000000000         4.754584877784514E-196
   14.9625000000000         7.000724405678690E-193
   15.2019000000000         2.052739306102896E-191
   15.4413000000000         3.659760766049053E-190
   15.6807000000000         4.476908216123159E-189
   15.9201000000000         3.191321073251511E-188
   16.1595000000000        -1.062882233106854E-187
   16.3989000000000        -8.096322836032250E-186
   16.6383000000000        -1.657866476586234E-184
   16.8777000000000        -2.454116311409410E-183
   17.1171000000000        -3.016302055923609E-182
   17.3565000000000        -3.241246868868677E-181
   17.5959000000000        -3.126860867754615E-180
   17.8353000000000        -2.752112745180937E-179
   18.0747000000000        -2.234189680741246E-178
   18.3141000000000        -1.686154381345378E-177
   18.5535000000000        -1.190124056933324E-176
   18.7929000000000        -7.892678383890365E-176
   19.0323000000000        -4.936168455957311E-175
   19.2717000000000        -2.919799125032186E-174
   19.5111000000000        -1.637196371510897E-173
   19.7505000000000        -8.717159266624426E-173
   19.9899000000000        -4.412484122024860E-172
   20.2293000000000        -2.124673880127806E-171
   20.4687000000000        -9.731976125958453E-171
   20.7081000000000        -4.237235569758464E-170
   20.9475000000000        -1.750573617714807E-169
   21.1869000000000        -6.841001532454550E-169
   21.4263000000000        -2.515095620508169E-168
   21.6657000000000        -8.618894429031668E-168
   21.9051000000000        -2.706826456384773E-167
   22.1445000000000        -7.524502953606102E-167
   22.3839000000000        -1.691817885699693E-166
   22.6233000000000        -2.024345528995336E-166
   22.8627000000000         7.159915351153696E-166
   23.1021000000000         7.108206688563926E-165
   23.3415000000000         3.764571072456890E-164
   23.5809000000000         1.592392826910463E-163
   23.8203000000000         5.824905778001835E-163
   24.0597000000000         1.876257888546090E-162
   24.2991000000000         5.239348306179420E-162
   24.5385000000000         1.180095308378643E-161
   24.7779000000000         1.523684578412217E-161
   25.0173000000000        -3.650467995742794E-161
   25.2567000000000        -3.983304643037054E-160
   25.4961000000000        -2.087681753352982E-159
   25.7355000000000        -8.661951704630202E-159
   25.9749000000000        -3.125314942159090E-158
   26.2143000000000        -1.009509454813234E-157
   26.4537000000000        -2.928899963481747E-157
   26.6931000000000        -7.483650499158812E-157
   26.9325000000000        -1.573341208743157E-156
   27.1719000000000        -2.030711047318330E-156
   27.4113000000000         3.239660002237990E-156
   27.6507000000000         3.879092945910172E-155
   27.8901000000000         1.984739479600873E-154
   28.1295000000000         8.040333326697018E-154
   28.3689000000000         2.873920030636175E-153
   28.6083000000000         9.426057885562751E-153
   28.8477000000000         2.888651469928996E-152
   29.0871000000000         8.346257654816145E-152
   29.3265000000000         2.282823693693466E-151
   29.5659000000000         5.913217947069752E-151
   29.8053000000000         1.446050310104124E-150
   30.0447000000000         3.311888099549204E-150
   30.2841000000000         6.986236001380460E-150
   30.5235000000000         1.308324034923955E-149
   30.7629000000000         1.965971193227652E-149
   31.0023000000000         1.381131481855947E-149
   31.2417000000000        -5.357856007818880E-149
   31.4811000000000        -3.360948467947895E-148
   31.7205000000000        -1.261365126232585E-147
   31.9599000000000        -3.920541035728725E-147
   32.1993000000000        -1.089085380085501E-146
   32.4387000000000        -2.780027144104971E-146
   32.6781000000000        -6.586220800467003E-146
   32.9175000000000        -1.447416768364489E-145
   33.1569000000000        -2.917310131747083E-145
   33.3963000000000        -5.229201186745742E-145
   33.6357000000000        -7.646589192265482E-145
   33.8751000000000        -6.074410757286665E-145
   34.1145000000000         1.362687778628844E-144
   34.3539000000000         9.210224292650289E-144
   34.5933000000000         3.338292562614226E-143
   34.8327000000000         9.852493389459010E-143
   35.0721000000000         2.584197321094210E-142
   35.3115000000000         6.213143396657540E-142
   35.5509000000000         1.384727334105400E-141
   35.7903000000000         2.860669369901909E-141
   36.0297000000000         5.416335149082990E-141
   36.2691000000000         9.108974425631282E-141
   36.5085000000000         1.244852683481261E-140
   36.7479000000000         8.974086449270460E-141
   36.9873000000000        -2.116389426462383E-140
   37.2267000000000        -1.301604848964727E-139
   37.4661000000000        -4.420814770773584E-139
   37.7055000000000        -1.229140736928163E-138
   37.9449000000000        -3.046392551090042E-138
   38.1843000000000        -6.942647063824020E-138
   38.4237000000000        -1.472863333141477E-137
   38.6631000000000        -2.915859308239586E-137
   38.9025000000000        -5.355329714182607E-137
   39.1419000000000        -8.964274412177634E-137
   39.3813000000000        -1.308653009620110E-136
   39.6207000000000        -1.454850244237050E-136
   39.8601000000000        -3.908002508286214E-137
   40.0995000000000         4.209612890014584E-136
   40.3389000000000         1.743718118933855E-135
   40.5783000000000         4.941996766654914E-135
   40.8177000000000         1.185249726151584E-134
   41.0571000000000         2.546640716851825E-134
   41.2965000000000         4.995586705629830E-134
   41.5359000000000         8.955652228623665E-134
   41.7753000000000         1.444116229351119E-133
   42.0147000000000         1.995795407900872E-133
   42.2541000000000         2.003528690069631E-133
   42.4935000000000         2.884453627659086E-135
   42.7329000000000        -7.149107664498926E-133
   42.9723000000000        -2.596984806482721E-132
   43.2117000000000        -6.807423725570680E-132
   43.4511000000000        -1.523269823225507E-131
   43.6905000000000        -3.051003821501841E-131
   43.9299000000000        -5.543322524616478E-131
   44.1693000000000        -9.077570031312606E-131
   44.4087000000000        -1.297088207066798E-130
   44.6481000000000        -1.457226977063247E-130
   44.8875000000000        -6.944221660536067E-131
   45.1269000000000         2.512828861989588E-130
   45.3663000000000         1.112149681268341E-129
   45.6057000000000         3.029831144598005E-129
   45.8451000000000         6.808375578167397E-129
   46.0845000000000         1.351427171030531E-128
   46.3239000000000         2.417746705010381E-128
   46.5633000000000         3.885845198300749E-128
   46.8027000000000         5.445101330169751E-128
   47.0421000000000         6.024246221347458E-128
   47.2815000000000         2.993858606517016E-128
   47.5209000000000        -9.110528179107972E-128
   47.7603000000000        -4.036228464307587E-127
   47.9997000000000        -1.073852267421726E-126
   48.2391000000000        -2.343224811642166E-126
   48.4785000000000        -4.500833393336194E-126
   48.7179000000000        -7.763019976031750E-126
   48.9573000000000        -1.196081818717499E-125
   49.1967000000000        -1.587824019694124E-125
   49.4361000000000        -1.602657647411408E-125
   49.6755000000000        -4.623500827743999E-126
   49.9149000000000         3.333695013631896E-125
   50.1543000000000         1.236119006290913E-124
   50.3937000000000         3.054981453995040E-124
   50.6331000000000         6.304962482325434E-124
   50.8725000000000         1.149876387105948E-123
   51.1119000000000         1.878620647569140E-123
   51.3513000000000         2.715826402606309E-123
   51.5907000000000         3.294015491616348E-123
   51.8301000000000         2.726553414091026E-123
   52.0695000000000        -7.663119432609985E-124
   52.3089000000000        -1.032761552874580E-122
   52.5483000000000        -3.089620826604956E-122
   52.7877000000000        -6.925167566834484E-122
   53.0271000000000        -1.329470170910083E-121
   53.2665000000000        -2.268321601268610E-121
   53.5059000000000        -3.451192446410584E-121
   53.7453000000000        -4.561698859391805E-121
   53.9847000000000        -4.768438185000405E-121
   54.2241000000000        -2.342818426041347E-121
   54.4635000000000         5.829020232738290E-121
   54.7029000000000         2.472210514602414E-120
   54.9423000000000         6.132631945577785E-120
   55.1817000000000         1.238422217183471E-119
   55.4211000000000         2.187978754210308E-119
   55.6605000000000         3.443460642926270E-119
   55.8999000000000         4.773941469228520E-119
   56.1393000000000         5.519989409117618E-119
   56.3787000000000         4.273762044818036E-119
   56.6181000000000        -1.527854847076375E-119
   56.8575000000000        -1.600323939580468E-118
   57.0969000000000        -4.498006837556905E-118
   57.3363000000000        -9.542583030963363E-118
   57.5757000000000        -1.733344849682119E-117
   57.8151000000000        -2.788319386078155E-117
   58.0545000000000        -3.968890133863154E-117
   58.2939000000000        -4.819714908996424E-117
   58.5333000000000        -4.357230901134039E-117
   58.7727000000000        -7.919719934639827E-118
   59.0121000000000         8.736024929736771E-117
   59.2515000000000         2.824654085045063E-116
   59.4909000000000         6.252245033225023E-116
   59.7303000000000         1.157130297895663E-115
   59.9697000000000         1.881931687915118E-115
   60.2091000000000         2.707587666905627E-115
   60.4485000000000         3.352886502132891E-115
   60.6879000000000         3.215781957399901E-115
   60.9273000000000         1.216041691089291E-115
   61.1667000000000        -4.343897647470958E-115
   61.4061000000000        -1.580260628882232E-114
   61.6455000000000        -3.587123229221125E-114
   61.8849000000000        -6.679469484123214E-114
   62.1243000000000        -1.085605031724608E-113
   62.3637000000000        -1.557165312477920E-113
   62.6031000000000        -1.924427384936110E-113
   62.8425000000000        -1.858971351467970E-113
   63.0819000000000        -7.873657091522460E-114
   63.3213000000000         2.166476720125417E-113
   63.5607000000000         8.170155528610983E-113
   63.8001000000000         1.851464373832529E-112
   64.0395000000000         3.415792351009659E-112
   64.2789000000000         5.481184161048351E-112
   64.5183000000000         7.739749158223010E-112
   64.7577000000000         9.376364428592006E-112
   64.9971000000000         8.777354397656273E-112
   65.2365000000000         3.230338943969706E-112
   65.4759000000000        -1.125491818291957E-111
   65.7153000000000        -3.976190783019549E-111
   65.9547000000000        -8.753030830952296E-111
   66.1941000000000        -1.577240895986663E-110
   66.4335000000000        -2.472623185270662E-110
   66.6729000000000        -3.401379706407332E-110
   66.9123000000000        -3.980676747036488E-110
   67.1517000000000        -3.493342078184898E-110
   67.3911000000000        -7.859728391985832E-111
   67.6305000000000         5.764877017597128E-110
   67.8699000000000         1.811732961146034E-109
   68.1093000000000         3.810791688361468E-109
   68.3487000000000         6.647693161637712E-109
   68.5881000000000         1.011632657636458E-108
   68.8275000000000         1.347176458417148E-108
   69.0669000000000         1.508853684707645E-108
   69.3063000000000         1.208359494993648E-108
   69.5457000000000         2.529424567662834E-111
   69.7851000000000        -2.704035325113491E-108
   70.0245000000000        -7.587244215926584E-108
   70.2639000000000        -1.521005158167721E-107
   70.5033000000000        -2.564360005324960E-107
   70.7427000000000        -3.784229965942052E-107
   70.9821000000000        -4.874431385851188E-107
   71.2215000000000        -5.215089395811401E-107
   71.4609000000000        -3.759362114165010E-107
   71.7003000000000         1.035137279465965E-107
   71.9397000000000         1.114931392649888E-106
   72.1791000000000         2.869696799099744E-106
   72.4185000000000         5.520754056795535E-106
   72.6579000000000         9.031484681145031E-106
   72.8973000000000         1.297020838078269E-105
   73.1367000000000         1.622836478252828E-105
   73.3761000000000         1.668895208418514E-105
   73.6155000000000         1.092176817873756E-105
   73.8549000000000        -5.942552474550633E-106
   74.0943000000000        -3.990836862332497E-105
   74.3337000000000        -9.701885540757149E-105
   74.5731000000000        -1.810151858665786E-104
   74.8125000000000        -2.892844089475683E-104
   75.0519000000000        -4.067810225824794E-104
   75.2913000000000        -4.980456333081098E-104
   75.5307000000000        -4.983103057172331E-104
   75.7701000000000        -3.061029514008659E-104
   76.0095000000000         2.182030967497862E-104
   76.2489000000000         1.240921658665280E-103
   76.4883000000000         2.921104391472995E-103
   76.7277000000000         5.342789889384513E-103
   76.9671000000000         8.402741116262783E-103
   77.2065000000000         1.164817929218301E-102
   77.4459000000000         1.407171562047996E-102
   77.6853000000000         1.389392951948743E-102
   77.9247000000000         8.400230541860071E-103
   78.1641000000000        -6.052099722999573E-103
   78.4035000000000        -3.368291408160755E-102
   78.6429000000000        -7.836603700920351E-102
   78.8823000000000        -1.418776292531019E-101
   79.1217000000000        -2.210945550317501E-101
   79.3611000000000        -3.040694973001748E-101
   79.6005000000000        -3.652321945832278E-101
   79.8399000000000        -3.605230072558406E-101
   80.0793000000000        -2.240930420106539E-101
   80.3187000000000         1.307166919563317E-101
   80.5581000000000         8.022039373387534E-101
   80.7975000000000         1.877999058417088E-100
   81.0369000000000         3.394341709373082E-100
   81.2763000000000         5.272788941865023E-100
   81.5157000000000         7.233834815031381E-100
   81.7551000000000         8.694218905326637E-100
   81.9945000000000         8.666702974159743E-100
   82.2339000000000         5.698247041395964E-100
   82.4733000000000        -2.096031171809456E-100
   82.7127000000000        -1.682304317288524E-099
   82.9521000000000        -4.032839948294645E-099
   83.1915000000000        -7.333991218529268E-099
   83.4309000000000        -1.141670077664215E-098
   83.6703000000000        -1.569635539284833E-098
   83.9097000000000        -1.897099694089901E-098
   84.1491000000000        -1.923049021405496E-098
   84.3885000000000        -1.354803220434032E-098
   84.6279000000000         1.835600948184043E-099
   84.8673000000000         3.108540875135099E-098
   85.1067000000000         7.782614861489214E-098
   85.3461000000000         1.435039005130077E-097
   85.5855000000000         2.249439145554903E-097
   85.8249000000000         3.111449426980197E-097
   86.0643000000000         3.796235651352307E-097
   86.3037000000000         3.930394760184711E-097
   86.5431000000000         2.973916046008356E-097
   86.7825000000000         2.372685442214818E-098
   87.0219000000000        -5.040705660481375E-097
   87.2613000000000        -1.352453618659301E-096
   87.5007000000000        -2.549568580929705E-096
   87.7401000000000        -4.043173035352740E-096
   87.9795000000000        -5.646140088331816E-096
   88.2189000000000        -6.975164852682368E-096
   88.4583000000000        -7.395104401424202E-096
   88.6977000000000        -5.990267897094921E-096
   88.9371000000000        -1.594036171037205E-096
   89.1765000000000         7.082551620409483E-096
   89.4159000000000         2.117753516001013E-095
   89.6553000000000         4.121844310678777E-095
   89.8947000000000         6.645424962365555E-095
   90.1341000000000         9.399876480620212E-095
   90.3735000000000         1.178760890909983E-094
   90.6129000000000         1.281612591916061E-094
   90.8523000000000         1.105398365906393E-094
   91.0917000000000         4.675437600874929E-095
   91.3311000000000        -8.346659166172683E-095
   91.5705000000000        -2.983395169335833E-094
   91.8099000000000        -6.072328743604867E-094
   92.0493000000000        -1.000862550654428E-093
   92.2887000000000        -1.438799222953720E-093
   92.5281000000000        -1.835615681734007E-093
   92.7675000000000        -2.048428412099721E-093
   93.0069000000000        -1.870371195074786E-093
   93.2463000000000        -1.036465502740806E-093
   93.4857000000000         7.499942492084652E-094
   93.7251000000000         3.761705348435928E-093
   93.9645000000000         8.154568265008289E-093
   94.2039000000000         1.383422945429295E-092
   94.4433000000000         2.028652789167960E-092
   94.6827000000000         2.638961063182718E-092
   94.9221000000000         3.024392218582128E-092
   95.1615000000000         2.907897892756367E-092
   95.4009000000000         1.931996716994745E-092
   95.6403000000000        -3.082583214518284E-093
   95.8797000000000        -4.194874352572677E-092
   96.1191000000000        -9.969466167616335E-092
   96.3585000000000        -1.756431298970873E-091
   96.5979000000000        -2.638761319730905E-091
   96.8373000000000        -3.508472028958757E-091
   97.0767000000000        -4.131936751358331E-091
   97.3161000000000        -4.164594567166032E-091
   97.5555000000000        -3.157231448867539E-091
   97.7949000000000        -5.936091325736890E-092
   98.0343000000000         4.027367439205246E-091
   98.2737000000000         1.105357004432465E-090
   98.5131000000000         2.048027873489594E-090
   98.7525000000000         3.169577414669152E-090
   98.9919000000000         4.319643167994470E-090
   99.2313000000000         5.232091040316073E-090
   99.4707000000000         5.508330494822601E-090
   99.7101000000000         4.621672143306006E-090
   99.9495000000000         1.956471322110259E-090
   100.188900000000        -3.103195111521449E-090
   100.428300000000        -1.102250817976679E-089
   100.667700000000        -2.189615183749541E-089
   100.907100000000        -3.516583047479383E-089
   101.146500000000        -4.930048618495071E-089
   101.385900000000        -6.149112812239879E-089
   101.625300000000        -6.744408925069390E-089
   101.864700000000        -6.138978449638072E-089
   102.104100000000        -3.645155512042384E-089
   102.343500000000         1.446950368553911E-089
   102.582900000000         9.715622169490343E-089
   102.822300000000         2.138094424132687E-088
   103.061700000000         3.601035666207580E-088
   103.301100000000         5.218056382102286E-088
   103.540500000000         6.714632966015617E-088
   103.779900000000         7.659842931064678E-088
   104.019300000000         7.462625904679463E-088
   104.258700000000         5.402853269381357E-088
   104.498100000000         7.128171906546745E-089
   104.737500000000        -7.276784097377340E-088
   104.976900000000        -1.891806727369614E-087
   105.216300000000        -3.395750057360232E-087
   105.455700000000        -5.119886231464843E-087
   105.695100000000        -6.816337218720436E-087
   105.934500000000        -8.082261159313559E-087
   106.173900000000        -8.351142176687341E-087
   106.413300000000        -6.915514887853287E-087
   106.652700000000        -2.995949020924783E-087
   106.892100000000         4.129964221319955E-087
   107.131500000000         1.492973117778824E-086
   107.370900000000         2.935014523098426E-086
   107.610300000000         4.650026632459655E-086
   107.849700000000         6.432167546247446E-086
   108.089100000000         7.931111295083006E-086
   108.328500000000         8.638916077286781E-086
   108.567900000000         7.903397741649604E-086
   108.807300000000         4.981371525773939E-086
   109.046700000000        -8.554543752414123E-087
   109.286100000000        -1.015287345306988E-085
   109.525500000000        -2.304374609876569E-085
   109.764900000000        -3.896657440166086E-085
   110.004300000000        -5.636307587110052E-085
   110.243700000000        -7.240725090002518E-085
   110.483100000000        -8.284302749887909E-085
   110.722500000000        -8.203018501004597E-085
   110.961900000000        -6.331290324626291E-085
   111.201300000000        -1.982415632465680E-085
   111.440700000000         5.418669696711536E-085
   111.680100000000         1.614752866681254E-084
   111.919500000000         2.994448015791659E-084
   112.158900000000         4.575249445113120E-084
   112.398300000000         6.146829254410290E-084
   112.637700000000         7.376637894499845E-084
   112.877100000000         7.807501400334856E-084
   113.116500000000         6.879699305150698E-084
   113.355900000000         3.987058473335018E-084
   113.595300000000        -1.424987081805138E-084
   113.834700000000        -9.715546906891191E-084
   114.074100000000        -2.086205947431759E-083
   114.313500000000        -3.424576592458513E-083
   114.552900000000        -4.843664953291343E-083
   114.792300000000        -6.102135506420309E-083
   115.031700000000        -6.853326283505365E-083
   115.271100000000        -6.655625133815448E-083
   115.510500000000        -5.007841212602731E-083
   115.749900000000        -1.416392752140353E-083
   115.989300000000         4.501490216424525E-083
   116.228700000000         1.287925530962207E-082
   116.468100000000         2.343536679462702E-082
   116.707500000000         3.529853938937655E-082
   116.946900000000         4.685358663216545E-082
   117.186300000000         5.564970868177812E-082
   117.425700000000         5.842341224494918E-082
   117.665100000000         5.129390462194875E-082
   117.904500000000         3.018609800356212E-082
   118.143900000000        -8.478622276228043E-083
   118.383300000000        -6.681455646807019E-082
   118.622700000000        -1.442665450305210E-081
   118.862100000000        -2.362746575088047E-081
   119.101500000000        -3.329980429213409E-081
   119.340900000000        -4.183761152657313E-081
   119.580300000000        -4.698870518644029E-081
   119.819700000000        -4.594188947296520E-081
   120.059100000000        -3.556729558273693E-081
   120.298500000000        -1.284455117219561E-081
   120.537900000000         2.450443277357703E-081
   120.777300000000         7.719149603072579E-081
   121.016700000000         1.434037901712243E-080
   121.256100000000         2.178223459479655E-080
   121.495500000000         2.907909119769632E-080
   121.734900000000         3.478690347372182E-080
   121.974300000000         3.700510023637717E-080
   122.213700000000         3.349513327368084E-080
   122.453100000000         2.192299722681251E-080
   122.692500000000         2.438022515874026E-082
   122.931900000000        -3.277076568683594E-080
   123.171300000000        -7.688731996342985E-080
   123.410700000000        -1.297076384044215E-079
   123.650100000000        -1.860077773035897E-079
   123.889500000000        -2.372620500758066E-079
   124.128900000000        -2.715316843102849E-079
   124.368300000000        -2.739206643997255E-079
   124.607700000000        -2.277982031365933E-079
   124.847100000000        -1.169464348306396E-079
   125.086500000000         7.129771085577350E-080
   125.325900000000         3.419833832691361E-079
   125.565300000000         6.878494179815625E-079
   125.804700000000         1.084521944518040E-078
   126.044100000000         1.486414898059454E-078
   126.283500000000         1.824409302629174E-078
   126.522900000000         2.006590758462695E-078
   126.762300000000         1.923398286023540E-078
   127.001700000000         1.458406728532408E-078
   127.241100000000         5.055553960724665E-079
   127.480500000000        -1.007111969061316E-078
   127.719900000000        -3.088244505235203E-078
   127.959300000000        -5.651024122740913E-078
   128.198700000000        -8.482259320242753E-078
   128.438100000000        -1.121871911077831E-077
   128.677500000000        -1.333826081061704E-077
   128.916900000000        -1.417429811557470E-077
   129.156300000000        -1.296213592897640E-077
   129.395700000000        -8.924201147079329E-078
   129.635100000000        -1.397799669472204E-078
   129.874500000000         9.996564261679463E-078
   130.113900000000         2.515611345487326E-077
   130.353300000000         4.328556402781056E-077
   130.592700000000         6.270629443717271E-077
   130.832100000000         8.072630667416002E-077
   131.071500000000         9.362117356804663E-077
   131.310900000000         9.678055367445093E-077
   131.550300000000         8.507209343601681E-077
   131.789700000000         5.346185692740056E-077
   132.029100000000        -2.094536766670983E-078
   132.268500000000        -8.351452012276439E-077
   132.507900000000        -1.892814422842823E-076
   132.747300000000        -3.131071511180976E-076
   132.986700000000        -4.427721114407383E-076
   133.226100000000        -5.594158836118587E-076
   133.465500000000        -6.376003180469324E-076
   133.704900000000        -6.464869001248099E-076
   133.944300000000        -5.524416180336312E-076
   134.183700000000        -3.232890497332413E-076
   134.423100000000         6.573145634020724E-077
   134.662500000000         6.245077366148734E-076
   134.901900000000         1.339629320491534E-075
   135.141300000000         2.165926600808093E-075
   135.380700000000         3.019332478763661E-075
   135.620100000000         3.772822308537102E-075
   135.859500000000         4.257482269628049E-075
   136.098900000000         4.270853553765987E-075
   136.338300000000         3.594496365845184E-075
   136.577700000000         2.022111598906234E-075
   136.817100000000        -6.015347069574010E-076
   137.056500000000        -4.332262630505803E-075
   137.295900000000        -9.072218317929918E-075
   137.535300000000        -1.451575082518374E-074
   137.774700000000        -2.010418697304022E-074
   138.014100000000        -2.500080382178740E-074
   138.253500000000        -2.809917878513069E-074
   138.492900000000        -2.807872142379671E-074
   138.732300000000        -2.351988842783534E-074