  -1.79550000000000         0.000000000000000E+000
  -1.55610000000000         0.000000000000000E+000
  -1.31670000000000         0.000000000000000E+000
  -1.07730000000000         0.000000000000000E+000
 -0.837900000000000         0.000000000000000E+000
 -0.598500000000000         0.000000000000000E+000
 -0.359100000000000         0.000000000000000E+000
 -0.119700000000000         0.000000000000000E+000
  0.119700000000000         0.000000000000000E+000
  0.359100000000000         0.000000000000000E+000
  0.598500000000000         0.000000000000000E+000
  0.837900000000000         0.000000000000000E+000
   1.07730000000000         0.000000000000000E+000
   1.31670000000000         0.000000000000000E+000
   1.55610000000000         0.000000000000000E+000
   1.79550000000000         0.000000000000000E+000
   2.03490000000000         0.000000000000000E+000
   2.27430000000000         0.000000000000000E+000
   2.51370000000000         0.000000000000000E+000
   2.75310000000000         0.000000000000000E+000
   2.99250000000000         0.000000000000000E+000
   3.23190000000000         0.000000000000000E+000
   3.47130000000000         0.000000000000000E+000
   3.71070000000000         0.000000000000000E+000
   3.95010000000000         0.000000000000000E+000
   4.18950000000000         0.000000000000000E+000
   4.42890000000000         0.000000000000000E+000
   4.66830000000000         0.000000000000000E+000
   4.90770000000000         0.000000000000000E+000
   5.14710000000000         0.000000000000000E+000
   5.38650000000000         0.000000000000000E+000
   5.62590000000000         0.000000000000000E+000
   5.86530000000000         0.000000000000000E+000
   6.10470000000000         0.000000000000000E+000
   6.34410000000000         0.000000000000000E+000
   6.58350000000000         0.000000000000000E+000
   6.82290000000000         0.000000000000000E+000
   7.06230000000000         0.000000000000000E+000
   7.30170000000000         0.000000000000000E+000
   7.54110000000000         0.000000000000000E+000
   7.78050000000000         0.000000000000000E+000
   8.01990000000000         0.000000000000000E+000
   8.25930000000000         0.000000000000000E+000
   8.49870000000000         0.000000000000000E+000
   8.73810000000000         0.000000000000000E+000
   8.97750000000000         0.000000000000000E+000
   9.21690000000000         0.000000000000000E+000
   9.45630000000000         0.000000000000000E+000
   9.69570000000000         0.000000000000000E+000
   9.93510000000000         0.000000000000000E+000
   10.1745000000000         0.000000000000000E+000
   10.4139000000000         0.000000000000000E+000
   10.6533000000000         0.000000000000000E+000
   10.8927000000000         0.000000000000000E+000
   11.1321000000000        -7.585465300843759E-229
   11.3715000000000        -9.959618221017363E-224
   11.6109000000000         3.188530081531095E-221
   11.8503000000000        -5.309076824172891E-219
   12.0897000000000        -6.947137754214562E-217
   12.3291000000000        -6.225625529416315E-215
   12.5685000000000        -3.643982344166392E-213
   12.8079000000000         4.153469424014965E-209
   13.0473000000000        -1.572811825303805E-203
   13.2867000000000         6.398114670047568E-202
   13.5261000000000         1.452138674928848E-199
   13.7655000000000         8.326150143418081E-198
   14.0049000000000         2.743618435712030E-196
   14.2443000000000         6.058666504524064E-195
   14.4837000000000         9.260275482974548E-194
   14.7231000000000         9.102881607189311E-193
   14.9625000000000         3.436408264144738E-192
   15.2019000000000        -3.948255163350073E-191
   15.4413000000000        -4.509767443730873E-191
   15.6807000000000         3.212908300177736E-188
   15.9201000000000         1.083644402343794E-186
   16.1595000000000         2.291465026578746E-185
   16.3989000000000         3.774948512585109E-184
   16.6383000000000         5.233446420699249E-183
   16.8777000000000         6.347419503084741E-182
   17.1171000000000         6.893595085161482E-181
   17.3565000000000         6.809007560814954E-180
   17.5959000000000         6.185253653958324E-179
   17.8353000000000         5.211067804489807E-178
   18.0747000000000         4.098809394016285E-177
   18.3141000000000         3.025901509286326E-176
   18.5535000000000         2.105739428415585E-175
   18.7929000000000         1.386341372889518E-174
   19.0323000000000         8.660700749279100E-174
   19.2717000000000         5.146773448574246E-173
   19.5111000000000         2.915447755600349E-172
   19.7505000000000         1.576794252591838E-171
   19.9899000000000         8.152349731587206E-171
   20.2293000000000         4.032626267588905E-170
   20.4687000000000         1.909199584758464E-169
   20.7081000000000         8.649614083802067E-169
   20.9475000000000         3.746651997828736E-168
   21.1869000000000         1.548772305759533E-167
   21.4263000000000         6.089632257166854E-167
   21.6657000000000         2.264530873632764E-166
   21.9051000000000         7.884987716481934E-166
   22.1445000000000         2.522717034951804E-165
   22.3839000000000         7.120172893251299E-165
   22.6233000000000         1.579739984221900E-164
   22.8627000000000         1.334580171043500E-164
   23.1021000000000        -1.274861680625554E-163
   23.3415000000000        -1.112120448420658E-162
   23.5809000000000        -6.250575484009240E-162
   23.8203000000000        -2.959420719145515E-161
   24.0597000000000        -1.266245280660881E-160
   24.2991000000000        -5.039624848720009E-160
   24.5385000000000        -1.892955373242292E-159
   24.7779000000000        -6.764385176893771E-159
   25.0173000000000        -2.310151435424016E-158
   25.2567000000000        -7.558047006591007E-158
   25.4961000000000        -2.370620467168242E-157
   25.7355000000000        -7.123235154281295E-157
   25.9749000000000        -2.045504325168563E-156
   26.2143000000000        -5.586764095977469E-156
   26.4537000000000        -1.438870764647397E-155
   26.6931000000000        -3.439193171658788E-155
   26.9325000000000        -7.381869909549362E-155
   27.1719000000000        -1.307204701275442E-154
   27.4113000000000        -1.309737961272571E-154
   27.6507000000000         3.074277799449576E-154
   27.8901000000000         2.658092632150300E-153
   28.1295000000000         1.187043934795631E-152
   28.3689000000000         4.313811434601431E-152
   28.6083000000000         1.399994153020212E-151
   28.8477000000000         4.201220581038914E-151
   29.0871000000000         1.184901747536464E-150
   29.3265000000000         3.167088909198944E-150
   29.5659000000000         8.055550343694299E-150
   29.8053000000000         1.952608055919285E-149
   30.0447000000000         4.507772014803985E-149
   30.2841000000000         9.886904600438530E-149
   30.5235000000000         2.050939444021121E-148
   30.7629000000000         3.996173199890540E-148
   31.0023000000000         7.243830448539918E-148
   31.2417000000000         1.207868381384163E-147
   31.4811000000000         1.843793962662458E-147
   31.7205000000000         2.685803689887723E-147
   31.9599000000000         4.570196785939164E-147
   32.1993000000000         1.220877455703339E-146
   32.4387000000000         4.479933098473063E-146
   32.6781000000000         1.678721778004201E-145
   32.9175000000000         5.798373687134664E-145
   33.1569000000000         1.828112201564824E-144
   33.3963000000000         5.306973146774298E-144
   33.6357000000000         1.430924900504173E-143
   33.8751000000000         3.602279174603867E-143
   34.1145000000000         8.475518768546700E-143
   34.3539000000000         1.855890992199903E-142
   34.5933000000000         3.735412860119522E-142
   34.8327000000000         6.709710414648018E-142
   35.0721000000000         9.937385811779627E-142
   35.3115000000000         8.597721841619842E-142
   35.5509000000000        -1.395783388272704E-141
   35.7903000000000        -1.054235968237148E-140
   36.0297000000000        -3.881758047001855E-140
   36.2691000000000        -1.151891490145069E-139
   36.5085000000000        -3.037502586831840E-139
   36.7479000000000        -7.377229158109780E-139
   36.9873000000000        -1.677106136054637E-138
   37.2267000000000        -3.595347131709004E-138
   37.4661000000000        -7.284846836609390E-138
   37.7055000000000        -1.392427488300807E-137
   37.9449000000000        -2.493834533246126E-137
   38.1843000000000        -4.124744758011779E-137
   38.4237000000000        -6.107746890876275E-137
   38.6631000000000        -7.482308095752721E-137
   38.9025000000000        -5.460063811849693E-137
   39.1419000000000         6.444486242383579E-137
   39.3813000000000         4.128725969599466E-136
   39.6207000000000         1.221217627394120E-135
   39.8601000000000         2.836710292298861E-135
   40.0995000000000         5.655379946847288E-135
   40.3389000000000         9.812204406137122E-135
   40.5783000000000         1.430791837110169E-134
   40.8177000000000         1.499049671786254E-134
   41.0571000000000         4.691173494933583E-136
   41.2965000000000        -5.524124410468593E-134
   41.5359000000000        -2.043316927234058E-133
   41.7753000000000        -5.403122909370609E-133
   42.0147000000000        -1.210487645423409E-132
   42.2541000000000        -2.406822254747213E-132
   42.4935000000000        -4.289900109981744E-132
   42.7329000000000        -6.752875684670196E-132
   42.9723000000000        -8.855691047455158E-132
   43.2117000000000        -7.655781930761868E-132
   43.4511000000000         3.941218895368865E-132
   43.6905000000000         4.069561532662169E-131
   43.9299000000000         1.299901556681861E-130
   44.1693000000000         3.172374967915904E-130
   44.4087000000000         6.681263861580017E-130
   44.6481000000000         1.258693535292141E-129
   44.8875000000000         2.134423617992430E-129
   45.1269000000000         3.203926987436448E-129
   45.3663000000000         4.011292442146271E-129
   45.6057000000000         3.308765579402376E-129
   45.8451000000000        -1.656467283608852E-129
   46.0845000000000        -1.618455960341538E-128
   46.3239000000000        -4.937206977783786E-128
   46.5633000000000        -1.150344901198203E-127
   46.8027000000000        -2.309265350592597E-127
   47.0421000000000        -4.133764718749581E-127
   47.2815000000000        -6.620710756476625E-127
   47.5209000000000        -9.265029932659364E-127
   47.7603000000000        -1.042210613333054E-126
   47.9997000000000        -6.235255735267042E-127
   48.2391000000000         1.095123816979387E-126
   48.4785000000000         5.456127899018606E-126
   48.7179000000000         1.454841864003516E-125
   48.9573000000000         3.117931978308577E-125
   49.1967000000000         5.829279378377016E-125
   49.4361000000000         9.719171611008206E-125
   49.6755000000000         1.435399820115774E-124
   49.9149000000000         1.797241738298326E-124
   50.1543000000000         1.619793635634129E-124
   50.3937000000000         1.239001507063343E-126
   50.6331000000000        -4.611067679398555E-124
   50.8725000000000        -1.475948647693138E-123
   51.1119000000000        -3.390353146308057E-123
   51.3513000000000        -6.596691815943020E-123
   51.5907000000000        -1.136270020152362E-122
   51.8301000000000        -1.744071183013568E-122
   52.0695000000000        -2.331525235041288E-122
   52.3089000000000        -2.492841619160879E-122
   52.5483000000000        -1.376613627124530E-122
   52.7877000000000         2.562483912661585E-122
   53.0271000000000         1.181633997828885E-121
   53.2665000000000         2.993767901215678E-121
   53.5059000000000         6.121811196065924E-121
   53.7453000000000         1.093955993702029E-120
   53.9847000000000         1.745423664151344E-120
   54.2241000000000         2.469437974476839E-120
   54.4635000000000         2.965609949284841E-120
   54.7029000000000         2.568882818110470E-120
   54.9423000000000         3.236319086304030E-122
   55.1817000000000        -6.714111275219459E-120
   55.4211000000000        -2.073542220409911E-119
   55.6605000000000        -4.598890697472992E-119
   55.8999000000000        -8.657490717316007E-119
   56.1393000000000        -1.447341451485880E-118
   56.3787000000000        -2.167169775846522E-118
   56.6181000000000        -2.854287661218651E-118
   56.8575000000000        -3.087693699720741E-118
   57.0969000000000        -2.031775646620384E-118
   57.3363000000000         1.763748608889803E-118
   57.5757000000000         1.055001392806959E-117
   57.8151000000000         2.743499910037757E-117
   58.0545000000000         5.608533898530321E-117
   58.2939000000000         9.969536442559566E-117
   58.5333000000000         1.586512425251604E-116
   58.7727000000000         2.261245692200645E-116
   59.0121000000000         2.807319567666783E-116
   59.2515000000000         2.755829360536526E-116
   59.4909000000000         1.238294902799805E-116
   59.7303000000000        -3.172815583732653E-116
   59.9697000000000        -1.258199903947582E-115
   60.2091000000000        -2.972866029939995E-115
   60.4485000000000        -5.757297022619166E-115
   60.6879000000000        -9.817166961973829E-115
   60.9273000000000        -1.503626957016524E-114
   61.1667000000000        -2.056616274922085E-114
   61.4061000000000        -2.417795283603759E-114
   61.6455000000000        -2.134727371039047E-114
   61.8849000000000        -4.130521439262670E-115
   62.1243000000000         3.992662815355241E-114
   62.3637000000000         1.282802903925643E-113
   62.6031000000000         2.821927433837762E-113
   62.8425000000000         5.220333067468437E-113
   63.0819000000000         8.563666824961007E-113
   63.3213000000000         1.261264547392921E-112
   63.5607000000000         1.645916657428812E-112
   63.8001000000000         1.801613849119620E-112
   64.0395000000000         1.334934348065632E-112
   64.2789000000000        -4.054731606139891E-113
   64.5183000000000        -4.383175728606647E-112
   64.7577000000000        -1.185803148533563E-111
   64.9971000000000        -2.421130712908963E-111
   65.2365000000000        -4.247591196974133E-111
   65.4759000000000        -6.638769313562979E-111
   65.7153000000000        -9.274560367346053E-111
   65.9547000000000        -1.129000983846665E-110
   66.1941000000000        -1.093452896562182E-110
   66.4335000000000        -5.176499030094594E-111
   66.6729000000000         1.064066039639061E-110
   66.9123000000000         4.286830645112210E-110
   67.1517000000000         9.895665012835212E-110
   67.3911000000000         1.855878614170119E-109
   67.6305000000000         3.047123654481491E-109
   67.8699000000000         4.465238482619116E-109
   68.1093000000000         5.785177072479474E-109
   68.3487000000000         6.304015681591790E-109
   68.5881000000000         4.761423488363243E-109
   68.8275000000000        -8.269680128548529E-110
   69.0669000000000        -1.323506039059786E-108
   69.3063000000000        -3.583542654364837E-108
   69.5457000000000        -7.191324762287522E-108
   69.7851000000000        -1.231611622456222E-107
   70.0245000000000        -1.869790447869051E-107
   70.2639000000000        -2.522456696556033E-107
   70.5033000000000        -2.934641738051236E-107
   70.7427000000000        -2.637431242568004E-107
   70.9821000000000        -8.811603302062030E-108
   71.2215000000000         3.396333989483661E-107
   71.4609000000000         1.151131866112617E-106
   71.7003000000000         2.480197954608333E-106
   71.9397000000000         4.411067691475690E-106
   72.1791000000000         6.885311555350939E-106
   72.4185000000000         9.556419778441109E-106
   72.6579000000000         1.158918602124036E-105
   72.8973000000000         1.141971328472191E-105
   73.1367000000000         6.525708259222012E-106
   73.3761000000000        -6.690448218421182E-106
   73.6155000000000        -3.273089007962835E-105
   73.8549000000000        -7.628287305044741E-105
   74.0943000000000        -1.406091128880379E-104
   74.3337000000000        -2.246672391826715E-104
   74.5731000000000        -3.186420963236309E-104
   74.8125000000000        -3.978312456563742E-104
   75.0519000000000        -4.153856002058350E-104
   75.2913000000000        -2.953928113111470E-104
   75.5307000000000         7.071158541399819E-105
   75.7701000000000         8.194217818513613E-104
   76.0095000000000         2.094854251291042E-103
   76.2489000000000         4.003539298065603E-103
   76.4883000000000         6.534220794668200E-103
   76.7277000000000         9.434689872641137E-103
   76.9671000000000         1.204495056618941E-102
   77.2065000000000         1.310118503906390E-102
   77.4459000000000         1.055076953354284E-102
   77.6853000000000         1.456673568107631E-103
   77.9247000000000        -1.788105390693363E-102
   78.1641000000000        -5.140442145253025E-102
   78.4035000000000        -1.021492649454405E-101
   78.6429000000000        -1.702300510539511E-101
   78.8823000000000        -2.497791352298318E-101
   79.1217000000000        -3.248471694265409E-101
   79.3611000000000        -3.646405362768225E-101
   79.6005000000000        -3.190796329370428E-101
   79.8399000000000        -1.165349072648123E-101
   80.0793000000000         3.333032833935277E-101
   80.3187000000000         1.127294347228434E-100
   80.5581000000000         2.342417486720539E-100
   80.7975000000000         3.989909007916275E-100
   81.0369000000000         5.946382365114561E-100
   81.2763000000000         7.862598051505604E-100
   81.5157000000000         9.058672365826490E-100
   81.7551000000000         8.427491028931834E-100
   81.9945000000000         4.386229331834277E-100
   82.2339000000000        -5.061940411485213E-100
   82.4733000000000        -2.207114077377946E-099
   82.7127000000000        -4.839990457163760E-099
   82.9521000000000        -8.446221348484805E-099
   83.1915000000000        -1.279174198638742E-098
   83.4309000000000        -1.718222020197671E-098
   83.6703000000000        -2.025298714141869E-098
   83.9097000000000        -1.977742424953270E-098
   84.1491000000000        -1.257182886562630E-098
   84.3885000000000         5.384434677887071E-099
   84.6279000000000         3.845446427688851E-098
   84.8673000000000         9.028948579135226E-098
   85.1067000000000         1.620368926856467E-097
   85.3461000000000         2.497030649626254E-097
   85.5855000000000         3.407294099629321E-097
   85.8249000000000         4.101351767624830E-097
   86.0643000000000         4.170272117869787E-097
   86.3037000000000         3.028703892052554E-097
   86.5431000000000        -6.400470038644186E-099
   86.7825000000000        -5.916937875016511E-097
   87.0219000000000        -1.522375504450102E-096
   87.2613000000000        -2.825274654271770E-096
   87.5007000000000        -4.439442355148776E-096
   87.7401000000000        -6.157875802234593E-096
   87.9795000000000        -7.562333747719255E-096
   88.2189000000000        -7.964634517622711E-096
   88.4583000000000        -6.377268484940929E-096
   88.6977000000000        -1.546815008587830E-096
   88.9371000000000         7.906582540125102E-096
   89.1765000000000         2.319515461099776E-095
   89.4159000000000         4.487078094028520E-095
   89.6553000000000         7.211042067585485E-095
   89.8947000000000         1.018012730859388E-094
   90.1341000000000         1.275224586620347E-094
   90.3735000000000         1.386288617017434E-094
   90.6129000000000         1.197814026759398E-094
   90.8523000000000         5.142098763095337E-095
   91.0917000000000        -8.818108346239200E-095
   91.3311000000000        -3.185975097574600E-094
   91.5705000000000        -6.500228760767966E-094
   91.8099000000000        -1.072846345674641E-093
   92.0493000000000        -1.544356473745079E-093
   92.2887000000000        -1.973977074032608E-093
   92.5281000000000        -2.209941429228203E-093
   92.7675000000000        -2.032199238748306E-093
   93.0069000000000        -1.158392015163901E-093
   93.2463000000000         7.285110616786024E-094
   93.4857000000000         3.921551063028911E-093
   93.7251000000000         8.591895939272851E-093
   93.9645000000000         1.464782130157828E-092
   94.2039000000000         2.155523814608042E-092
   94.4433000000000         2.813831972205527E-092
   94.6827000000000         3.239818071823693E-092
   94.9221000000000         3.141147199458021E-092
   95.1615000000000         2.139619225489574E-092
   95.4009000000000        -1.946608015394429E-093
   95.6403000000000        -4.269788827505234E-092
   95.8797000000000        -1.034907919898787E-091
   96.1191000000000        -1.837381103644397E-091
   96.3585000000000        -2.773750574161794E-091
   96.5979000000000        -3.703436424150144E-091
   96.8373000000000        -4.382773580451797E-091
   97.0767000000000        -4.451279378999991E-091
   97.3161000000000        -3.437732658374947E-091
   97.5555000000000        -7.989124716177105E-092
   97.7949000000000         3.995209873703779E-091
   98.0343000000000         1.131791369224051E-090
   98.2737000000000         2.117813122699944E-090
   98.5131000000000         3.295522303517437E-090
   98.7525000000000         4.510155477831807E-090
   98.9919000000000         5.486432548610904E-090
   99.2313000000000         5.810951101408859E-090
   99.4707000000000         4.936351509767184E-090
   99.7101000000000         2.221495150291314E-090
   99.9495000000000        -2.977078793431266E-090
   100.188900000000        -1.114918150665777E-089
   100.428300000000        -2.240392206397286E-089
   100.667700000000        -3.617785128424960E-089
   100.907100000000        -5.090464964203610E-089
   101.146500000000        -6.370001324054597E-089
   101.385900000000        -7.014819029845561E-089
   101.625300000000        -6.431067480418271E-089
   101.864700000000        -3.910551533469774E-089
   102.104100000000         1.278322582282999E-089
   102.343500000000         9.732597065432066E-089
   102.582900000000         2.168241748553575E-088
   102.822300000000         3.668961979181771E-088
   103.061700000000         5.330241563838006E-088
   103.301100000000         6.871827611795631E-088
   103.540500000000         7.853942611917113E-088
   103.779900000000         7.673896442564555E-088
   104.019300000000         5.598349843847724E-088
   104.258700000000         8.470142854112550E-089
   104.498100000000        -7.258121058619269E-088
   104.737500000000        -1.906998471935510E-087
   104.976900000000        -3.432375108977028E-087
   105.216300000000        -5.179641888475909E-087
   105.455700000000        -6.896579338037723E-087
   105.695100000000        -8.174614466911122E-087
   105.934500000000        -8.440934376374808E-087
   106.173900000000        -6.982693864090556E-087
   106.413300000000        -3.018134926011882E-087
   106.652700000000         4.171839984606141E-087
   106.892100000000         1.504321294862157E-086
   107.131500000000         2.952125762149486E-086
   107.370900000000         4.668361566107744E-086
   107.610300000000         6.443383171799213E-086
   107.849700000000         7.923176115897114E-086
   108.089100000000         8.597545447093305E-086
   108.328500000000         7.815359372235182E-086
   108.567900000000         4.840066846947826E-086
   108.807300000000        -1.042089201251916E-086
   109.046700000000        -1.035273741837763E-085
   109.286100000000        -2.319073244655746E-085
   109.525500000000        -3.895321707043641E-085
   109.764900000000        -5.603967825323680E-085
   110.004300000000        -7.159264782816362E-085
   110.243700000000        -8.135274784602353E-085
   110.483100000000        -7.972732484875714E-085
   110.722500000000        -6.018485912827595E-085
   110.961900000000        -1.608387268491309E-085
   111.201300000000         5.798362617334801E-085
   111.440700000000         1.643165718449400E-084
   111.680100000000         2.997820433399582E-084
   111.919500000000         4.532740579056903E-084
   112.158900000000         6.033615421043045E-084
   112.398300000000         7.167289803813251E-084
   112.637700000000         7.481949135251999E-084
   112.877100000000         6.432146725949107E-084
   113.116500000000         3.437747798528427E-084
   113.355900000000        -2.016009594039047E-084
   113.595300000000        -1.023456929017768E-083
   113.834700000000        -2.113097168706086E-083
   114.074100000000        -3.401913593284301E-083
   114.313500000000        -4.741262801599674E-083
   114.552900000000        -5.887327519185415E-083
   114.792300000000        -6.496863447550127E-083
   115.031700000000        -6.140804176668403E-083
   115.271100000000        -4.342939370093721E-083
   115.510500000000        -6.497880163528291E-084
   115.749900000000         5.265152385156782E-083
   115.989300000000         1.346480308913433E-082
   116.228700000000         2.358921702799909E-082
   116.468100000000         3.469315152321565E-082
   116.707500000000         4.511136542689189E-082
   116.946900000000         5.239377509165732E-082
   117.186300000000         5.336153133501259E-082
   117.425700000000         4.433861529385737E-082
   117.665100000000         2.160809379901650E-082
   117.904500000000        -1.787599848601303E-082
   118.143900000000        -7.552423792470736E-082
   118.383300000000        -1.499495575625460E-081
   118.622700000000        -2.357301267168453E-081
   118.862100000000        -3.223005313651266E-081
   119.101500000000        -3.932570201087444E-081
   119.340900000000        -4.264325635988843E-081
   119.580300000000        -3.951344730884566E-081
   119.819700000000        -2.709168421313891E-081
   120.059100000000        -2.815618145488950E-082
   120.298500000000         3.495117109295525E-081
   120.537900000000         8.611664636296345E-081
   120.777300000000         1.479711484145704E-080
   121.016700000000         2.143379297528366E-080
   121.256100000000         2.749472907818312E-080
   121.495500000000         3.152698563214599E-080
   121.734900000000         3.170772400695481E-080
   121.974300000000         2.599962105333223E-080
   122.213700000000         1.242682504551042E-080
   122.453100000000        -1.051958149161030E-080
   122.692500000000        -4.335774967962499E-080
   122.931900000000        -8.501210513862176E-080
   123.171300000000        -1.322052526053490E-079
   123.410700000000        -1.789568307887694E-079
   123.650100000000        -2.163372792347203E-079
   123.889500000000        -2.326502394101372E-079
   124.128900000000        -2.142230962703133E-079
   124.368300000000        -1.469600559466185E-079
   124.607700000000        -1.874572813009696E-080
   124.847100000000         1.773282760261068E-079
   125.086500000000         4.391079500834911E-079
   125.325900000000         7.512986352763585E-079
   125.565300000000         1.081808790320031E-078
   125.804700000000         1.379395538314739E-078
   126.044100000000         1.573676933437976E-078
   126.283500000000         1.578653356384767E-078
   126.522900000000         1.300784535393320E-078
   126.762300000000         6.523347602155007E-079
   127.001700000000        -4.299242722801538E-079
   127.241100000000        -1.961497849886575E-078
   127.480500000000        -3.884505360131211E-078
   127.719900000000        -6.043053663581689E-078
   127.959300000000        -8.164579583229833E-078
   128.198700000000        -9.853326350848958E-078
   128.438100000000        -1.060280997715670E-077
   128.677500000000        -9.833908005133883E-078
   128.916900000000        -6.963685851040333E-078
   129.156300000000        -1.506946576458317E-078
   129.395700000000         6.792424443786037E-078
   129.635100000000         1.780987914035050E-077
   129.874500000000         3.088589089175776E-077
   130.113900000000         4.469483470536259E-077
   130.353300000000         5.717064477356574E-077
   130.592700000000         6.552800279691699E-077
   130.832100000000         6.641849757463051E-077
   131.071500000000         5.625529827688543E-077
   131.310900000000         3.172553501970757E-077
   131.550300000000        -9.514423020644134E-078
   131.789700000000        -6.799930884738059E-077
   132.029100000000        -1.415512392450594E-076
   132.268500000000        -2.244384703645564E-076
   132.507900000000        -3.067677660327726E-076
   132.747300000000        -3.743162221012014E-076
   132.986700000000        -4.090230831144959E-076
   133.226100000000        -3.903457954773963E-076
   133.465500000000        -2.976269192532917E-076
   133.704900000000        -1.135118431062476E-076
   133.944300000000         1.717012355297360E-076
   134.183700000000         5.551031848427951E-076
   134.423100000000         1.016170069338559E-075
   134.662500000000         1.512521284635519E-075
   134.901900000000         1.977462654258293E-075
   135.141300000000         2.320475161742561E-075
   135.380700000000         2.431816267692955E-075
   135.620100000000         2.192221063345990E-075
   135.859500000000         1.488278100586513E-075
   136.098900000000         2.333810431820579E-076
   136.338300000000        -1.606776589700891E-075
   136.577700000000        -3.986348271723361E-075
   136.817100000000        -6.752585169971074E-075
   137.056500000000        -9.624907993806276E-075
   137.295900000000        -1.218554683270035E-074
   137.535300000000        -1.388805142780557E-074
   137.774700000000        -1.408978136490209E-074
   138.014100000000        -1.211327363877870E-074
   138.253500000000        -7.338928464576300E-075
   138.492900000000         6.723773561855264E-076
   138.732300000000         1.203332674755251E-074