  -1.79550000000000         0.000000000000000E+000
  -1.55610000000000         0.000000000000000E+000
  -1.31670000000000         0.000000000000000E+000
  -1.07730000000000         0.000000000000000E+000
 -0.837900000000000         0.000000000000000E+000
 -0.598500000000000         0.000000000000000E+000
 -0.359100000000000         0.000000000000000E+000
 -0.119700000000000         0.000000000000000E+000
  0.119700000000000         0.000000000000000E+000
  0.359100000000000         0.000000000000000E+000
  0.598500000000000         0.000000000000000E+000
  0.837900000000000         0.000000000000000E+000
   1.07730000000000         0.000000000000000E+000
   1.31670000000000         0.000000000000000E+000
   1.55610000000000         0.000000000000000E+000
   1.79550000000000         0.000000000000000E+000
   2.03490000000000         0.000000000000000E+000
   2.27430000000000         0.000000000000000E+000
   2.51370000000000         0.000000000000000E+000
   2.75310000000000         0.000000000000000E+000
   2.99250000000000         0.000000000000000E+000
   3.23190000000000         0.000000000000000E+000
   3.47130000000000         0.000000000000000E+000
   3.71070000000000         0.000000000000000E+000
   3.95010000000000         0.000000000000000E+000
   4.18950000000000         0.000000000000000E+000
   4.42890000000000         0.000000000000000E+000
   4.66830000000000         0.000000000000000E+000
   4.90770000000000         0.000000000000000E+000
   5.14710000000000         0.000000000000000E+000
   5.38650000000000         0.000000000000000E+000
   5.62590000000000         0.000000000000000E+000
   5.86530000000000         0.000000000000000E+000
   6.10470000000000         0.000000000000000E+000
   6.34410000000000         0.000000000000000E+000
   6.58350000000000         0.000000000000000E+000
   6.82290000000000         0.000000000000000E+000
   7.06230000000000         0.000000000000000E+000
   7.30170000000000         0.000000000000000E+000
   7.54110000000000         0.000000000000000E+000
   7.78050000000000         0.000000000000000E+000
   8.01990000000000         0.000000000000000E+000
   8.25930000000000         0.000000000000000E+000
   8.49870000000000         0.000000000000000E+000
   8.73810000000000         0.000000000000000E+000
   8.97750000000000         0.000000000000000E+000
   9.21690000000000         0.000000000000000E+000
   9.45630000000000         0.000000000000000E+000
   9.69570000000000         0.000000000000000E+000
   9.93510000000000         0.000000000000000E+000
   10.1745000000000         0.000000000000000E+000
   10.4139000000000         0.000000000000000E+000
   10.6533000000000         0.000000000000000E+000
   10.8927000000000         0.000000000000000E+000
   11.1321000000000         0.000000000000000E+000
   11.3715000000000         0.000000000000000E+000
   11.6109000000000         4.708452425436523E-246
   11.8503000000000        -9.311534163545536E-235
   12.0897000000000        -1.868637233675467E-232
   12.3291000000000         2.234746458509072E-229
   12.5685000000000        -1.446801293833035E-215
   12.8079000000000         9.448149887589203E-208
   13.0473000000000         1.819404138424123E-206
   13.2867000000000        -1.120907208439538E-203
   13.5261000000000        -8.342691108584079E-202
   13.7655000000000        -2.615487310976558E-200
   14.0049000000000        -2.913482026442257E-199
   14.2443000000000         9.609843963126729E-198
   14.4837000000000         5.946336821923583E-196
   14.7231000000000         1.800943734959015E-194
   14.9625000000000         3.981982821279200E-193
   15.2019000000000         7.135627324927390E-192
   15.4413000000000         1.087867275882695E-190
   15.6807000000000         1.451956370533319E-189
   15.9201000000000         1.729401020747104E-188
   16.1595000000000         1.863995131080004E-187
   16.3989000000000         1.837446118551721E-186
   16.6383000000000         1.670534039044871E-185
   16.8777000000000         1.410355427986403E-184
   17.1171000000000         1.111941825363452E-183
   17.3565000000000         8.225571549655969E-183
   17.5959000000000         5.732107832693323E-182
   17.8353000000000         3.775738082949885E-181
   18.0747000000000         2.357691698435941E-180
   18.3141000000000         1.399080112986897E-179
   18.5535000000000         7.906389869510002E-179
   18.7929000000000         4.262419847515804E-178
   19.0323000000000         2.195337418803373E-177
   19.2717000000000         1.081445144619398E-176
   19.5111000000000         5.099422729838817E-176
   19.7505000000000         2.302818896873098E-175
   19.9899000000000         9.960072339023258E-175
   20.2293000000000         4.124452387390417E-174
   20.4687000000000         1.633579558045209E-173
   20.7081000000000         6.176985084718364E-173
   20.9475000000000         2.222780523989824E-172
   21.1869000000000         7.571587406055034E-172
   21.4263000000000         2.419093220370254E-171
   21.6657000000000         7.126707344812825E-171
   21.9051000000000         1.867564162081517E-170
   22.1445000000000         3.950921175652005E-170
   22.3839000000000         4.105936415889028E-170
   22.6233000000000        -1.942127609657228E-169
   22.8627000000000        -1.770277164988104E-168
   23.1021000000000        -9.454489771410767E-168
   23.3415000000000        -4.199619517458733E-167
   23.5809000000000        -1.685641167499497E-166
   23.8203000000000        -6.323928071705438E-166
   24.0597000000000        -2.257001273802102E-165
   24.2991000000000        -7.744832402694846E-165
   24.5385000000000        -2.573007570949533E-164
   24.7779000000000        -8.314353238103093E-164
   25.0173000000000        -2.620773892403059E-163
   25.2567000000000        -8.069317797553732E-163
   25.4961000000000        -2.426555563702977E-162
   25.7355000000000        -7.114282482792250E-162
   25.9749000000000        -2.026203231528480E-161
   26.2143000000000        -5.571698350289906E-161
   26.4537000000000        -1.464561566285450E-160
   26.6931000000000        -3.617305183763159E-160
   26.9325000000000        -8.118040914318960E-160
   27.1719000000000        -1.523462425855230E-159
   27.4113000000000        -1.678330145894753E-159
   27.6507000000000         3.685772076209858E-159
   27.8901000000000         3.599143448896805E-158
   28.1295000000000         1.751299597705497E-157
   28.3689000000000         6.935912360580482E-157
   28.6083000000000         2.462350181848357E-156
   28.8477000000000         8.122591057355452E-156
   29.0871000000000         2.532340550236750E-155
   29.3265000000000         7.529461685915776E-155
   29.5659000000000         2.145812899548882E-154
   29.8053000000000         5.876537755241424E-154
   30.0447000000000         1.547794845009638E-153
   30.2841000000000         3.918001671182096E-153
   30.5235000000000         9.509214479262790E-153
   30.7629000000000         2.202630111593795E-152
   31.0023000000000         4.829115701538498E-152
   31.2417000000000         9.871142988537117E-152
   31.4811000000000         1.824706201226155E-151
   31.7205000000000         2.827619024165007E-151
   31.9599000000000         2.704164517266545E-151
   32.1993000000000        -3.519150836177641E-151
   32.4387000000000        -3.134197014021356E-150
   32.6781000000000        -1.237343483948800E-149
   32.9175000000000        -3.903286277993537E-149
   33.1569000000000        -1.092247139073683E-148
   33.3963000000000        -2.812977866812324E-148
   33.6357000000000        -6.773860034550706E-148
   33.8751000000000        -1.534911191899530E-147
   34.1145000000000        -3.273844043809079E-147
   34.3539000000000        -6.538050135662507E-147
   34.5933000000000        -1.206174755158758E-146
   34.8327000000000        -1.994915646915806E-146
   35.0721000000000        -2.738092645908257E-146
   35.3115000000000        -2.263295000930282E-146
   35.5509000000000         2.866634785679485E-146
   35.7903000000000         2.119590711460655E-145
   36.0297000000000         7.165471261670422E-145
   36.2691000000000         1.921186083562418E-144
   36.5085000000000         4.504557988293561E-144
   36.7479000000000         9.515032952197309E-144
   36.9873000000000         1.818097889327392E-143
   37.2267000000000         3.089528471697180E-143
   37.4661000000000         4.411069099557074E-143
   37.7055000000000         4.264896020041852E-143
   37.9449000000000        -1.692866891911752E-143
   38.1843000000000        -2.383054720078247E-142
   38.4237000000000        -8.395710379030191E-142
   38.6631000000000        -2.229880091752562E-141
   38.9025000000000        -5.083383970309332E-141
   39.1419000000000        -1.031634130166114E-140
   39.3813000000000        -1.871858848416427E-140
   39.6207000000000        -2.968691750159741E-140
   39.8601000000000        -3.798607011255098E-140
   40.0995000000000        -2.670667415745563E-140
   40.3389000000000         4.620630431493793E-140
   40.5783000000000         2.705616439010092E-139
   40.8177000000000         8.157662748178184E-139
   41.0571000000000         1.962440873465627E-138
   41.2965000000000         4.099802160565728E-138
   41.5359000000000         7.602254999212982E-138
   41.7753000000000         1.240063004429955E-137
   42.0147000000000         1.690474812445707E-137
   42.2541000000000         1.572183564348849E-137
   42.4935000000000        -4.572171730150273E-138
   42.7329000000000        -7.227007800372523E-137
   42.9723000000000        -2.397173158859489E-136
   43.2117000000000        -5.916720560979790E-136
   43.4511000000000        -1.242808029300348E-135
   43.6905000000000        -2.300604465506485E-135
   43.9299000000000        -3.745970734273723E-135
   44.1693000000000        -5.148232127435480E-135
   44.4087000000000        -5.088853764677556E-135
   44.6481000000000        -1.426697063166558E-136
   44.8875000000000         1.668309383817749E-134
   45.1269000000000         5.789549935890809E-134
   45.3663000000000         1.429994599872758E-133
   45.6057000000000         2.971779730389030E-133
   45.8451000000000         5.420680529689558E-133
   46.0845000000000         8.690892021793894E-133
   46.3239000000000         1.179770784465301E-132
   46.5633000000000         1.171597439796118E-132
   46.8027000000000         1.471034791464180E-133
   47.0421000000000        -3.260275356931495E-132
   47.2815000000000        -1.139599938377868E-131
   47.5209000000000        -2.775404188314269E-131
   47.7603000000000        -5.657780130081465E-131
   47.9997000000000        -1.010319980102634E-130
   48.2391000000000        -1.584489179493849E-130
   48.4785000000000        -2.103923372614773E-130
   48.7179000000000        -2.047330133463003E-130
   48.9573000000000        -2.742073320065700E-131
   49.1967000000000         5.351647964266931E-130
   49.4361000000000         1.833623099393339E-129
   49.6755000000000         4.364394318132919E-129
   49.9149000000000         8.687991198078423E-129
   50.1543000000000         1.514133430648308E-128
   50.3937000000000         2.315786973869566E-128
   50.6331000000000         2.993726424434384E-128
   50.8725000000000         2.818276037443669E-128
   51.1119000000000         2.753896562418135E-129
   51.3513000000000        -7.344422703006087E-128
   51.5907000000000        -2.428974092169679E-127
   51.8301000000000        -5.626476872758036E-127
   52.0695000000000        -1.091979173941365E-126
   52.3089000000000        -1.856185312062347E-126
   52.5483000000000        -2.767737458049430E-126
   52.7877000000000        -3.481251173264905E-126
   53.0271000000000        -3.160532227343939E-126
   53.2665000000000        -1.552058106014638E-127
   53.5059000000000         8.361619958960187E-126
   53.7453000000000         2.662970725268610E-125
   53.9847000000000         6.004491776373854E-125
   54.2241000000000         1.137287409056412E-124
   54.4635000000000         1.888276202063616E-124
   54.7029000000000         2.750130507303845E-124
   54.9423000000000         3.374405104957341E-124
   55.1817000000000         2.969190818042425E-124
   55.4211000000000         4.093637084381632E-126
   55.6605000000000        -7.866659212453833E-124
   55.8999000000000        -2.428579577842993E-123
   56.1393000000000        -5.348340119199617E-123
   56.3787000000000        -9.913549371483901E-123
   56.6181000000000        -1.612167499802181E-122
   56.8575000000000        -2.300706870636626E-122
   57.0969000000000        -2.766161195987973E-122
   57.3363000000000        -2.382110197604475E-122
   57.5757000000000        -1.398055414260330E-124
   57.8151000000000         6.136217045166942E-122
   58.0545000000000         1.855500730002037E-121
   58.2939000000000         4.009999173382469E-121
   58.5333000000000         7.299431188748602E-121
   58.7727000000000         1.166431363521887E-120
   59.0121000000000         1.636871513667135E-120
   59.2515000000000         1.937847348368207E-120
   59.4909000000000         1.650720984381874E-120
   59.7303000000000         4.399297281289962E-122
   59.9697000000000        -4.003264908410348E-120
   60.2091000000000        -1.198647361612871E-119
   60.4485000000000        -2.554486871775552E-119
   60.6879000000000        -4.582423821039566E-119
   60.9273000000000        -7.217861639508003E-119
   61.1667000000000        -9.993196204116488E-119
   61.4061000000000        -1.170017800097665E-118
   61.6455000000000        -9.947791555868979E-119
   61.8849000000000        -6.895504202115748E-120
   62.1243000000000         2.208927859471005E-118
   62.3637000000000         6.615170577723011E-118
   62.6031000000000         1.396352713260057E-117
   62.8425000000000         2.476203901673943E-117
   63.0819000000000         3.855072882476105E-117
   63.3213000000000         5.280719674034156E-117
   63.5607000000000         6.136133627535503E-117
   63.8001000000000         5.241321651341014E-117
   64.0395000000000         6.556724805211170E-118
   64.2789000000000        -1.042656485175000E-116
   64.5183000000000        -3.151793925939293E-116
   64.7577000000000        -6.614809316365379E-116
   64.9971000000000        -1.162713346974667E-115
   65.2365000000000        -1.793343216711633E-115
   65.4759000000000        -2.436139620680833E-115
   65.7153000000000        -2.817161586748416E-115
   65.9547000000000        -2.428053769062721E-115
   66.1941000000000        -4.540700355981490E-116
   66.4335000000000         4.253390986523119E-115
   66.6729000000000         1.309245885456260E-114
   66.9123000000000         2.741320317366032E-114
   67.1517000000000         4.787324435786752E-114
   67.3911000000000         7.329933462054105E-114
   67.6305000000000         9.894019479887010E-114
   67.8699000000000         1.141158778821783E-113
   68.1093000000000         9.952955770481504E-114
   68.3487000000000         2.496569032190969E-114
   68.5881000000000        -1.512050160235463E-113
   68.8275000000000        -4.783683256917396E-113
   69.0669000000000        -1.002472925369311E-112
   69.3063000000000        -1.743058542693833E-112
   69.5457000000000        -2.654142299214079E-112
   69.7851000000000        -3.566106435646960E-112
   70.0245000000000        -4.110110319513785E-112
   70.2639000000000        -3.635300865710785E-112
   70.5033000000000        -1.143655839483309E-112
   70.7427000000000         4.711594804168078E-112
   70.9821000000000         1.549137926477157E-111
   71.2215000000000         3.259956223607933E-111
   71.4609000000000         5.655504311735550E-111
   71.7003000000000         8.579254190502216E-111
   71.9397000000000         1.149331107409005E-110
   72.1791000000000         1.326046492164170E-110
   72.4185000000000         1.191528195431288E-110
   72.6579000000000         4.499514355763659E-111
   72.8973000000000        -1.290569676354195E-110
   73.1367000000000        -4.474969300399706E-110
   73.3761000000000        -9.491654629483143E-110
   73.6155000000000        -1.646585512867223E-109
   73.8549000000000        -2.492901186317208E-109
   74.0943000000000        -3.335471270288093E-109
   74.3337000000000        -3.859080056853190E-109
   74.5731000000000        -3.528639742250842E-109
   74.8125000000000        -1.551754626887097E-109
   75.0519000000000         3.104516647622894E-109
   75.2913000000000         1.159241116402767E-108
   75.5307000000000         2.489319580558475E-108
   75.7701000000000         4.328766653040878E-108
   76.0095000000000         6.553072376997833E-108
   76.2489000000000         8.772064785534740E-108
   76.4883000000000         1.019519809148485E-107
   76.7277000000000         9.500654760834505E-108
   76.9671000000000         4.757915672795750E-108
   77.2065000000000        -6.515571155332393E-108
   77.4459000000000        -2.704929835765257E-107
   77.6853000000000        -5.912440454772012E-107
   77.9247000000000        -1.033407153294833E-106
   78.1641000000000        -1.567378777799360E-106
   78.4035000000000        -2.102766244599618E-106
   78.6429000000000        -2.459092150005166E-106
   78.8823000000000        -2.338290240374828E-106
   79.1217000000000        -1.309986671832594E-106
   79.3611000000000         1.173151143724203E-106
   79.6005000000000         5.706197926314560E-106
   79.8399000000000         1.278028701270436E-105
   80.0793000000000         2.251998817428695E-105
   80.3187000000000         3.429090807967114E-105
   80.5581000000000         4.618353254308609E-105
   80.7975000000000         5.442545226164428E-105
   81.0369000000000         5.284618899421425E-105
   81.2763000000000         3.261744302986700E-105
   81.5157000000000        -1.739075873676120E-105
   81.7551000000000        -1.091812550440400E-104
   81.9945000000000        -2.525951915826874E-104
   82.2339000000000        -4.501629667660122E-104
   82.4733000000000        -6.895404238142541E-104
   82.7127000000000        -9.337227034450365E-104
   82.9521000000000        -1.110104804820335E-103
   83.1915000000000        -1.100786302115767E-103
   83.4309000000000        -7.382840433185264E-104
   83.6703000000000         1.871420612543688E-104
   83.9097000000000         1.900421650021958E-103
   84.1491000000000         4.585632513260531E-103
   84.3885000000000         8.292531099270192E-103
   84.6279000000000         1.280127105951416E-102
   84.8673000000000         1.744991157855139E-102
   85.1067000000000         2.094474193997827E-102
   85.3461000000000         2.119618442619182E-102
   85.5855000000000         1.525247889555177E-102
   85.8249000000000        -5.636626297842731E-104
   86.0643000000000        -3.018065335720530E-102
   86.3037000000000        -7.681673682152509E-102
   86.5431000000000        -1.414008054946180E-101
   86.7825000000000        -2.203171801065309E-101
   87.0219000000000        -3.025682517477324E-101
   87.2613000000000        -3.667016725481566E-101
   87.5007000000000        -3.782118858448169E-101
   87.7401000000000        -2.885841103522702E-101
   87.9795000000000        -3.764661664720348E-102
   88.2189000000000         4.386794718897128E-101
   88.4583000000000         1.192980462002684E-100
   88.6977000000000         2.241407952972790E-100
   88.9371000000000         3.528510487545569E-100
   89.1765000000000         4.883557795164674E-100
   89.4159000000000         5.973952490075662E-100
   89.6553000000000         6.266753489308150E-100
   89.8947000000000         5.016013845567353E-100
   90.1341000000000         1.300653065172145E-100
   90.3735000000000        -5.856799776373608E-100
   90.6129000000000        -1.725877514438444E-099
   90.8523000000000        -3.316312090278035E-099
   91.0917000000000        -5.276876594103273E-099
   91.3311000000000        -7.358550840758255E-099
   91.5705000000000        -9.077261610164532E-099
   91.8099000000000        -9.660707071582494E-099
   92.0493000000000        -8.033343033998875E-099
   92.2887000000000        -2.873961339009144E-099
   92.5281000000000         7.212851399687455E-099
   92.7675000000000         2.336937371317850E-098
   93.0069000000000         4.596993864064913E-098
   93.2463000000000         7.391433133084650E-098
   93.4857000000000         1.037746637761798E-097
   93.7251000000000         1.289163858445479E-097
   93.9645000000000         1.388142904420272E-097
   94.2039000000000         1.189007878330132E-097
   94.4433000000000         5.139677628015851E-098
   94.6827000000000        -8.234837950458867E-098
   94.9221000000000        -2.974906519066860E-097
   95.1615000000000        -5.989388373870626E-097
   95.4009000000000        -9.722286064001930E-097
   95.6403000000000        -1.372685733081866E-096
   95.8797000000000        -1.714498709323442E-096
   96.1191000000000        -1.862557348127836E-096
   96.3585000000000        -1.631303489854190E-096
   96.5979000000000        -7.961229601687245E-097
   96.8373000000000         8.764372819734848E-097
   97.0767000000000         3.573705587038280E-096
   97.3161000000000         7.353455595159319E-096
   97.5555000000000         1.203308492570030E-095
   97.7949000000000         1.706048108551761E-095
   98.0343000000000         2.138707188322837E-095
   98.2737000000000         2.337784550710505E-095
   98.5131000000000         2.080858769489260E-095
   98.7525000000000         1.101400554893629E-095
   98.9919000000000        -8.743178493296975E-096
   99.2313000000000        -4.061933162710184E-095
   99.4707000000000        -8.521910009267119E-095
   99.7101000000000        -1.403304482678158E-094
   99.9495000000000        -1.994818825918214E-094
   100.188900000000        -2.505658571384242E-094
   100.428300000000        -2.749267200935864E-094
   100.667700000000        -2.474715202000684E-094
   100.907100000000        -1.384904055891903E-094
   101.146500000000         8.208443866755550E-095
   101.385900000000         4.373664775963544E-094
   101.625300000000         9.328829273580781E-094
   101.864700000000         1.543011969804028E-093
   102.104100000000         2.195881666161965E-093
   102.343500000000         2.759459144910916E-093
   102.582900000000         3.033114504880578E-093
   102.822300000000         2.750476528993458E-093
   103.061700000000         1.600506786580852E-093
   103.301100000000        -7.261554490105579E-094
   103.540500000000        -4.460069352116668E-093
   103.779900000000        -9.643519879089678E-093
   104.019300000000        -1.599406304974275E-092
   104.258700000000        -2.275664730999558E-092
   104.498100000000        -2.857293213595811E-092
   104.737500000000        -3.141101649659825E-092
   104.976900000000        -2.861231673923385E-092
   105.216300000000        -1.712078712241930E-092
   105.455700000000         6.042290402912125E-093
   105.695100000000         4.301333505873352E-092
   105.934500000000         9.402810715417552E-092
   106.173900000000         1.561354446020463E-091
   106.413300000000         2.218452784705384E-091
   106.652700000000         2.779921800315872E-091
   106.892100000000         3.052225381887427E-091
   107.131500000000         2.786224516775360E-091
   107.370900000000         1.700571847123595E-091
   107.610300000000        -4.725576789211580E-092
   107.849700000000        -3.916214322078398E-091
   108.089100000000        -8.632767532559256E-091
   108.328500000000        -1.433056909480908E-090
   108.567900000000        -2.030896775256769E-090
   108.807300000000        -2.536754444611085E-090
   109.046700000000        -2.777559796891553E-090
   109.286100000000        -2.534579338618533E-090
   109.525500000000        -1.565825615697981E-090
   109.764900000000         3.525624971958162E-091
   110.004300000000         3.364082477803823E-090
   110.243700000000         7.450588788966039E-090
   110.483100000000         1.233927359085539E-089
   110.722500000000         1.741226356403122E-089
   110.961900000000         2.164109443356560E-089
   111.201300000000         2.357574742203341E-089
   111.440700000000         2.142286736675916E-089
   111.680100000000         1.324763476579133E-089
   111.919500000000        -2.674391746269191E-090
   112.158900000000        -2.734807357939639E-089
   112.398300000000        -6.041630629548230E-089
   112.637700000000        -9.945284071825220E-089
   112.877100000000        -1.393126702244643E-088
   113.116500000000        -1.717192562990907E-088
   113.355900000000        -1.853163564238181E-088
   113.595300000000        -1.664364064869736E-088
   113.834700000000        -1.008180080674891E-088
   114.074100000000         2.357807632387114E-089
   114.313500000000         2.126687715223773E-088
   114.552900000000         4.615309242154610E-088
   114.792300000000         7.494650279648838E-088
   115.031700000000         1.035821491610385E-087
   115.271100000000         1.257942302117473E-087
   115.510500000000         1.332842315250389E-087
   115.749900000000         1.164308096578318E-087
   115.989300000000         6.567959523450559E-088
   116.228700000000        -2.632606352969501E-088
   116.468100000000        -1.619455911804875E-087
   116.707500000000        -3.353347442521397E-087
   116.946900000000        -5.293279259061452E-087
   117.186300000000        -7.131538858265946E-087
   117.425700000000        -8.419450110269513E-087
   117.665100000000        -8.591153334235780E-087
   117.904500000000        -7.026156793450118E-087
   118.143900000000        -3.157425298360214E-087
   118.383300000000         3.374882003005444E-087
   118.622700000000         1.253419344624308E-086
   118.862100000000         2.368652425845554E-086
   119.101500000000         3.542684059317374E-086
   119.340900000000         4.548681445866525E-086
   119.580300000000         5.078859307734497E-086
   119.819700000000         4.771077239043018E-086
   120.059100000000         3.262003609448026E-086
   120.298500000000         2.690044378639860E-087
   120.537900000000        -4.302498503474575E-086
   120.777300000000        -1.023706897337175E-085
   121.016700000000        -1.689283249982534E-085
   121.256100000000        -2.312042612728392E-085
   121.495500000000        -2.725531943519391E-085
   121.734900000000        -2.722541435571938E-085
   121.974300000000        -2.081227912066331E-085
   122.213700000000        -6.090088966290545E-086
   122.453100000000         1.796128561911688E-085
   122.692500000000         5.071461219735172E-085
   122.931900000000         8.912535768224039E-085
   123.171300000000         1.270958408793368E-084
   123.410700000000         1.551952277147114E-084
   123.650100000000         1.609990216101208E-084
   123.889500000000         1.303171443436135E-084
   124.128900000000         4.952751399486362E-085
   124.368300000000        -9.089770275886590E-085
   124.607700000000        -2.918068690742592E-084
   124.847100000000        -5.401714093793221E-084
   125.086500000000        -8.041093596817678E-084
   125.325900000000        -1.029378645639469E-083
   125.565300000000        -1.138958237236792E-083
   125.804700000000        -1.037553524778420E-083
   126.044100000000        -6.227999442919748E-084
   126.283500000000         1.955425938861759E-084
   126.522900000000         1.468136342657624E-083
   126.762300000000         3.171727885724870E-083
   127.001700000000         5.171546599491804E-083
   127.241100000000         7.186762117158781E-083
   127.480500000000         8.768160211495841E-083
   127.719900000000         9.299650023769271E-083
   127.959300000000         8.036573878479780E-083
   128.198700000000         4.193191440350984E-083
   128.438100000000        -2.911765058344299E-083
   128.677500000000        -1.364973664315759E-082
   128.916900000000        -2.782682498481923E-082
   129.156300000000        -4.440326359584536E-082
   129.395700000000        -6.123173342846366E-082
   129.635100000000        -7.487829659269942E-082
   129.874500000000        -8.060753238458126E-082
   130.113900000000        -7.262458095075362E-082
   130.353300000000        -4.466557799279054E-082
   130.592700000000         8.991790228884588E-083
   130.832100000000         9.206999951583750E-082
   131.071500000000         2.044307396103998E-081
   131.310900000000         3.399586063531334E-081
   131.550300000000         4.844644671877320E-081
   131.789700000000         6.140259261390539E-081
   132.029100000000         6.943202967769739E-081
   132.268500000000         6.816110932533964E-081
   132.507900000000         5.260859826526919E-081
   132.747300000000         1.781701388884827E-081
   132.986700000000        -4.017897009966936E-081
   133.226100000000        -1.230496525594870E-080
   133.465500000000        -2.285992631197619E-080
   133.704900000000        -3.490778750883155E-080
   133.944300000000        -4.696289560614975E-080
   134.183700000000        -5.672338486403884E-080
   134.423100000000        -6.106142041161381E-080
   134.662500000000        -5.616216405440339E-080
   134.901900000000        -3.786519155603171E-080
   135.141300000000        -2.253567134923908E-081
   135.380700000000         5.348543804913495E-080
   135.620100000000         1.299407902078809E-079
   135.859500000000         2.241660929682808E-079
   136.098900000000         3.283133156617480E-079
   136.338300000000         4.284325043727233E-079
   136.577700000000         5.037458652046738E-079
   136.817100000000         5.267833265037982E-079
   137.056500000000         4.648173036749637E-079
   137.295900000000         2.830326243600549E-079
   137.535300000000        -5.021447259376310E-080
   137.774700000000        -5.558850613895254E-079
   138.014100000000        -1.234654094835856E-078
   138.253500000000        -2.055843519652772E-078
   138.492900000000        -2.946127346566075E-078
   138.732300000000        -3.779952328725682E-078