  -1.79550000000000         0.000000000000000E+000
  -1.55610000000000         0.000000000000000E+000
  -1.31670000000000         0.000000000000000E+000
  -1.07730000000000         0.000000000000000E+000
 -0.837900000000000         0.000000000000000E+000
 -0.598500000000000         0.000000000000000E+000
 -0.359100000000000         0.000000000000000E+000
 -0.119700000000000         0.000000000000000E+000
  0.119700000000000         0.000000000000000E+000
  0.359100000000000         0.000000000000000E+000
  0.598500000000000         0.000000000000000E+000
  0.837900000000000         0.000000000000000E+000
   1.07730000000000         0.000000000000000E+000
   1.31670000000000         0.000000000000000E+000
   1.55610000000000         0.000000000000000E+000
   1.79550000000000         0.000000000000000E+000
   2.03490000000000         0.000000000000000E+000
   2.27430000000000         0.000000000000000E+000
   2.51370000000000         0.000000000000000E+000
   2.75310000000000         0.000000000000000E+000
   2.99250000000000         0.000000000000000E+000
   3.23190000000000         0.000000000000000E+000
   3.47130000000000         0.000000000000000E+000
   3.71070000000000         0.000000000000000E+000
   3.95010000000000         0.000000000000000E+000
   4.18950000000000         0.000000000000000E+000
   4.42890000000000         0.000000000000000E+000
   4.66830000000000         0.000000000000000E+000
   4.90770000000000         0.000000000000000E+000
   5.14710000000000         0.000000000000000E+000
   5.38650000000000         0.000000000000000E+000
   5.62590000000000         0.000000000000000E+000
   5.86530000000000         0.000000000000000E+000
   6.10470000000000         0.000000000000000E+000
   6.34410000000000         0.000000000000000E+000
   6.58350000000000         0.000000000000000E+000
   6.82290000000000         0.000000000000000E+000
   7.06230000000000         0.000000000000000E+000
   7.30170000000000         0.000000000000000E+000
   7.54110000000000         0.000000000000000E+000
   7.78050000000000         0.000000000000000E+000
   8.01990000000000         0.000000000000000E+000
   8.25930000000000         0.000000000000000E+000
   8.49870000000000         0.000000000000000E+000
   8.73810000000000         0.000000000000000E+000
   8.97750000000000         0.000000000000000E+000
   9.21690000000000         0.000000000000000E+000
   9.45630000000000         0.000000000000000E+000
   9.69570000000000         0.000000000000000E+000
   9.93510000000000         0.000000000000000E+000
   10.1745000000000         0.000000000000000E+000
   10.4139000000000         0.000000000000000E+000
   10.6533000000000         0.000000000000000E+000
   10.8927000000000         0.000000000000000E+000
   11.1321000000000         0.000000000000000E+000
   11.3715000000000         0.000000000000000E+000
   11.6109000000000        -1.873180640335180E-260
   11.8503000000000         1.638387709763239E-246
   12.0897000000000        -5.469652110074847E-240
   12.3291000000000        -7.476023482752403E-237
   12.5685000000000         1.895850235699379E-216
   12.8079000000000        -8.384348934660716E-211
   13.0473000000000        -5.290174723398069E-209
   13.2867000000000         8.359225550069809E-207
   13.5261000000000         9.074375607594068E-205
   13.7655000000000         3.788182124977354E-203
   14.0049000000000         7.584101280722995E-202
   14.2443000000000        -5.739638697466411E-202
   14.4837000000000        -5.633864908652988E-199
   14.7231000000000        -2.173426980945357E-197
   14.9625000000000        -5.389807581152111E-196
   15.2019000000000        -1.033652219584587E-194
   15.4413000000000        -1.640103435453917E-193
   15.6807000000000        -2.229462327361679E-192
   15.9201000000000        -2.651211049383310E-191
   16.1595000000000        -2.794615305061733E-190
   16.3989000000000        -2.631419101611873E-189
   16.6383000000000        -2.219473157329319E-188
   16.8777000000000        -1.671251656130268E-187
   17.1171000000000        -1.108234288397036E-186
   17.3565000000000        -6.235726809992718E-186
   17.5959000000000        -2.651555378995940E-185
   17.8353000000000        -3.853869613723646E-185
   18.0747000000000         7.856495310007401E-184
   18.3141000000000         1.196617047503260E-182
   18.5535000000000         1.169278920912484E-181
   18.7929000000000         9.473462824828832E-181
   19.0323000000000         6.826705050484837E-180
   19.2717000000000         4.509871191157251E-179
   19.5111000000000         2.775958135315504E-178
   19.7505000000000         1.607954428660730E-177
   19.9899000000000         8.823479649470335E-177
   20.2293000000000         4.608703003825611E-176
   20.4687000000000         2.299523858617181E-175
   20.7081000000000         1.099048267466152E-174
   20.9475000000000         5.042765133917332E-174
   21.1869000000000         2.225187778847303E-173
   21.4263000000000         9.456846964452376E-173
   21.6657000000000         3.875588558305845E-172
   21.9051000000000         1.533162237061715E-171
   22.1445000000000         5.859800864846857E-171
   22.3839000000000         2.165527101786888E-170
   22.6233000000000         7.743715253403093E-170
   22.8627000000000         2.681400223698595E-169
   23.1021000000000         8.998252636766063E-169
   23.3415000000000         2.929406597144073E-168
   23.5809000000000         9.264348366599567E-168
   23.8203000000000         2.851610768865334E-167
   24.0597000000000         8.566149558401815E-167
   24.2991000000000         2.520974974557945E-166
   24.5385000000000         7.306565678484647E-166
   24.7779000000000         2.099576440658339E-165
   25.0173000000000         6.028309321596477E-165
   25.2567000000000         1.742768807995487E-164
   25.4961000000000         5.102368131812247E-164
   25.7355000000000         1.515898308693964E-163
   25.9749000000000         4.558383062593308E-163
   26.2143000000000         1.378333654682914E-162
   26.4537000000000         4.154163049618471E-162
   26.6931000000000         1.236372549019624E-161
   26.9325000000000         3.601703497939236E-161
   27.1719000000000         1.018552239123225E-160
   27.4113000000000         2.773419571306499E-160
   27.6507000000000         7.202982954297790E-160
   27.8901000000000         1.761247544588422E-159
   28.1295000000000         3.967227573553875E-159
   28.3689000000000         7.870190206015240E-159
   28.6083000000000         1.209841762687756E-158
   28.8477000000000         5.715562103757704E-159
   29.0871000000000        -5.767939287279027E-158
   29.3265000000000        -3.378046117749379E-157
   29.5659000000000        -1.321334072544508E-156
   29.8053000000000        -4.361265082577555E-156
   30.0447000000000        -1.292385891647957E-155
   30.2841000000000        -3.517475882214709E-155
   30.5235000000000        -8.852661909928532E-155
   30.7629000000000        -2.051819645658311E-154
   31.0023000000000        -4.302805975231212E-154
   31.2417000000000        -7.791211957606741E-154
   31.4811000000000        -1.047396680515119E-153
   31.7205000000000        -1.817911638445551E-154
   31.9599000000000         5.514641229158282E-153
   32.1993000000000         2.696459653288512E-152
   32.4387000000000         9.289693088984612E-152
   32.6781000000000         2.717086034916415E-151
   32.9175000000000         7.102179744848715E-151
   33.1569000000000         1.684637065724897E-150
   33.3963000000000         3.610894302184739E-150
   33.6357000000000         6.802319829146519E-150
   33.8751000000000         1.031716615962402E-149
   34.1145000000000         8.123967801765420E-150
   34.3539000000000        -2.171928601969013E-149
   34.5933000000000        -1.443926611067957E-148
   34.8327000000000        -5.312077256416540E-148
   35.0721000000000        -1.591625056645379E-147
   35.3115000000000        -4.222013278098283E-147
   35.5509000000000        -1.020651878538607E-146
   35.7903000000000        -2.268455790435753E-146
   36.0297000000000        -4.615050289363433E-146
   36.2691000000000        -8.415262024894034E-146
   36.5085000000000        -1.295827332666097E-145
   36.7479000000000        -1.349701267664350E-145
   36.9873000000000         6.544895363104726E-146
   37.2267000000000         9.400497302052826E-145
   37.4661000000000         3.660245742612975E-144
   37.7055000000000         1.090303144811934E-143
   37.9449000000000         2.832488578013786E-143
   38.1843000000000         6.698658597002759E-143
   38.4237000000000         1.467150684125323E-142
   38.6631000000000         2.992396305653689E-142
   38.9025000000000         5.667758796241901E-142
   39.1419000000000         9.843776038314552E-142
   39.3813000000000         1.519242376773357E-141
   39.6207000000000         1.912291997745858E-141
   39.8601000000000         1.322166719905860E-141
   40.0995000000000        -2.388963909361270E-141
   40.3389000000000        -1.394132323440805E-140
   40.5783000000000        -4.267629316114630E-140
   40.8177000000000        -1.052178834745649E-139
   41.0571000000000        -2.276262794020830E-139
   41.2965000000000        -4.434570265606911E-139
   41.5359000000000        -7.789757974274452E-139
   41.7753000000000        -1.207196190100182E-138
   42.0147000000000        -1.536788047366211E-138
   42.2541000000000        -1.180538585482909E-138
   42.4935000000000         1.272456337557018E-138
   42.7329000000000         8.754435396123910E-138
   42.9723000000000         2.668182860048414E-137
   43.2117000000000         6.391572815182287E-137
   43.4511000000000         1.328099895418269E-136
   43.6905000000000         2.461137996644421E-136
   43.9299000000000         4.061111589887368E-136
   44.1693000000000         5.776370456976485E-136
   44.4087000000000         6.317505853341281E-136
   44.6481000000000         2.426492633852630E-136
   44.8875000000000        -1.277932195366519E-135
   45.1269000000000        -5.205430834736712E-135
   45.3663000000000        -1.362395320788223E-134
   45.6057000000000        -2.944666485459313E-134
   45.8451000000000        -5.577288790854027E-134
   46.0845000000000        -9.367081679815444E-134
   46.3239000000000        -1.368197272977628E-133
   46.5633000000000        -1.606875407894239E-133
   46.8027000000000        -1.034628518824714E-133
   47.0421000000000         1.631923459748797E-133
   47.2815000000000         8.713242977871232E-133
   47.5209000000000         2.388516134104733E-132
   47.7603000000000         5.207872899368916E-132
   47.9997000000000         9.817843578475568E-132
   48.2391000000000         1.630816537828374E-131
   48.4785000000000         2.348266599091426E-131
   48.7179000000000         2.716956118722320E-131
   48.9573000000000         1.741700230830410E-131
   49.1967000000000        -2.551050779416780E-131
   49.4361000000000        -1.356822843504589E-130
   49.6755000000000        -3.642637774311799E-130
   49.9149000000000        -7.749568080751879E-130
   50.1543000000000        -1.421314378420999E-129
   50.3937000000000        -2.287696526654873E-129
   50.6331000000000        -3.167330414481086E-129
   50.8725000000000        -3.446060830975502E-129
   51.1119000000000        -1.768728014825083E-129
   51.3513000000000         4.394842624649040E-129
   51.5907000000000         1.916550536019043E-128
   51.8301000000000         4.832830772007958E-128
   52.0695000000000         9.838606961771313E-128
   52.3089000000000         1.733866058814724E-127
   52.5483000000000         2.676599904388388E-127
   52.7877000000000         3.520291864652520E-127
   53.0271000000000         3.510956897567204E-127
   53.2665000000000         1.108897108110371E-127
   53.5059000000000        -6.387400244169535E-127
   53.7453000000000        -2.311600751372017E-126
   53.9847000000000        -5.447102772037259E-126
   54.2241000000000        -1.057985968687962E-125
   54.4635000000000        -1.788788846179582E-125
   54.7029000000000        -2.646571368273407E-125
   54.9423000000000        -3.304532377586895E-125
   55.1817000000000        -3.003519231984987E-125
   55.4211000000000        -2.951862367371523E-126
   55.6605000000000         7.218927060015167E-125
   55.8999000000000         2.300094567442124E-124
   56.1393000000000         5.123460086330875E-124
   56.3787000000000         9.549468818002212E-124
   56.6181000000000         1.556271834434188E-123
   56.8575000000000         2.218154315603200E-123
   57.0969000000000         2.648255942999550E-123
   57.3363000000000         2.220456117992915E-123
   57.5757000000000        -1.927228826479112E-124
   57.8151000000000        -6.364083440344365E-123
   58.0545000000000        -1.871497545050228E-122
   58.2939000000000        -3.996108552708593E-122
   58.5333000000000        -7.205450244551710E-122
   58.7727000000000        -1.139420625633410E-121
   59.0121000000000        -1.575880342916946E-121
   59.2515000000000        -1.818271158741472E-121
   59.4909000000000        -1.441330213403939E-121
   59.7303000000000         2.838891872219755E-122
   59.9697000000000         4.451852924606603E-121
   60.2091000000000         1.248329189141705E-120
   60.4485000000000         2.586054531073887E-120
   60.6879000000000         4.545291383230615E-120
   60.9273000000000         7.019651763055574E-120
   61.1667000000000         9.488983333757644E-120
   61.4061000000000         1.069767338768804E-119
   61.6455000000000         8.251299308344855E-120
   61.8849000000000        -1.782199606338041E-120
   62.1243000000000        -2.506664339445986E-119
   62.3637000000000        -6.861743250087136E-119
   62.6031000000000        -1.392606401270303E-118
   62.8425000000000        -2.401212880438313E-118
   63.0819000000000        -3.641960841774702E-118
   63.3213000000000        -4.841968251314149E-118
   63.5607000000000        -5.385244476902230E-118
   63.8001000000000        -4.148273857846764E-118
   64.0395000000000         6.445920277443520E-119
   64.2789000000000         1.145551712807296E-117
   64.5183000000000         3.120318873758236E-117
   64.7577000000000         6.254035113783769E-117
   64.9971000000000         1.063466751529403E-116
   65.2365000000000         1.591303349102641E-116
   65.4759000000000         2.091324309924355E-116
   65.7153000000000         2.312376832798254E-116
   65.9547000000000         1.814261223464081E-116
   66.1941000000000        -7.437245775019246E-118
   66.4335000000000        -4.251313194330035E-116
   66.6729000000000        -1.173639614442927E-115
   66.9123000000000        -2.339466630231321E-115
   67.1517000000000        -3.940160383006337E-115
   67.3911000000000        -5.837252762025405E-115
   67.6305000000000        -7.612573644015741E-115
   67.8699000000000        -8.416100995883205E-115
   68.1093000000000        -6.813765132296957E-115
   68.3487000000000        -6.947131589374191E-116
   68.5881000000000         1.266112303102915E-114
   68.8275000000000         3.620792928516656E-114
   69.0669000000000         7.226533588614679E-114
   69.3063000000000         1.209616174319896E-113
   69.5457000000000         1.778505080883972E-113
   69.7851000000000         2.307292912542805E-113
   70.0245000000000         2.560097301928464E-113
   70.2639000000000         2.155122240030200E-113
   70.5033000000000         5.526731592536911E-114
   70.7427000000000        -2.912558633717998E-113
   70.9821000000000        -8.923075382493373E-113
   71.2215000000000        -1.795864077892412E-112
   71.4609000000000        -2.993536586440088E-112
   71.7003000000000        -4.369637554490945E-112
   71.9397000000000        -5.639177684678743E-112
   72.1791000000000        -6.285878166252011E-112
   72.4185000000000        -5.521271364326352E-112
   72.6579000000000        -2.297366127466316E-112
   72.8973000000000         4.584803978777369E-112
   73.1367000000000         1.622528999248899E-111
   73.3761000000000         3.319938416110976E-111
   73.6155000000000         5.495456515841412E-111
   73.8549000000000         7.909218863261958E-111
   74.0943000000000         1.006908954877052E-110
   74.3337000000000         1.119457534070399E-110
   74.5731000000000         1.025070932016054E-110
   74.8125000000000         6.095030460527572E-111
   75.0519000000000        -2.229222374169856E-111
   75.2913000000000        -1.505598894161090E-110
   75.5307000000000        -3.158876382574649E-110
   75.7701000000000        -4.950768449357555E-110
   76.0095000000000        -6.502024399213490E-110
   76.2489000000000        -7.382654906765098E-110
   76.4883000000000        -7.353940404416053E-110
   76.7277000000000        -6.797810378288017E-110
   76.9671000000000        -7.327748846487679E-110
   77.2065000000000        -1.247289851629228E-109
   77.4459000000000        -2.815350143056152E-109
   77.6853000000000        -6.241810541884475E-109
   77.9247000000000        -1.236172313060643E-108
   78.1641000000000        -2.159212843527424E-108
   78.4035000000000        -3.310037098918966E-108
   78.6429000000000        -4.350484608632913E-108
   78.8823000000000        -4.513433937211836E-108
   79.1217000000000        -2.409877356412991E-108
   79.3611000000000         4.119645750940890E-108
   79.6005000000000         1.799140184580574E-107
   79.8399000000000         4.251710362516024E-107
   80.0793000000000         8.044150574237458E-107
   80.3187000000000         1.320842290124727E-106
   80.5581000000000         1.923208753387038E-106
   80.7975000000000         2.463042780066819E-106
   81.0369000000000         2.642098610019575E-106
   81.2763000000000         1.959742567980233E-106
   81.5157000000000        -3.195616151037356E-107
   81.7551000000000        -5.144512999535761E-106
   81.9945000000000        -1.355082362144494E-105
   82.2339000000000        -2.636624634809304E-105
   82.4733000000000        -4.367677466245388E-105
   82.7127000000000        -6.399786165607085E-105
   82.9521000000000        -8.314248456559766E-105
   83.1915000000000        -9.287727885453083E-105
   83.4309000000000        -7.962526325142909E-105
   83.6703000000000        -2.371809934212209E-105
   83.9097000000000         9.998581140270355E-105
   84.1491000000000         3.189583617114600E-104
   84.3885000000000         6.558904240128080E-104
   84.6279000000000         1.116094724384468E-103
   84.8673000000000         1.668269183723922E-103
   85.1067000000000         2.218566479666252E-103
   85.3461000000000         2.580088009023079E-103
   85.5855000000000         2.443468669042676E-103
   85.8249000000000         1.359281052615013E-103
   86.0643000000000        -1.250659991229892E-103
   86.3037000000000        -6.029216154978373E-103
   86.5431000000000        -1.353772492947386E-102
   86.7825000000000        -2.399717519219149E-102
   87.0219000000000        -3.689373393917532E-102
   87.2613000000000        -5.044727408373919E-102
   87.5007000000000        -6.098355894872013E-102
   87.7401000000000        -6.231838987178600E-102
   87.9795000000000        -4.535742472605320E-102
   88.2189000000000         1.766091615925467E-103
   88.4583000000000         9.256767018978900E-102
   88.6977000000000         2.395532194723555E-101
   88.9371000000000         4.494546271744019E-101
   89.1765000000000         7.159197301887943E-101
   89.4159000000000         1.009599580228108E-100
   89.6553000000000         1.266313658664124E-100
   89.8947000000000         1.375155415819221E-100
   90.1341000000000         1.170058478878900E-100
   90.3735000000000         4.303956211535987E-101
   90.6129000000000        -1.101643034087097E-100
   90.8523000000000        -3.677389703684650E-100
   91.0917000000000        -7.461794732355463E-100
   91.3311000000000        -1.240940146171027E-099
   91.5705000000000        -1.809450775661636E-099
   91.8099000000000        -2.350577632156318E-099
   92.0493000000000        -2.683467132373427E-099
   92.2887000000000        -2.531384666639952E-099
   92.5281000000000        -1.519463971039262E-099
   92.7675000000000         8.012165325573715E-100
   93.0069000000000         4.887959001441244E-099
   93.2463000000000         1.108304967208850E-098
   93.4857000000000         1.941956948885855E-098
   93.7251000000000         2.935264312246683E-098
   93.9645000000000         3.943039317595582E-098
   94.2039000000000         4.694765927731434E-098
   94.4433000000000         4.766571072684084E-098
   94.6827000000000         3.573063059384227E-098
   94.9221000000000         3.975378796674802E-099
   95.1615000000000        -5.516659564207245E-098
   95.4009000000000        -1.478944988022327E-097
   95.6403000000000        -2.762206686197053E-097
   95.8797000000000        -4.340302378979034E-097
   96.1191000000000        -6.022063490903434E-097
   96.3585000000000        -7.434121098466644E-097
   96.5979000000000        -7.976824594581360E-097
   96.8373000000000        -6.806672202324898E-097
   97.0767000000000        -2.870910585305934E-097
   97.3161000000000         4.974124254292128E-097
   97.5555000000000         1.772740492264957E-096
   97.7949000000000         3.586243692924133E-096
   98.0343000000000         5.879084767256696E-096
   98.2737000000000         8.419353280754939E-096
   98.5131000000000         1.072957185709850E-095
   98.7525000000000         1.202355472647911E-095
   98.9919000000000         1.117647487089007E-095
   99.2313000000000         6.761276945149172E-096
   99.4707000000000        -2.807934728816859E-096
   99.7101000000000        -1.898251867408326E-095
   99.9495000000000        -4.260006436302358E-095
   100.188900000000        -7.320530757956085E-095
   100.428300000000        -1.081989019946132E-094
   100.667700000000        -1.419069781872303E-094
   100.907100000000        -1.647533658889586E-094
   101.146500000000        -1.628231969517186E-094
   101.385900000000        -1.182166551484879E-094
   101.625300000000        -1.067878863821073E-095
   101.864700000000         1.789833711824204E-094
   102.104100000000         4.632724500240023E-094
   102.343500000000         8.399951981195757E-094
   102.582900000000         1.282198049902931E-093
   102.822300000000         1.727109373847737E-093
   103.061700000000         2.066160421847056E-093
   103.301100000000         2.139349852807062E-093
   103.540500000000         1.738425620060583E-093
   103.779900000000         6.242902559948770E-094
   104.019300000000        -1.435734309602955E-093
   104.258700000000        -4.606160583895867E-093
   104.498100000000        -8.895347856546232E-093
   104.737500000000        -1.404477600349630E-092
   104.976900000000        -1.940708218680702E-092
   105.216300000000        -2.383497818949621E-092
   105.455700000000        -2.561555682435702E-092
   105.695100000000        -2.249681455086530E-092
   105.934500000000        -1.186240144484785E-092
   106.173900000000         8.887674480918854E-093
   106.413300000000         4.170379625782619E-092
   106.652700000000         8.698413979890123E-092
   106.892100000000         1.424394725227720E-091
   107.131500000000         2.018420721249619E-091
   107.370900000000         2.538799569570277E-091
   107.610300000000         2.814574770696219E-091
   107.849700000000         2.618998938528297E-091
   108.089100000000         1.686029830553329E-091
   108.328500000000        -2.532220193107780E-092
   108.567900000000        -3.409741762136670E-091
   108.807300000000        -7.850110403018078E-091
   109.046700000000        -1.338791017544938E-090
   109.286100000000        -1.946416294623943E-090
   109.525500000000        -2.503752519115922E-090
   109.764900000000        -2.851576880933981E-090
   110.004300000000        -2.777033214383232E-090
   110.243700000000        -2.028270790402708E-090
   110.483100000000        -3.471504737604415E-091
   110.722500000000         2.476209465586650E-090
   110.961900000000         6.525935189056850E-090
   111.201300000000         1.166337654955392E-089
   111.440700000000         1.742052381567941E-089
   111.680100000000         2.290205283256664E-089
   111.919500000000         2.672327320672994E-089
   112.158900000000         2.701964121795209E-089
   112.398300000000         2.156887663013934E-089
   112.637700000000         8.066088045305538E-090
   112.877100000000        -1.541775101601615E-089
   113.116500000000        -4.978642251382114E-089
   113.355900000000        -9.410851386527536E-089
   113.595300000000        -1.447305803984798E-088
   113.834700000000        -1.944630424176174E-088
   114.074100000000        -2.320596290722942E-088
   114.313500000000        -2.422748998383347E-088
   114.552900000000        -2.068222771794738E-088
   114.792300000000        -1.065440249448541E-088
   115.031700000000         7.498068907352936E-089
   115.271100000000         3.463464962561525E-088
   115.510500000000         7.020039456550084E-088
   115.749900000000         1.115373204320787E-087
   115.989300000000         1.532542666477115E-087
   116.228700000000         1.868225443952436E-087
   116.468100000000         2.006095289418236E-087
   116.707500000000         1.805865263002632E-087
   116.946900000000         1.119342060726303E-087
   117.186300000000        -1.829887945192990E-088
   117.425700000000        -2.174669249365048E-087
   117.665100000000        -4.827251026135326E-087
   117.904500000000        -7.960447835543754E-087
   118.143900000000        -1.119679121106157E-086
   118.383300000000        -1.393264904206944E-086
   118.622700000000        -1.534037817592728E-086
   118.862100000000        -1.441774470086247E-086
   119.101500000000        -1.009945664858155E-086
   119.340900000000        -1.440596627160288E-087
   119.580300000000         1.212798919253293E-086
   119.819700000000         3.048708760672706E-086
   120.059100000000         5.249344294064942E-086
   120.298500000000         7.567749076449800E-086
   120.537900000000         9.605313271766308E-086
   120.777300000000         1.081354737558682E-085
   121.016700000000         1.052688443735667E-085
   121.256100000000         8.035614041195965E-086
   121.495500000000         2.704497939912797E-086
   121.734900000000        -5.863842202942880E-086
   121.974300000000        -1.763116237393082E-085
   122.213700000000        -3.191393324706094E-085
   122.453100000000        -4.719772998442321E-085
   122.692500000000        -6.102445535899339E-085
   122.931900000000        -7.001043067239106E-085
   123.171300000000        -7.005546031949694E-085
   123.410700000000        -5.679397590182408E-085
   123.650100000000        -2.631578742664793E-085
   123.889500000000         2.385641431623394E-085
   124.128900000000         9.360273149766131E-085
   124.368300000000         1.789950479214124E-084
   124.607700000000         2.712549465498407E-084
   124.847100000000         3.561642669454942E-084
   125.086500000000         4.142556562450972E-084
   125.325900000000         4.221095285825273E-084
   125.565300000000         3.550177964660678E-084
   125.804700000000         1.911265846685572E-084
   126.044100000000        -8.306851869109014E-085
   126.283500000000        -4.663244711483503E-084
   126.522900000000        -9.361825524596619E-084
   126.762300000000        -1.443655798724291E-083
   127.001700000000        -1.910629137049990E-083
   127.241100000000        -2.231704644916501E-083
   127.480500000000        -2.282139066728520E-083
   127.719900000000        -1.933074163452687E-083
   127.959300000000        -1.074378124403777E-083
   128.198700000000         3.559241086492570E-084
   128.438100000000         2.338394665604953E-083
   128.677500000000         4.739844121083893E-083
   128.916900000000         7.288594818250917E-083
   129.156300000000         9.565538415583262E-083
   129.395700000000         1.101977177921157E-082
   129.635100000000         1.101675323303852E-082
   129.874500000000         8.924175745042091E-083
   130.113900000000         4.235793769561029E-083
   130.353300000000        -3.273760760719759E-083
   130.592700000000        -1.337919782092630E-082
   130.832100000000        -2.524587373136580E-082
   131.071500000000        -3.731776589305236E-082
   131.310900000000        -4.729476433392584E-082
   131.550300000000        -5.224413652867288E-082
   131.789700000000        -4.888587270068837E-082
   132.029100000000        -3.407685837250289E-082
   132.268500000000        -5.492946897673848E-083
   132.507900000000         3.752917741793641E-082
   132.747300000000         9.307527527263790E-082
   132.986700000000         1.557993537353050E-081
   133.226100000000         2.163208617197184E-081
   133.465500000000         2.611034539669909E-081
   133.704900000000         2.730652387113694E-081
   133.944300000000         2.331558911879270E-081
   134.183700000000         1.230745401966204E-081
   134.423100000000        -7.081685752689883E-082
   134.662500000000        -3.525134419285910E-081
   134.901900000000        -7.106970430880380E-081
   135.141300000000        -1.113053594223704E-080
   135.380700000000        -1.501590109099591E-080
   135.620100000000        -1.790290904311264E-080
   135.859500000000        -1.866720514360550E-080
   136.098900000000        -1.599316030670035E-080
   136.338300000000        -8.520254741702965E-081
   136.577700000000         4.924599774832970E-081
   136.817100000000         2.500468411276566E-080
   137.056500000000         5.147050229065721E-080
   137.295900000000         8.270506177910437E-080
   137.535300000000         1.152713828156827E-079
   137.774700000000         1.435459877739411E-079
   138.014100000000         1.595538838028716E-079
   138.253500000000         1.531496473397943E-079
   138.492900000000         1.127085885648132E-079
   138.732300000000         2.649201011319244E-080