  -1.79550000000000         0.000000000000000E+000
  -1.55610000000000         0.000000000000000E+000
  -1.31670000000000         0.000000000000000E+000
  -1.07730000000000         0.000000000000000E+000
 -0.837900000000000         0.000000000000000E+000
 -0.598500000000000         0.000000000000000E+000
 -0.359100000000000         0.000000000000000E+000
 -0.119700000000000         0.000000000000000E+000
  0.119700000000000         0.000000000000000E+000
  0.359100000000000         0.000000000000000E+000
  0.598500000000000         0.000000000000000E+000
  0.837900000000000         0.000000000000000E+000
   1.07730000000000         0.000000000000000E+000
   1.31670000000000         0.000000000000000E+000
   1.55610000000000         0.000000000000000E+000
   1.79550000000000         0.000000000000000E+000
   2.03490000000000         0.000000000000000E+000
   2.27430000000000         0.000000000000000E+000
   2.51370000000000         0.000000000000000E+000
   2.75310000000000         0.000000000000000E+000
   2.99250000000000         0.000000000000000E+000
   3.23190000000000         0.000000000000000E+000
   3.47130000000000         0.000000000000000E+000
   3.71070000000000         0.000000000000000E+000
   3.95010000000000         0.000000000000000E+000
   4.18950000000000         0.000000000000000E+000
   4.42890000000000         0.000000000000000E+000
   4.66830000000000         0.000000000000000E+000
   4.90770000000000         0.000000000000000E+000
   5.14710000000000         0.000000000000000E+000
   5.38650000000000         0.000000000000000E+000
   5.62590000000000         0.000000000000000E+000
   5.86530000000000         0.000000000000000E+000
   6.10470000000000         0.000000000000000E+000
   6.34410000000000         0.000000000000000E+000
   6.58350000000000         0.000000000000000E+000
   6.82290000000000         0.000000000000000E+000
   7.06230000000000         0.000000000000000E+000
   7.30170000000000         0.000000000000000E+000
   7.54110000000000         0.000000000000000E+000
   7.78050000000000         0.000000000000000E+000
   8.01990000000000         0.000000000000000E+000
   8.25930000000000         0.000000000000000E+000
   8.49870000000000         0.000000000000000E+000
   8.73810000000000         0.000000000000000E+000
   8.97750000000000         0.000000000000000E+000
   9.21690000000000         0.000000000000000E+000
   9.45630000000000         0.000000000000000E+000
   9.69570000000000         0.000000000000000E+000
   9.93510000000000         0.000000000000000E+000
   10.1745000000000         0.000000000000000E+000
   10.4139000000000         0.000000000000000E+000
   10.6533000000000         0.000000000000000E+000
   10.8927000000000         0.000000000000000E+000
   11.1321000000000         0.000000000000000E+000
   11.3715000000000         0.000000000000000E+000
   11.6109000000000        -1.564896107214019E-259
   11.8503000000000         1.368744953854032E-245
   12.0897000000000        -4.569469830284267E-239
   12.3291000000000        -6.236494716169989E-236
   12.5685000000000         1.583834783374585E-215
   12.8079000000000        -7.004500293788998E-210
   13.0473000000000        -4.279438066445117E-208
   13.2867000000000         7.070469649924091E-206
   13.5261000000000         7.440392506586281E-204
   13.7655000000000         3.014517018043088E-202
   14.0049000000000         5.717999483012115E-201
   14.2443000000000        -1.684894349152457E-200
   14.4837000000000        -4.685010095736146E-198
   14.7231000000000        -1.721811830420105E-196
   14.9625000000000        -4.149009195452205E-195
   15.2019000000000        -7.770179646645804E-194
   15.4413000000000        -1.206122943295830E-192
   15.6807000000000        -1.604911501673999E-191
   15.9201000000000        -1.868134427649761E-190
   16.1595000000000        -1.926381377722410E-189
   16.3989000000000        -1.772238696902528E-188
   16.6383000000000        -1.457138074476942E-187
   16.8777000000000        -1.065066760971133E-186
   17.1171000000000        -6.797164841234457E-186
   17.3565000000000        -3.603902999248052E-185
   17.5959000000000        -1.333830834575335E-184
   17.8353000000000         3.293912065655537E-185
   18.0747000000000         6.852509727613924E-183
   18.3141000000000         8.655200943723039E-182
   18.5535000000000         7.903211870223837E-181
   18.7929000000000         6.147175808730621E-180
   19.0323000000000         4.297027421634835E-179
   19.2717000000000         2.767624480985028E-178
   19.5111000000000         1.665569227924704E-177
   19.7505000000000         9.448537832469449E-177
   19.9899000000000         5.083153920019222E-176
   20.2293000000000         2.604763170135569E-175
   20.4687000000000         1.275575110083034E-174
   20.7081000000000         5.985042113011653E-174
   20.9475000000000         2.696163179217782E-173
   21.1869000000000         1.168070620637596E-172
   21.4263000000000         4.873415749959790E-172
   21.6657000000000         1.960364241094754E-171
   21.9051000000000         7.610257155990718E-171
   22.1445000000000         2.853542895750254E-170
   22.3839000000000         1.034233860217959E-169
   22.6233000000000         3.625906617322729E-169
   22.8627000000000         1.230582854022352E-168
   23.1021000000000         4.046653915457574E-168
   23.3415000000000         1.290891278017706E-167
   23.5809000000000         4.001457735729575E-167
   23.8203000000000         1.208188338545152E-166
   24.0597000000000         3.565862446364189E-166
   24.2991000000000         1.033856544601480E-165
   24.5385000000000         2.964130676724087E-165
   24.7779000000000         8.472125570643277E-165
   25.0173000000000         2.434936883986751E-164
   25.2567000000000         7.088353640957602E-164
   25.4961000000000         2.097847446110389E-163
   25.7355000000000         6.303668807128866E-163
   25.9749000000000         1.911391476763592E-162
   26.2143000000000         5.795336580242119E-162
   26.4537000000000         1.739454976007165E-161
   26.6931000000000         5.118993178193139E-161
   26.9325000000000         1.464149929398408E-160
   27.1719000000000         4.036116481038534E-160
   27.4113000000000         1.062442931832048E-159
   27.6507000000000         2.638111272839040E-159
   27.8901000000000         6.058206598160483E-159
   28.1295000000000         1.237103340990513E-158
   28.3689000000000         2.023517070422489E-158
   28.6083000000000         1.508836664633761E-158
   28.8477000000000        -6.841213876931044E-158
   29.0871000000000        -4.612031910264118E-157
   29.3265000000000        -1.879024201639818E-156
   29.5659000000000        -6.337596189083409E-156
   29.8053000000000        -1.905865285045751E-155
   30.0447000000000        -5.247513022307644E-155
   30.2841000000000        -1.334137578777382E-154
   30.5235000000000        -3.122993605611776E-154
   30.7629000000000        -6.622649290507334E-154
   31.0023000000000        -1.218258320383603E-153
   31.2417000000000        -1.696032391709571E-153
   31.4811000000000        -5.451997282106037E-154
   31.7205000000000         7.776657678674793E-153
   31.9599000000000         3.981258537063884E-152
   32.1993000000000         1.393850362143807E-151
   32.4387000000000         4.114281163082677E-151
   32.6781000000000         1.082403735001635E-150
   32.9175000000000         2.580999531441390E-150
   33.1569000000000         5.559510838149465E-150
   33.3963000000000         1.053286373544989E-149
   33.6357000000000         1.612900365771451E-149
   33.8751000000000         1.323479191853861E-149
   34.1145000000000        -3.155725104851854E-149
   34.3539000000000        -2.177598234832738E-148
   34.5933000000000        -8.070804028083351E-148
   34.8327000000000        -2.424457312604016E-147
   35.0721000000000        -6.434501175313486E-147
   35.3115000000000        -1.554033776748438E-146
   35.5509000000000        -3.445553113216296E-146
   35.7903000000000        -6.978873886759858E-146
   36.0297000000000        -1.262509018114056E-145
   36.2691000000000        -1.912271044985861E-145
   36.5085000000000        -1.883060034184510E-145
   36.7479000000000         1.432985389253401E-145
   36.9873000000000         1.531046326550703E-144
   37.2267000000000         5.775559994036058E-144
   37.4661000000000         1.694955289157541E-143
   37.7055000000000         4.355826419703253E-143
   37.9449000000000         1.019877201974413E-142
   38.1843000000000         2.210005854825061E-142
   38.4237000000000         4.450686078550437E-142
   38.6631000000000         8.291549690274678E-142
   38.9025000000000         1.405901414087162E-141
   39.1419000000000         2.082834794829005E-141
   39.3813000000000         2.385542589815122E-141
   39.6207000000000         8.980799747003424E-142
   39.8601000000000        -5.828115712712018E-141
   40.0995000000000        -2.517548185844196E-140
   40.3389000000000        -7.133545652958463E-140
   40.5783000000000        -1.687227717639679E-139
   40.8177000000000        -3.537633628510578E-139
   41.0571000000000        -6.688631695425772E-139
   41.2965000000000        -1.134234133369771E-138
   41.5359000000000        -1.668763116979051E-138
   41.7753000000000        -1.908683772517496E-138
   42.0147000000000        -8.447987443248532E-139
   42.2541000000000         3.820984724970652E-138
   42.4935000000000         1.667187177494520E-137
   42.7329000000000         4.583421893989935E-137
   42.9723000000000         1.039351478467359E-136
   43.2117000000000         2.071249987809893E-136
   43.4511000000000         3.684327404838733E-136
   43.6905000000000         5.781320892789939E-136
   43.9299000000000         7.585208708237184E-136
   44.1693000000000         6.744439304203237E-136
   44.4087000000000        -2.223675758966846E-136
   44.6481000000000        -3.028270034369524E-135
   44.8875000000000        -9.675000297725565E-135
   45.1269000000000        -2.313618298857513E-134
   45.3663000000000        -4.719399556736066E-134
   45.6057000000000        -8.499240081284743E-134
   45.8451000000000        -1.349426288776048E-133
   46.0845000000000        -1.816649641851702E-133
   46.3239000000000        -1.788104785851591E-133
   46.5633000000000        -2.058645952395575E-134
   46.8027000000000         4.986540360231412E-133
   47.0421000000000         1.729041852509450E-132
   47.2815000000000         4.186847469230260E-132
   47.5209000000000         8.488105215127381E-132
   47.7603000000000         1.506541830420581E-131
   47.9997000000000         2.344728578189819E-131
   48.2391000000000         3.077428313880502E-131
   48.4785000000000         2.916306533764037E-131
   48.7179000000000         1.638064121916376E-132
   48.9573000000000        -8.311307564170834E-131
   49.1967000000000        -2.755127397507051E-130
   49.4361000000000        -6.448863960579083E-130
   49.6755000000000        -1.264733429177856E-129
   49.9149000000000        -2.166286041532320E-129
   50.1543000000000        -3.233526576227166E-129
   50.3937000000000        -4.004419524306453E-129
   50.6331000000000        -3.344234509329417E-129
   50.8725000000000         1.015659601272475E-129
   51.1119000000000         1.299714588035174E-128
   51.3513000000000         3.849467232745213E-128
   51.5907000000000         8.490267717581765E-128
   51.8301000000000         1.587297569084694E-127
   52.0695000000000         2.594637426540497E-127
   52.3089000000000         3.671071534508736E-127
   52.5483000000000         4.204733357501825E-127
   52.7877000000000         2.843653946292096E-127
   53.0271000000000        -2.921640304565421E-127
   53.2665000000000        -1.714569294068798E-126
   53.5059000000000        -4.548001593383087E-126
   53.7453000000000        -9.427443076249863E-126
   53.9847000000000        -1.676722710474632E-125
   54.2241000000000        -2.611294762242464E-125
   54.4635000000000        -3.493992434847092E-125
   54.7029000000000        -3.672110506621782E-125
   54.9423000000000        -1.824639780040613E-125
   55.1817000000000         4.339369484317214E-125
   55.4211000000000         1.828663715935726E-124
   55.6605000000000         4.448791001484758E-124
   55.8999000000000         8.735852786657330E-124
   56.1393000000000         1.485116073789365E-123
   56.3787000000000         2.212468497364636E-123
   56.6181000000000         2.811131775266664E-123
   56.8575000000000         2.718379345610628E-123
   57.0969000000000         8.747837905326508E-124
   57.3363000000000        -4.448717165692507E-123
   57.5757000000000        -1.571150840357087E-122
   57.8151000000000        -3.584538848612380E-122
   58.0545000000000        -6.733666673658227E-122
   58.2939000000000        -1.101579872031308E-121
   58.5333000000000        -1.579574423576976E-121
   58.7727000000000        -1.919804032381578E-121
   59.0121000000000        -1.726475978341358E-121
   59.2515000000000        -2.985099516881015E-122
   59.4909000000000         3.447557114073504E-121
   59.7303000000000         1.096530337570021E-120
   59.9697000000000         2.385477797254229E-120
   60.2091000000000         4.324162108184748E-120
   60.4485000000000         6.851488200354784E-120
   60.6879000000000         9.516405301372264E-120
   60.9273000000000         1.115494290100834E-119
   61.1667000000000         9.474393529251222E-120
   61.4061000000000         6.232677400086122E-121
   61.6455000000000        -2.106081226250812E-119
   61.8849000000000        -6.276123380835982E-119
   62.1243000000000        -1.317621061091157E-118
   62.3637000000000        -2.320707185058507E-118
   62.6031000000000        -3.580981004261374E-118
   62.8425000000000        -4.845138287033604E-118
   63.0819000000000        -5.520341757547766E-118
   63.3213000000000        -4.504782800008180E-118
   63.5607000000000        -3.386570114537999E-120
   63.8001000000000         1.036778900152521E-117
   64.0395000000000         2.967286167175060E-117
   64.2789000000000         6.064397291746081E-117
   64.5183000000000         1.043323980893011E-116
   64.7577000000000         1.574651156972933E-116
   64.9971000000000         2.085025034764963E-116
   65.2365000000000         2.324637434518560E-116
   65.4759000000000         1.852647117041291E-116
   65.7153000000000        -5.925956858342048E-119
   65.9547000000000        -4.155440871330238E-116
   66.1941000000000        -1.162261828668375E-115
   66.4335000000000        -2.327245887772594E-115
   66.6729000000000        -3.925956242636125E-115
   66.9123000000000        -5.813617824100666E-115
   67.1517000000000        -7.558928147286267E-115
   67.3911000000000        -8.289796823633255E-115
   67.6305000000000        -6.541622407697878E-115
   67.8699000000000        -1.712209662992994E-116
   68.1093000000000         1.355748549082936E-114
   68.3487000000000         3.756241403598381E-114
   68.5881000000000         7.401516482756313E-114
   68.8275000000000         1.227000085570434E-113
   69.0669000000000         1.785314584519811E-113
   69.3063000000000         2.282879362501306E-113
   69.5457000000000         2.469743081643026E-113
   69.7851000000000         1.947866205398184E-113
   70.0245000000000         1.641169974895241E-114
   70.2639000000000        -3.547367305745691E-113
   70.5033000000000        -9.839843059972850E-113
   70.7427000000000        -1.910946181030023E-112
   70.9821000000000        -3.110371069408885E-112
   71.2215000000000        -4.438138033707868E-112
   71.4609000000000        -5.567480249898439E-112
   71.7003000000000        -5.928768438914070E-112
   71.9397000000000        -4.677247686297268E-112
   72.1791000000000        -7.254296869129974E-113
   72.4185000000000         7.113122267745579E-112
   72.6579000000000         1.982008773108517E-111
   72.8973000000000         3.767506770954709E-111
   73.1367000000000         5.957210032480232E-111
   73.3761000000000         8.223319765866267E-111
   73.6155000000000         9.951434617846638E-111
   73.8549000000000         1.021366435809777E-110
   74.0943000000000         7.830368102291257E-111
   74.3337000000000         1.572186550452776E-111
   74.5731000000000        -9.457449879971995E-111
   74.8125000000000        -2.526000091061252E-110
   75.0519000000000        -4.428262928736102E-110
   75.2913000000000        -6.287498614656570E-110
   75.5307000000000        -7.524343393810953E-110
   75.7701000000000        -7.445515142387093E-110
   76.0095000000000        -5.514016602441100E-110
   76.2489000000000        -1.842963410521381E-110
   76.4883000000000         2.082850648190979E-110
   76.7277000000000         2.563181316120081E-110
   76.9671000000000        -6.990403272675317E-110
   77.2065000000000        -3.599330324198275E-109
   77.4459000000000        -9.500588568257203E-109
   77.6853000000000        -1.912481158903875E-108
   77.9247000000000        -3.200227770688406E-108
   78.1641000000000        -4.511054856435916E-108
   78.4035000000000        -5.103182866133374E-108
   78.6429000000000        -3.588943363724128E-108
   78.8823000000000         2.227629006339612E-108
   79.1217000000000         1.534594309724308E-107
   79.3611000000000         3.920312212710011E-107
   79.6005000000000         7.668456454679166E-107
   79.8399000000000         1.282085163166544E-106
   80.0793000000000         1.886202398839668E-106
   80.3187000000000         2.428143739013144E-106
   80.5581000000000         2.604157541373741E-106
   80.7975000000000         1.905734076669547E-106
   81.0369000000000        -4.098624814084311E-107
   81.2763000000000        -5.290689248243543E-106
   81.5157000000000        -1.375111679255819E-105
   81.7551000000000        -2.655758316092573E-105
   81.9945000000000        -4.367057575226712E-105
   82.2339000000000        -6.339227075272955E-105
   82.4733000000000        -8.122367172313379E-105
   82.7127000000000        -8.854313691192865E-105
   82.9521000000000        -7.139523325955662E-105
   83.1915000000000        -9.931368987170067E-106
   83.4309000000000         1.206416079437428E-104
   83.6703000000000         3.464190763445358E-104
   83.9097000000000         6.870304703958622E-104
   84.1491000000000         1.142314143712379E-103
   84.3885000000000         1.672490052623025E-103
   84.6279000000000         2.172157402445151E-103
   84.8673000000000         2.440828891117537E-103
   85.1067000000000         2.156475168551049E-103
   85.3461000000000         8.637548177215313E-104
   85.5855000000000        -2.005102687232004E-103
   85.8249000000000        -7.052437967969856E-103
   86.0643000000000        -1.475158077760162E-102
   86.3037000000000        -2.516952334728126E-102
   86.5431000000000        -3.755820242126919E-102
   86.7825000000000        -4.982233444353974E-102
   87.0219000000000        -5.791834013443712E-102
   87.2613000000000        -5.531090083936299E-102
   87.5007000000000        -3.271152911035234E-102
   87.7401000000000         2.156005941055415E-102
   87.9795000000000         1.201355558420170E-101
   88.2189000000000         2.735446140993253E-101
   88.4583000000000         4.850316480047978E-101
   88.6977000000000         7.429178029773784E-101
   88.9371000000000         1.010644500297863E-100
   89.1765000000000         1.215463294308588E-100
   89.4159000000000         1.238002453722437E-100
   89.6553000000000         9.066431472467859E-101
   89.8947000000000         2.644715368895502E-103
   90.1341000000000        -1.716069418295555E-100
   90.3735000000000        -4.463235992943386E-100
   90.6129000000000        -8.335750266377382E-100
   90.8523000000000        -1.318260119224879E-099
   91.0917000000000        -1.843314674986326E-099
   91.3311000000000        -2.290024280197308E-099
   91.5705000000000        -2.459437954477785E-099
   91.8099000000000        -2.061254246814457E-099
   92.0493000000000        -7.197775010310711E-100
   92.2887000000000         1.990307707659937E-099
   92.5281000000000         6.463499273131132E-099
   92.7675000000000         1.292397360570456E-098
   93.0069000000000         2.121756748772796E-098
   93.2463000000000         3.053757595961751E-098
   93.4857000000000         3.910753529159425E-098
   93.7251000000000         4.387553600003719E-098
   93.9645000000000         4.031619377012980E-098
   94.2039000000000         2.248469262384288E-098
   94.4433000000000        -1.648593364701339E-098
   94.6827000000000        -8.322233814077747E-098
   94.9221000000000        -1.820679859792516E-097
   95.1615000000000        -3.120170135090297E-097
   95.4009000000000        -4.626521858239717E-097
   95.6403000000000        -6.094127249318565E-097
   95.8797000000000        -7.089629582611090E-097
   96.1191000000000        -6.960170851176730E-097
   96.3585000000000        -4.836467474330456E-097
   96.5979000000000         3.026036805567052E-098
   96.8373000000000         9.473105527935054E-097
   97.0767000000000         2.340710848224844E-096
   97.3161000000000         4.213202969317396E-096
   97.5555000000000         6.441166845517558E-096
   97.7949000000000         8.709235833339377E-096
   98.0343000000000         1.044566035991513E-095
   98.2737000000000         1.077629881717961E-095
   98.5131000000000         8.523772831471684E-096
   98.7525000000000         2.286443286996269E-096
   98.9919000000000        -9.363133809878833E-096
   99.2313000000000        -2.752239606264327E-095
   99.4707000000000        -5.242089277583652E-095
   99.7101000000000        -8.270512180450103E-095
   99.9495000000000        -1.146010243019343E-094
   100.188900000000        -1.410818764210169E-094
   100.428300000000        -1.512622707389864E-094
   100.667700000000        -1.303423758158770E-094
   100.907100000000        -6.052134767391588E-095
   101.146500000000         7.664640145202778E-095
   101.385900000000         2.960064122758812E-094
   101.625300000000         6.023884624966933E-094
   101.864700000000         9.820907339998073E-094
   102.104100000000         1.392922455988346E-093
   102.343500000000         1.754301838878598E-093
   102.582900000000         1.939957574516185E-093
   102.822300000000         1.776929008147184E-093
   103.061700000000         1.055577658513792E-093
   103.301100000000        -4.441371325321183E-094
   103.540500000000        -2.905271662342394E-093
   103.779900000000        -6.402459031606693E-093
   104.019300000000        -1.080743708867595E-092
   104.258700000000        -1.567899795136508E-092
   104.498100000000        -2.015381134395961E-092
   104.737500000000        -2.286563850524734E-092
   104.976900000000        -2.193224105457486E-092
   105.216300000000        -1.505937133213512E-092
   105.455700000000         1.840276825042448E-094
   105.695100000000         2.587062790222196E-092
   105.934500000000         6.297158685147437E-092
   106.173900000000         1.103790892200938E-091
   106.413300000000         1.637739749144704E-091
   106.652700000000         2.145079260134747E-091
   106.892100000000         2.487780616546184E-091
   107.131500000000         2.474842574948385E-091
   107.370900000000         1.872516224722943E-091
   107.610300000000         4.313701673066486E-092
   107.849700000000        -2.065253476980176E-091
   108.089100000000        -5.728974659819906E-091
   108.328500000000        -1.047195975842660E-090
   108.567900000000        -1.589829707386991E-090
   108.807300000000        -2.119751446231561E-090
   109.046700000000        -2.506647695315059E-090
   109.286100000000        -2.569586866748476E-090
   109.525500000000        -2.086521942708326E-090
   109.764900000000        -8.192789079020239E-091
   110.004300000000         1.442033014424573E-090
   110.243700000000         4.813292165028425E-090
   110.483100000000         9.231154924714827E-090
   110.722500000000         1.435581198712387E-089
   110.961900000000         1.947648311287779E-089
   111.201300000000         2.344282649862656E-089
   111.440700000000         2.465364189005758E-089
   111.680100000000         2.114025131702035E-089
   111.919500000000         1.078306007949849E-089
   112.158900000000        -8.307136844559989E-090
   112.398300000000        -3.722974358829502E-089
   112.637700000000        -7.557550774699160E-089
   112.877100000000        -1.206136239265396E-088
   113.116500000000        -1.665097803993166E-088
   113.355900000000        -2.037666719937846E-088
   113.595300000000        -2.191411520095949E-088
   113.834700000000        -1.963347211661569E-088
   114.074100000000        -1.177553929080018E-088
   114.313500000000         3.241478500457205E-089
   114.552900000000         2.637641845765553E-088
   114.792300000000         5.739822835489223E-088
   115.031700000000         9.425149095871136E-088
   115.271100000000         1.324534440309487E-087
   115.510500000000         1.646705738461239E-087
   115.749900000000         1.806671526917031E-087
   115.989300000000         1.678453470211856E-087
   116.228700000000         1.125913927242784E-087
   116.468100000000         2.588093880400148E-089
   116.707500000000        -1.698646405935196E-087
   116.946900000000        -4.036718692446833E-087
   117.186300000000        -6.843238327148836E-087
   117.425700000000        -9.795696132715397E-087
   117.665100000000        -1.236455262894106E-086
   117.904500000000        -1.381085931264981E-086
   118.143900000000        -1.322626161899447E-086
   118.383300000000        -9.629693527270054E-087
   118.622700000000        -2.130783781483855E-087
   118.862100000000         9.838665778683626E-087
   119.101500000000         2.623725779926890E-086
   119.340900000000         4.610075407559546E-086
   119.580300000000         6.725418176144063E-086
   119.819700000000         8.612174484001413E-086
   120.059100000000         9.772416438239487E-086
   120.298500000000         9.596044567481964E-086
   120.537900000000         7.426212703332632E-086
   120.777300000000         2.667639458910604E-086
   121.016700000000        -5.062484389822525E-086
   121.256100000000        -1.575013379030028E-085
   121.495500000000        -2.878717699736195E-085
   121.734900000000        -4.279461199892610E-085
   121.974300000000        -5.551215634683786E-085
   122.213700000000        -6.380923774781645E-085
   122.453100000000        -6.387494552170962E-085
   122.692500000000        -5.163654465849236E-085
   122.931900000000        -2.343425996471284E-085
   123.171300000000         2.305807243667707E-085
   123.410700000000         8.773127106936177E-085
   123.650100000000         1.668901865344490E-084
   123.889500000000         2.522593685439292E-084
   124.128900000000         3.304166313009110E-084
   124.368300000000         3.829694708189808E-084
   124.607700000000         3.877899162188502E-084
   124.847100000000         3.215611313638858E-084
   125.086500000000         1.637470499193467E-084
   125.325900000000        -9.813408135267941E-085
   125.565300000000        -4.623649338224212E-084
   125.804700000000        -9.068181221300474E-084
   126.044100000000        -1.383867787307273E-083
   126.283500000000        -1.817936326788468E-083
   126.522900000000        -2.107360927274284E-083
   126.762300000000        -2.132181648035903E-083
   127.001700000000        -1.769015831710959E-083
   127.241100000000        -9.133192381847003E-084
   127.480500000000         4.919790392538771E-084
   127.719900000000         2.424185566225097E-083
   127.959300000000         4.749549095837641E-083
   128.198700000000         7.199508824404915E-083
   128.438100000000         9.362484132618442E-083
   128.677500000000         1.069975024899342E-082
   128.916900000000         1.059307094705525E-082
   129.156300000000         8.429014243691131E-083
   129.395700000000         3.719969579435985E-083
   129.635100000000        -3.745187174866677E-083
   129.874500000000        -1.373666318433493E-082
   130.113900000000        -2.543110603438738E-082
   130.353300000000        -3.730535620688903E-082
   130.592700000000        -4.711767687754326E-082
   130.832100000000        -5.201913106263635E-082
   131.071500000000        -4.883209835830396E-082
   131.310900000000        -3.451793038750643E-082
   131.550300000000        -6.830208248642558E-083
   131.789700000000         3.488587932620743E-082
   132.029100000000         8.883186777642822E-082
   132.268500000000         1.499643851461202E-081
   132.507900000000         2.094518580920605E-081
   132.747300000000         2.545924013457131E-081
   132.986700000000         2.694182792112382E-081
   133.226100000000         2.361916454705784E-081
   133.465500000000         1.379319322008712E-081
   133.704900000000        -3.800056424449239E-082
   133.944300000000        -2.954108603456694E-081
   134.183700000000        -6.242328405006684E-081
   134.423100000000        -9.955783351344133E-081
   134.662500000000        -1.357776588856332E-080
   134.901900000000        -1.634567614647821E-080
   135.141300000000        -1.726807081556570E-080
   135.380700000000        -1.519112006796706E-080
   135.620100000000        -8.927576273860359E-081
   135.859500000000         2.542479360803935E-081
   136.098900000000         1.979707650306532E-080
   136.338300000000         4.263321226048841E-080
   136.577700000000         6.968804518759796E-080
   136.817100000000         9.806537451108784E-080
   137.056500000000         1.230358633994515E-079
   137.295900000000         1.379044832041168E-079
   137.535300000000         1.341616908692190E-079
   137.774700000000         1.020505477127230E-079
   138.014100000000         3.168291952980407E-080
   138.253500000000        -8.518531270505328E-080
   138.492900000000        -2.526681440617068E-079
   138.732300000000        -4.676040234539216E-079