  -1.79550000000000         0.000000000000000E+000
  -1.55610000000000         0.000000000000000E+000
  -1.31670000000000         0.000000000000000E+000
  -1.07730000000000         0.000000000000000E+000
 -0.837900000000000         0.000000000000000E+000
 -0.598500000000000         0.000000000000000E+000
 -0.359100000000000         0.000000000000000E+000
 -0.119700000000000         0.000000000000000E+000
  0.119700000000000         0.000000000000000E+000
  0.359100000000000         0.000000000000000E+000
  0.598500000000000         0.000000000000000E+000
  0.837900000000000         0.000000000000000E+000
   1.07730000000000         0.000000000000000E+000
   1.31670000000000         0.000000000000000E+000
   1.55610000000000         0.000000000000000E+000
   1.79550000000000         0.000000000000000E+000
   2.03490000000000         0.000000000000000E+000
   2.27430000000000         0.000000000000000E+000
   2.51370000000000         0.000000000000000E+000
   2.75310000000000         0.000000000000000E+000
   2.99250000000000         0.000000000000000E+000
   3.23190000000000         0.000000000000000E+000
   3.47130000000000         0.000000000000000E+000
   3.71070000000000         0.000000000000000E+000
   3.95010000000000         0.000000000000000E+000
   4.18950000000000         0.000000000000000E+000
   4.42890000000000         0.000000000000000E+000
   4.66830000000000         0.000000000000000E+000
   4.90770000000000         0.000000000000000E+000
   5.14710000000000         0.000000000000000E+000
   5.38650000000000         0.000000000000000E+000
   5.62590000000000         0.000000000000000E+000
   5.86530000000000         0.000000000000000E+000
   6.10470000000000         0.000000000000000E+000
   6.34410000000000         0.000000000000000E+000
   6.58350000000000         0.000000000000000E+000
   6.82290000000000         0.000000000000000E+000
   7.06230000000000         0.000000000000000E+000
   7.30170000000000         0.000000000000000E+000
   7.54110000000000         0.000000000000000E+000
   7.78050000000000         0.000000000000000E+000
   8.01990000000000         0.000000000000000E+000
   8.25930000000000         0.000000000000000E+000
   8.49870000000000         0.000000000000000E+000
   8.73810000000000         0.000000000000000E+000
   8.97750000000000         0.000000000000000E+000
   9.21690000000000         0.000000000000000E+000
   9.45630000000000         0.000000000000000E+000
   9.69570000000000         0.000000000000000E+000
   9.93510000000000         0.000000000000000E+000
   10.1745000000000         0.000000000000000E+000
   10.4139000000000         0.000000000000000E+000
   10.6533000000000         0.000000000000000E+000
   10.8927000000000         0.000000000000000E+000
   11.1321000000000         0.000000000000000E+000
   11.3715000000000         0.000000000000000E+000
   11.6109000000000         0.000000000000000E+000
   11.8503000000000        -8.968788905924843E-261
   12.0897000000000         7.844600354346386E-247
   12.3291000000000        -2.618869430303837E-240
   12.5685000000000        -3.579520042757390E-237
   12.8079000000000         9.077330928528624E-217
   13.0473000000000        -4.014426269915551E-211
   13.2867000000000        -2.532935566789686E-209
   13.5261000000000         4.001995750746433E-207
   13.7655000000000         4.344557747359360E-205
   14.0049000000000         1.814181801014232E-203
   14.2443000000000         3.635612250957530E-202
   14.4837000000000        -2.566720828245494E-202
   14.7231000000000        -2.693858906012093E-199
   14.9625000000000        -1.040662505684920E-197
   15.2019000000000        -2.583333728761643E-196
   15.4413000000000        -4.959533452427851E-195
   15.6807000000000        -7.878648586240973E-194
   15.9201000000000        -1.072426095793200E-192
   16.1595000000000        -1.277278499030970E-191
   16.3989000000000        -1.348786069021489E-190
   16.6383000000000        -1.272696250842074E-189
   16.8777000000000        -1.076171608419493E-188
   17.1171000000000        -8.129222554635931E-188
   17.3565000000000        -5.413842933686959E-187
   17.5959000000000        -3.066958222170873E-186
   17.8353000000000        -1.323703144800126E-185
   18.0747000000000        -2.151928593267968E-185
   18.3141000000000         3.629319639951533E-184
   18.5535000000000         5.707883137512931E-183
   18.7929000000000         5.634800669728491E-182
   19.0323000000000         4.592972831903175E-181
   19.2717000000000         3.324974384869426E-180
   19.5111000000000         2.205256054645125E-179
   19.7505000000000         1.362378499037757E-178
   19.9899000000000         7.919411409892090E-178
   20.2293000000000         4.360919906070172E-177
   20.4687000000000         2.285841112330623E-176
   20.7081000000000         1.144621222566608E-175
   20.9475000000000         5.490827215860998E-175
   21.1869000000000         2.528938068376280E-174
   21.4263000000000         1.120328180670699E-173
   21.6657000000000         4.780832133417425E-173
   21.9051000000000         1.967664619783908E-172
   22.1445000000000         7.818864004393237E-172
   22.3839000000000         3.002439116067067E-171
   22.6233000000000         1.115043016379495E-170
   22.8627000000000         4.007934774936108E-170
   23.1021000000000         1.395358728744837E-169
   23.3415000000000         4.709156839977203E-169
   23.5809000000000         1.542135751587066E-168
   23.8203000000000         4.906685681925594E-168
   24.0597000000000         1.519564811291428E-167
   24.2991000000000         4.592140976755349E-167
   24.5385000000000         1.358999298947488E-166
   24.7779000000000         3.957597744533985E-166
   25.0173000000000         1.141177129681961E-165
   25.2567000000000         3.282114277633792E-165
   25.4961000000000         9.485554182364348E-165
   25.7355000000000         2.771225289275082E-164
   25.9749000000000         8.206676520263131E-164
   26.2143000000000         2.459676339297185E-163
   26.4537000000000         7.420129190648107E-163
   26.6931000000000         2.234980902087043E-162
   26.9325000000000         6.661764683770769E-162
   27.1719000000000         1.947993725022010E-161
   27.4113000000000         5.543004589299081E-161
   27.6507000000000         1.522712663243753E-160
   27.8901000000000         4.003088697447690E-160
   28.1295000000000         9.955565906733119E-160
   28.3689000000000         2.299817431962364E-159
   28.6083000000000         4.763803661313407E-159
   28.8477000000000         8.092539791711344E-159
   29.0871000000000         7.500414796592613E-159
   29.3265000000000        -1.952435351578063E-158
   29.5659000000000        -1.542404333212477E-157
   29.8053000000000        -6.521791074500912E-157
   30.0447000000000        -2.242414154859382E-156
   30.2841000000000        -6.840122756660510E-156
   30.5235000000000        -1.908408867890341E-155
   30.7629000000000        -4.922666798139833E-155
   31.0023000000000        -1.173252133130234E-154
   31.2417000000000        -2.552450180754687E-154
   31.4811000000000        -4.903684418432341E-154
   31.7205000000000        -7.567385487061078E-154
   31.9599000000000        -5.774100510920080E-154
   32.1993000000000         1.883671671814878E-153
   32.4387000000000         1.233323876885338E-152
   32.6781000000000         4.636272218187320E-152
   32.9175000000000         1.424273181206513E-151
   33.1569000000000         3.864150883652296E-151
   33.3963000000000         9.490315451897318E-151
   33.6357000000000         2.115311280251283E-150
   33.8751000000000         4.205982279385085E-150
   34.1145000000000         7.055170437479262E-150
   34.3539000000000         8.095738062870364E-150
   34.5933000000000        -3.344023708748374E-150
   34.8327000000000        -6.103946807506344E-149
   35.0721000000000        -2.576862827459724E-148
   35.3115000000000        -8.231095451968708E-148
   35.5509000000000        -2.279186240299429E-147
   35.7903000000000        -5.709990739639722E-147
   36.0297000000000        -1.314055256490581E-146
   36.2691000000000        -2.780685152511184E-146
   36.5085000000000        -5.343282714009845E-146
   36.7479000000000        -8.985106421316456E-146
   36.9873000000000        -1.180565238358676E-145
   37.2267000000000        -5.851410521461915E-146
   37.4661000000000         3.320392869864218E-145
   37.7055000000000         1.694011556348473E-144
   37.9449000000000         5.552410744345965E-144
   38.1843000000000         1.525596686787848E-143
   38.4237000000000         3.762558810679517E-143
   38.6631000000000         8.550314162379894E-143
   38.9025000000000         1.809015232214938E-142
   39.1419000000000         3.568754327878612E-142
   39.3813000000000         6.522215199359944E-142
   39.6207000000000         1.084288682786945E-141
   39.8601000000000         1.567826928456712E-141
   40.0995000000000         1.717342108277871E-141
   40.3389000000000         4.239910086545357E-142
   40.5783000000000        -4.957763456356704E-141
   40.8177000000000        -2.000941815690231E-140
   41.0571000000000        -5.533608606397836E-140
   41.2965000000000        -1.289968807346196E-139
   41.5359000000000        -2.676633103812373E-139
   41.7753000000000        -5.019704925428804E-139
   42.0147000000000        -8.456688462012045E-139
   42.2541000000000        -1.237784609621823E-138
   42.4935000000000        -1.410910720930421E-138
   42.7329000000000        -6.285325151995224E-139
   42.9723000000000         2.780712946733707E-138
   43.2117000000000         1.214672701871229E-137
   43.4511000000000         3.338356358582648E-137
   43.6905000000000         7.573615001133901E-137
   43.9299000000000         1.512228508651614E-136
   44.1693000000000         2.701821729351462E-136
   44.4087000000000         4.277954683451955E-136
   44.6481000000000         5.726643531931267E-136
   44.8875000000000         5.439759356540594E-136
   45.1269000000000        -3.920958194836275E-137
   45.3663000000000        -1.948384348017879E-135
   45.6057000000000        -6.562358377882374E-135
   45.8451000000000        -1.604744748039707E-134
   46.0845000000000        -3.326641710849145E-134
   46.3239000000000        -6.089703456335343E-134
   46.5633000000000        -9.877570253866030E-134
   46.8027000000000        -1.378342290933296E-133
   47.0421000000000        -1.483137160199876E-133
   47.2815000000000        -5.969773384055715E-134
   47.5209000000000         2.688763577604869E-133
   47.7603000000000         1.083923791168789E-132
   47.9997000000000         2.762405901978324E-132
   48.2391000000000         5.784707296542890E-132
   48.4785000000000         1.057075548510058E-131
   48.7179000000000         1.702820777299264E-131
   48.9573000000000         2.357954138154305E-131
   49.1967000000000         2.536746847820864E-131
   49.4361000000000         1.136511024969550E-131
   49.6755000000000        -3.959720926879107E-131
   49.9149000000000        -1.630443863843534E-130
   50.1543000000000        -4.106465289751911E-130
   50.3937000000000        -8.435697107723276E-130
   50.6331000000000        -1.505995625937545E-129
   50.8725000000000        -2.360087513225872E-129
   51.1119000000000        -3.155969551808614E-129
   51.3513000000000        -3.206954486724121E-129
   51.5907000000000        -1.051718903126654E-129
   51.8301000000000         5.969489479735055E-129
   52.0695000000000         2.208787483324745E-128
   52.3089000000000         5.307673961269611E-128
   52.5483000000000         1.051053817292965E-127
   52.7877000000000         1.812323430348122E-127
   53.0271000000000         2.736569562088591E-127
   53.2665000000000         3.493369592903298E-127
   53.5059000000000         3.267509497451838E-127
   53.7453000000000         4.350823559949235E-128
   53.9847000000000        -7.800434900117382E-127
   54.2241000000000        -2.564564571651948E-126
   54.4635000000000        -5.845680308089702E-126
   54.7029000000000        -1.112928556715979E-125
   54.9423000000000        -1.851746401938277E-125
   55.1817000000000        -2.695138659104584E-125
   55.4211000000000        -3.289831410212689E-125
   55.6605000000000        -2.836473829254333E-125
   55.8999000000000         1.665908661225735E-126
   56.1393000000000         8.176378959658557E-125
   56.3787000000000         2.469771775947480E-124
   56.6181000000000         5.389923566025317E-124
   56.8575000000000         9.921201319218372E-124
   57.0969000000000         1.601044642913343E-123
   57.3363000000000         2.260105077430022E-123
   57.5757000000000         2.664199032208351E-123
   57.8151000000000         2.167829361218202E-123
   58.0545000000000        -3.829241190285282E-124
   58.2939000000000        -6.792900884482290E-123
   58.5333000000000        -1.951629186939728E-122
   58.7727000000000        -4.129259665539587E-122
   59.0121000000000        -7.407175142472496E-122
   59.2515000000000        -1.167457474742593E-121
   59.4909000000000        -1.611305745052666E-121
   59.7303000000000        -1.857566380920399E-121
   59.9697000000000        -1.475379602210784E-121
   60.2091000000000         2.739807993812438E-122
   60.4485000000000         4.501620555399704E-121
   60.6879000000000         1.265600989416302E-120
   60.9273000000000         2.626447569830789E-120
   61.1667000000000         4.626610253567310E-120
   61.4061000000000         7.169772790033948E-120
   61.6455000000000         9.748656271592349E-120
   61.8849000000000         1.112049489886946E-119
   62.1243000000000         8.895339100077691E-120
   62.3637000000000        -8.814139583979222E-121
   62.6031000000000        -2.395868758133951E-119
   62.8425000000000        -6.755940845122004E-119
   63.0819000000000        -1.389287602967259E-118
   63.3213000000000        -2.419364935553928E-118
   63.5607000000000        -3.707622001696474E-118
   63.8001000000000        -4.997819991094716E-118
   64.0395000000000        -5.693815524833505E-118
   64.2789000000000        -4.689189328210721E-118
   64.5183000000000        -2.089139239121689E-119
   64.7577000000000         1.025089743934372E-117
   64.9971000000000         2.973540620088453E-117
   65.2365000000000         6.116968550257154E-117
   65.4759000000000         1.059270105559190E-116
   65.7153000000000         1.613022934617496E-116
   65.9547000000000         2.166436133102994E-116
   66.1941000000000         2.481691208412099E-116
   66.4335000000000         2.130826600332201E-116
   66.6729000000000         4.461624509668789E-117
   66.9123000000000        -3.488559873620534E-116
   67.1517000000000        -1.075520377458069E-115
   67.3911000000000        -2.235404778745488E-115
   67.6305000000000        -3.870396999915832E-115
   67.8699000000000        -5.880305039500225E-115
   68.1093000000000        -7.900026156744712E-115
   68.3487000000000        -9.142735784844007E-115
   68.5881000000000        -8.232654817243950E-115
   68.8275000000000        -3.080590077587252E-115
   69.0669000000000         9.103701724493795E-115
   69.3063000000000         3.152005274469982E-114
   69.5457000000000         6.702012415093040E-114
   69.7851000000000         1.166748760174244E-113
   70.0245000000000         1.774933088034799E-113
   70.2639000000000         2.392523348337593E-113
   70.5033000000000         2.806805616561260E-113
   70.7427000000000         2.657143256988260E-113
   70.9821000000000         1.412272542737082E-113
   71.2215000000000        -1.615225236149565E-113
   71.4609000000000        -7.186324662211788E-113
   71.7003000000000        -1.594827841202471E-112
   71.9397000000000        -2.810814927311443E-112
   72.1791000000000        -4.294866116626652E-112
   72.4185000000000        -5.820493393312907E-112
   72.6579000000000        -6.938450845866110E-112
   72.8973000000000        -6.920472295143775E-112
   73.1367000000000        -4.743246700827506E-112
   73.3761000000000         8.481965532599526E-113
   73.6155000000000         1.115261843551185E-111
   73.8549000000000         2.716044235110862E-111
   74.0943000000000         4.902195835281009E-111
   74.3337000000000         7.537124311062190E-111
   74.5731000000000         1.026215850841008E-110
   74.8125000000000         1.244516393355505E-110
   75.0519000000000         1.318045909291068E-110
   75.2913000000000         1.137781226080251E-110
   75.5307000000000         5.971651587667370E-111
   75.7701000000000        -3.746887858964945E-111
   76.0095000000000        -1.773262774785663E-110
   76.2489000000000        -3.487858068239912E-110
   76.4883000000000        -5.308077944144793E-110
   76.7277000000000        -7.008924733874318E-110
   76.9671000000000        -8.562869553269094E-110
   77.2065000000000        -1.051745088157262E-109
   77.4459000000000        -1.453489336286981E-109
   77.6853000000000        -2.399734736652545E-109
   77.9247000000000        -4.442068223741271E-109
   78.1641000000000        -8.318527771586909E-109
   78.4035000000000        -1.478037931855058E-108
   78.6429000000000        -2.416698540121093E-108
   78.8823000000000        -3.561049962468497E-108
   79.1217000000000        -4.577730709258122E-108
   79.3611000000000        -4.714899240719037E-108
   79.6005000000000        -2.605244323707623E-108
   79.8399000000000         3.899383963052752E-108
   80.0793000000000         1.775194489201909E-107
   80.3187000000000         4.241477691250170E-107
   80.5581000000000         8.099387374319103E-107
   80.7975000000000         1.344980120246731E-106
   81.0369000000000         1.989243620527904E-106
   81.2763000000000         2.610016934724103E-106
   81.5157000000000         2.927568362076838E-106
   81.7551000000000         2.457010833412435E-106
   81.9945000000000         4.643755378991162E-107
   82.2339000000000        -4.031123516535405E-106
   82.4733000000000        -1.215978321356784E-105
   82.7127000000000        -2.494356322491832E-105
   82.9521000000000        -4.280195937449456E-105
   83.1915000000000        -6.475218483492647E-105
   83.4309000000000        -8.727160049004393E-105
   83.6703000000000        -1.028767608797107E-104
   83.9097000000000        -9.862782645505198E-105
   84.1491000000000        -5.500355438009625E-105
   84.3885000000000         5.408943713239506E-105
   84.6279000000000         2.590367806372362E-104
   84.8673000000000         5.884755911676786E-104
   85.1067000000000         1.057804065804250E-103
   85.3461000000000         1.650725221631880E-103
   85.5855000000000         2.293150204524501E-103
   85.8249000000000         2.820658020369513E-103
   86.0643000000000         2.943973972516569E-103
   86.3037000000000         2.221842016568642E-103
   86.5431000000000         5.718527751292416E-105
   86.7825000000000        -4.260020679663444E-103
   87.0219000000000        -1.143266220450836E-102
   87.2613000000000        -2.192474048974059E-102
   87.5007000000000        -3.558681703580269E-102
   87.7401000000000        -5.112366851438777E-102
   87.9795000000000        -6.542486210641380E-102
   88.2189000000000        -7.284080347322206E-102
   88.4583000000000        -6.457925744070868E-102
   88.6977000000000        -2.851940298635108E-102
   88.9371000000000         5.011882404265511E-102
   89.1765000000000         1.866794725047525E-101
   89.4159000000000         3.929011908570498E-101
   89.6553000000000         6.700757515179706E-101
   89.8947000000000         9.992121706254321E-101
   90.1341000000000         1.328500164612213E-100
   90.3735000000000         1.559436170312650E-100
   90.6129000000000         1.534573588020557E-100
   90.8523000000000         1.031969485591747E-100
   91.0917000000000        -2.261606021036539E-101
   91.3311000000000        -2.540737832260049E-100
   91.5705000000000        -6.167782021970534E-100
   91.8099000000000        -1.120438814612796E-099
   92.0493000000000        -1.742234772473498E-099
   92.2887000000000        -2.405282877593193E-099
   92.5281000000000        -2.954261750860707E-099
   92.7675000000000        -3.132802226926791E-099
   93.0069000000000        -2.570639275072237E-099
   93.2463000000000        -7.924474570367235E-100
   93.4857000000000         2.735924907923735E-099
   93.7251000000000         8.505642414228747E-099
   93.9645000000000         1.678997043496086E-098
   94.2039000000000         2.738491466687640E-098
   94.4433000000000         3.926850969693897E-098
   94.6827000000000         5.020725696288780E-098
   94.9221000000000         5.637633562527064E-098
   95.1615000000000         5.211066833073568E-098
   95.4009000000000         2.996256963184636E-098
   95.6403000000000        -1.870121769577335E-098
   95.8797000000000        -1.022918865032686E-097
   96.1191000000000        -2.265148956012895E-097
   96.3585000000000        -3.906282864477251E-097
   96.5979000000000        -5.824606137958725E-097
   96.8373000000000        -7.725586480362805E-097
   97.0767000000000        -9.083640788431886E-097
   97.3161000000000        -9.100178468607290E-097
   97.5555000000000        -6.702030095476816E-097
   97.7949000000000        -6.122969916426748E-098
   98.0343000000000         1.046890470624393E-096
   98.2737000000000         2.753676087398239E-096
   98.5131000000000         5.078076821449858E-096
   98.7525000000000         7.890995092577000E-096
   98.9919000000000         1.083495482448805E-095
   99.2313000000000         1.324229126075916E-095
   99.4707000000000         1.407225422582548E-095
   99.7101000000000         1.189785211260165E-095
   99.9495000000000         4.983424284674411E-096
   100.188900000000        -8.499058704414034E-096
   100.428300000000        -3.006727698441932E-095
   100.667700000000        -6.030469297943485E-095
   100.907100000000        -9.801233814046521E-095
   101.146500000000        -1.391886045670682E-094
   101.385900000000        -1.759720848409481E-094
   101.625300000000        -1.957907390521642E-094
   101.864700000000        -1.810850888409234E-094
   102.104100000000        -1.100935009300213E-094
   102.343500000000         4.072976023056899E-095
   102.582900000000         2.920961999296315E-094
   102.822300000000         6.546461865240926E-094
   103.061700000000         1.119036168127928E-093
   103.301100000000         1.643923796504462E-093
   103.540500000000         2.143356877651949E-093
   103.779900000000         2.476281983389470E-093
   104.019300000000         2.442267052222296E-093
   104.258700000000         1.788852395951574E-093
   104.498100000000         2.368373646529550E-094
   104.737500000000        -2.470240157762761E-093
   104.976900000000        -6.487801385821072E-093
   105.216300000000        -1.176235110880596E-092
   105.455700000000        -1.789998894295186E-092
   105.695100000000        -2.402707971630810E-092
   105.934500000000        -2.867146374990616E-092
   106.173900000000        -2.970679752810125E-092
   106.413300000000        -2.441604520844221E-092
   106.652700000000        -9.739019879854070E-093
   106.892100000000         1.723196092727170E-092
   107.131500000000         5.846099956404915E-092
   107.370900000000         1.138739450607035E-091
   107.610300000000         1.800187229550740E-091
   107.849700000000         2.486357850816385E-091
   108.089100000000         3.054163921318090E-091
   108.328500000000         3.293628933685318E-091
   108.567900000000         2.932921218472088E-091
   108.807300000000         1.661044577974281E-091
   109.046700000000        -8.257116424929665E-092
   109.286100000000        -4.749086814030884E-091
   109.525500000000        -1.014515286115241E-090
   109.764900000000        -1.673705387555792E-090
   110.004300000000        -2.379850296706431E-090
   110.243700000000        -3.003348890602483E-090
   110.483100000000        -3.350986351151247E-090
   110.722500000000        -3.169564537438983E-090
   110.961900000000        -2.165377259028358E-090
   111.201300000000        -4.494676891856229E-092
   111.440700000000         3.419047432898059E-090
   111.680100000000         8.296000034028743E-090
   111.919500000000         1.438455032913097E-089
   112.158900000000         2.109110324541104E-089
   112.398300000000         2.732155454428642E-089
   112.637700000000         3.141828137592175E-089
   112.877100000000         3.118359750037872E-089
   113.116500000000         2.403626218945322E-089
   113.355900000000         7.345858400761151E-090
   113.595300000000        -2.102289424924062E-089
   113.834700000000        -6.195114349403101E-089
   114.074100000000        -1.141317989587958E-088
   114.313500000000        -1.730612938938455E-088
   114.552900000000        -2.301330210013904E-088
   114.792300000000        -2.720878002073775E-088
   115.031700000000        -2.811463001449866E-088
   115.271100000000        -2.361870462789716E-088
   115.510500000000        -1.153155977375408E-088
   115.749900000000         9.993244290064644E-089
   115.989300000000         4.187250924912521E-088
   116.228700000000         8.337138716098889E-088
   116.468100000000         1.313231435055678E-087
   116.707500000000         1.794232296183340E-087
   116.946900000000         2.177879722981338E-087
   117.186300000000         2.330173274859094E-087
   117.425700000000         2.090264688165498E-087
   117.665100000000         1.288941638263109E-087
   117.904500000000        -2.210231031480966E-088
   118.143900000000        -2.522520785395240E-087
   118.383300000000        -5.582046735004377E-087
   118.622700000000        -9.193473146738086E-087
   118.862100000000        -1.292701980563836E-086
   119.101500000000        -1.609668930951104E-086
   119.340900000000        -1.776263964897921E-086
   119.580300000000        -1.678644697459538E-086
   119.819700000000        -1.195575842359444E-086
   120.059100000000        -2.189229428494465E-087
   120.298500000000         1.317810205638850E-086
   120.537900000000         3.404515314954717E-086
   120.777300000000         5.916834200160559E-086
   121.016700000000         8.582041798385690E-086
   121.256100000000         1.095710646876693E-085
   121.495500000000         1.242949380131032E-085
   121.734900000000         1.225202008239718E-085
   121.974300000000         9.621886154541265E-086
   122.213700000000         3.810219537759100E-086
   122.453100000000        -5.658505084151514E-086
   122.692500000000        -1.878805357878274E-085
   122.931900000000        -3.487701431003755E-085
   123.171300000000        -5.230904778472357E-085
   123.410700000000        -6.841956871101268E-085
   123.650100000000        -7.950200344651696E-085
   123.889500000000        -8.101956773089174E-085
   124.128900000000        -6.807955227190413E-085
   124.368300000000        -3.620257988981147E-085
   124.607700000000         1.762327667286811E-085
   124.847100000000         9.367428851825226E-085
   125.086500000000         1.881547276863707E-084
   125.325900000000         2.920198967284048E-084
   125.565300000000         3.902607699716847E-084
   125.804700000000         4.620024176763581E-084
   126.044100000000         4.817721787109899E-084
   126.283500000000         4.222292109270640E-084
   126.522900000000         2.584960219251598E-084
   126.762300000000        -2.601499519062202E-085
   127.001700000000        -4.327263745040308E-084
   127.241100000000        -9.408242260101573E-084
   127.480500000000        -1.501266558490051E-083
   127.719900000000        -2.033512411159773E-083
   127.959300000000        -2.426822467951198E-083
   128.198700000000        -2.547924657124301E-083
   128.438100000000        -2.256406004729933E-083
   128.677500000000        -1.428301291232649E-083
   128.916900000000         1.303136044503463E-085
   129.156300000000         2.061477907745890E-083
   129.395700000000         4.593011153826300E-083
   129.635100000000         7.337744635632395E-083
   129.874500000000         9.867832601805148E-083
   130.113900000000         1.161063998235855E-082
   130.353300000000         1.189593065867097E-082
   130.592700000000         1.004316333012593E-082
   130.832100000000         5.489970742011451E-083
   131.071500000000        -2.044561012452019E-083
   131.310900000000        -1.237777556758201E-082
   131.550300000000        -2.468929417553572E-082
   131.789700000000        -3.739226813751060E-082
   132.029100000000        -4.809585002462532E-082
   132.268500000000        -5.370826792626499E-082
   132.507900000000        -5.072587299923156E-082
   132.747300000000        -3.573929777855704E-082
   132.986700000000        -6.161431198692531E-083
   133.226100000000         3.885743278990697E-082
   133.465500000000         9.741299739270862E-082
   133.704900000000         1.638737665493022E-081
   133.944300000000         2.281566336877123E-081
   134.183700000000         2.755088072500816E-081
   134.423100000000         2.870847235338541E-081
   134.662500000000         2.416016958662025E-081
   134.901900000000         1.183012875384447E-081
   135.141300000000        -9.868004836435023E-082
   135.380700000000        -4.146287733758646E-081
   135.620100000000        -8.176413926012342E-081
   135.859500000000        -1.271820058360098E-080
   136.098900000000        -1.711427174877065E-080
   136.338300000000        -2.037572573844910E-080
   136.577700000000        -2.119376971909803E-080
   136.817100000000        -1.801782736625908E-080
   137.056500000000        -9.221526965905826E-081
   137.295900000000         6.626249130507603E-081
   137.535300000000         3.037765661392933E-080
   137.774700000000         6.181818722265646E-080
   138.014100000000         9.910747556009238E-080
   138.253500000000         1.382125867874714E-079
   138.492900000000         1.724355267063859E-079
   138.732300000000         1.921774589923039E-079