  -1.79550000000000         0.000000000000000E+000
  -1.55610000000000         0.000000000000000E+000
  -1.31670000000000         0.000000000000000E+000
  -1.07730000000000         0.000000000000000E+000
 -0.837900000000000         0.000000000000000E+000
 -0.598500000000000         0.000000000000000E+000
 -0.359100000000000         0.000000000000000E+000
 -0.119700000000000         0.000000000000000E+000
  0.119700000000000         0.000000000000000E+000
  0.359100000000000         0.000000000000000E+000
  0.598500000000000         0.000000000000000E+000
  0.837900000000000         0.000000000000000E+000
   1.07730000000000         0.000000000000000E+000
   1.31670000000000         0.000000000000000E+000
   1.55610000000000         0.000000000000000E+000
   1.79550000000000         0.000000000000000E+000
   2.03490000000000         0.000000000000000E+000
   2.27430000000000         0.000000000000000E+000
   2.51370000000000         0.000000000000000E+000
   2.75310000000000         0.000000000000000E+000
   2.99250000000000         0.000000000000000E+000
   3.23190000000000         0.000000000000000E+000
   3.47130000000000         0.000000000000000E+000
   3.71070000000000         0.000000000000000E+000
   3.95010000000000         0.000000000000000E+000
   4.18950000000000         0.000000000000000E+000
   4.42890000000000         0.000000000000000E+000
   4.66830000000000         0.000000000000000E+000
   4.90770000000000         0.000000000000000E+000
   5.14710000000000         0.000000000000000E+000
   5.38650000000000         0.000000000000000E+000
   5.62590000000000         0.000000000000000E+000
   5.86530000000000         0.000000000000000E+000
   6.10470000000000         0.000000000000000E+000
   6.34410000000000         0.000000000000000E+000
   6.58350000000000         0.000000000000000E+000
   6.82290000000000         0.000000000000000E+000
   7.06230000000000         0.000000000000000E+000
   7.30170000000000         0.000000000000000E+000
   7.54110000000000         0.000000000000000E+000
   7.78050000000000         0.000000000000000E+000
   8.01990000000000         0.000000000000000E+000
   8.25930000000000         0.000000000000000E+000
   8.49870000000000         0.000000000000000E+000
   8.73810000000000         0.000000000000000E+000
   8.97750000000000         0.000000000000000E+000
   9.21690000000000         0.000000000000000E+000
   9.45630000000000         0.000000000000000E+000
   9.69570000000000         0.000000000000000E+000
   9.93510000000000         0.000000000000000E+000
   10.1745000000000         0.000000000000000E+000
   10.4139000000000         0.000000000000000E+000
   10.6533000000000         0.000000000000000E+000
   10.8927000000000         0.000000000000000E+000
   11.1321000000000         0.000000000000000E+000
   11.3715000000000         0.000000000000000E+000
   11.6109000000000         0.000000000000000E+000
   11.8503000000000         0.000000000000000E+000
   12.0897000000000         0.000000000000000E+000
   12.3291000000000         0.000000000000000E+000
   12.5685000000000         9.816734102386544E-225
   12.8079000000000        -3.316082073286319E-212
   13.0473000000000        -1.360275945150101E-210
   13.2867000000000         6.116781642355755E-208
   13.5261000000000         5.366252061207728E-206
   13.7655000000000         2.082213777222749E-204
   14.0049000000000         4.357655010971074E-203
   14.2443000000000         2.675368925578125E-202
   14.4837000000000        -1.551217292632823E-200
   14.7231000000000        -6.985633105945491E-199
   14.9625000000000        -1.790605198522306E-197
   15.2019000000000        -3.482795606052974E-196
   15.4413000000000        -5.599691171447062E-195
   15.6807000000000        -7.754912456211232E-194
   15.9201000000000        -9.480556569666130E-193
   16.1595000000000        -1.040212507477070E-191
   16.3989000000000        -1.036706675153340E-190
   16.6383000000000        -9.471133122395254E-190
   16.8777000000000        -7.988612002855486E-189
   17.1171000000000        -6.256755976892209E-188
   17.3565000000000        -4.571259442268265E-187
   17.5959000000000        -3.127047183252670E-186
   17.8353000000000        -2.008643294004927E-185
   18.0747000000000        -1.214164708505505E-184
   18.3141000000000        -6.916263748383617E-184
   18.5535000000000        -3.714840286515768E-183
   18.7929000000000        -1.880633232740954E-182
   19.0323000000000        -8.957735614668698E-182
   19.2717000000000        -3.999279264727116E-181
   19.5111000000000        -1.661707259322847E-180
   19.7505000000000        -6.339597475715139E-180
   19.9899000000000        -2.160396637957773E-179
   20.2293000000000        -6.146374972526106E-179
   20.4687000000000        -1.131938152134191E-178
   20.7081000000000         1.591091321433288E-178
   20.9475000000000         3.145774810214608E-177
   21.1869000000000         2.173268484130320E-176
   21.4263000000000         1.158596823472148E-175
   21.6657000000000         5.363781453288536E-175
   21.9051000000000         2.242561512481142E-174
   22.1445000000000         8.594409296523121E-174
   22.3839000000000         3.027491721276155E-173
   22.6233000000000         9.729010567943893E-173
   22.8627000000000         2.787138591250085E-172
   23.1021000000000         6.696700208629296E-172
   23.3415000000000         1.080263991503459E-171
   23.5809000000000        -7.862950019508203E-172
   23.8203000000000        -1.726850981900399E-170
   24.0597000000000        -9.982332907641409E-170
   24.2991000000000        -4.306931874013626E-169
   24.5385000000000        -1.563389743334311E-168
   24.7779000000000        -4.867265101518439E-168
   25.0173000000000        -1.247568521974453E-167
   25.2567000000000        -2.141401403717868E-167
   25.4961000000000         1.484980603015923E-167
   25.7355000000000         3.704261462044484E-166
   25.9749000000000         2.304717651133205E-165
   26.2143000000000         1.088871009090880E-164
   26.4537000000000         4.477005387562475E-164
   26.6931000000000         1.677555226055669E-163
   26.9325000000000         5.848241652603164E-163
   27.1719000000000         1.916333635336375E-162
   27.4113000000000         5.929494198312269E-162
   27.6507000000000         1.733608903853080E-161
   27.8901000000000         4.773969221080120E-161
   28.1295000000000         1.227779572981264E-160
   28.3689000000000         2.896177947272071E-160
   28.6083000000000         6.015397158666710E-160
   28.8477000000000         9.776669085206480E-160
   29.0871000000000         5.744325275724922E-160
   29.3265000000000        -4.482416708823702E-159
   29.5659000000000        -2.835291332733339E-158
   29.8053000000000        -1.167848470983198E-157
   30.0447000000000        -4.053857791427462E-157
   30.2841000000000        -1.268975158419164E-156
   30.5235000000000        -3.679997179347068E-156
   30.7629000000000        -1.000799996329383E-155
   31.0023000000000        -2.564774034355492E-155
   31.2417000000000        -6.192043367885634E-155
   31.4811000000000        -1.400603687471215E-154
   31.7205000000000        -2.928845682462397E-154
   31.9599000000000        -5.496869023006481E-154
   32.1993000000000        -8.577970438371118E-154
   32.4387000000000        -8.107236734154112E-154
   32.6781000000000         1.146188120159688E-153
   32.9175000000000         9.798175610630559E-153
   33.1569000000000         3.817317680103160E-152
   33.3963000000000         1.186969005701901E-151
   33.6357000000000         3.260698427663051E-151
   33.8751000000000         8.197941014762458E-151
   34.1145000000000         1.912791088086711E-150
   34.3539000000000         4.155311703981661E-150
   34.5933000000000         8.359257995216541E-150
   34.8327000000000         1.530515147427074E-149
   35.0721000000000         2.442187605993827E-149
   35.3115000000000         2.972484408784198E-149
   35.5509000000000         9.274066085657784E-150
   35.7903000000000        -9.925158360281750E-149
   36.0297000000000        -4.500150477961133E-148
   36.2691000000000        -1.387593065924005E-147
   36.5085000000000        -3.615488701516737E-147
   36.7479000000000        -8.439114784435844E-147
   36.9873000000000        -1.800563518539493E-146
   37.2267000000000        -3.522235120620369E-146
   37.4661000000000        -6.244868810644693E-146
   37.7055000000000        -9.679394580055595E-146
   37.9449000000000        -1.174119178667386E-145
   38.1843000000000        -5.597850491586129E-146
   38.4237000000000         2.646674402757242E-145
   38.6631000000000         1.245580778545381E-144
   38.9025000000000         3.703878788978683E-144
   39.1419000000000         9.145158823987861E-144
   39.3813000000000         2.003898454830550E-143
   39.6207000000000         3.980245682580931E-143
   39.8601000000000         7.170195774232159E-143
   40.0995000000000         1.148905577903270E-142
   40.3389000000000         1.540221789722329E-142
   40.5783000000000         1.360920735070374E-142
   40.8177000000000        -7.545995330599526E-143
   41.0571000000000        -7.822846348912693E-142
   41.2965000000000        -2.578867486766659E-141
   41.5359000000000        -6.518550092191364E-141
   41.7753000000000        -1.425294607262272E-140
   42.0147000000000        -2.794424354580119E-140
   42.2541000000000        -4.947171856079093E-140
   42.4935000000000        -7.794802167793106E-140
   42.7329000000000        -1.037483541129985E-139
   42.9723000000000        -9.614769171005021E-140
   43.2117000000000         1.944372885336986E-140
   43.4511000000000         3.987799868144939E-139
   43.6905000000000         1.331544678453062E-138
   43.9299000000000         3.299223726587257E-138
   44.1693000000000         6.999856776430228E-138
   44.4087000000000         1.324365262624608E-137
   44.6481000000000         2.251808607197665E-137
   44.8875000000000         3.385121457513823E-137
   45.1269000000000         4.236657215712656E-137
   45.3663000000000         3.467142010293993E-137
   45.6057000000000        -1.888188327449214E-137
   45.8451000000000        -1.755801312028278E-136
   46.0845000000000        -5.341265375070459E-136
   46.3239000000000        -1.245081075288302E-135
   46.5633000000000        -2.502935233456295E-135
   46.8027000000000        -4.487922635949081E-135
   47.0421000000000        -7.198619501731023E-135
   47.2815000000000        -1.007889248641235E-134
   47.5209000000000        -1.130161530400743E-134
   47.7603000000000        -6.549479556250091E-135
   47.9997000000000         1.281699703255543E-134
   48.2391000000000         6.208941744837848E-134
   48.4785000000000         1.653486386629429E-133
   48.7179000000000         3.555268576615978E-133
   48.9573000000000         6.683701698287541E-133
   49.1967000000000         1.122874679478324E-132
   49.4361000000000         1.676077849311217E-132
   49.6755000000000         2.134885958462618E-132
   49.9149000000000         2.004435882128938E-132
   50.1543000000000         2.570697753073389E-133
   50.3937000000000        -4.970711667886972E-132
   50.6331000000000        -1.668569231575852E-131
   50.8725000000000        -3.915816458954243E-131
   51.1119000000000        -7.744248305209295E-131
   51.3513000000000        -1.355380795506184E-130
   51.5907000000000        -2.119548696145943E-130
   51.8301000000000        -2.909153046228451E-130
   52.0695000000000        -3.270694624908819E-130
   52.3089000000000        -2.219332468210267E-130
   52.5483000000000         2.077593691474639E-130
   52.7877000000000         1.264405672821328E-129
   53.0271000000000         3.390547092444531E-129
   53.2665000000000         7.141664923544224E-129
   53.5059000000000         1.304643640224338E-128
   53.7453000000000         2.124988797736063E-128
   53.9847000000000         3.078948573845600E-128
   54.2241000000000         3.832119287017446E-128
   54.4635000000000         3.613023027732691E-128
   54.7029000000000         9.399996237313164E-129
   54.9423000000000        -6.691451715308994E-128
   55.1817000000000        -2.304951910553820E-127
   55.4211000000000        -5.308832424740431E-127
   55.6605000000000        -1.020935981508001E-126
   55.8999000000000        -1.733044702771707E-126
   56.1393000000000        -2.629320882681285E-126
   56.3787000000000        -3.512327451621545E-126
   56.6181000000000        -3.883413350989304E-126
   56.8575000000000        -2.743707762537495E-126
   57.0969000000000         1.644623294854157E-126
   57.3363000000000         1.197226169103380E-125
   57.5757000000000         3.192382095416866E-125
   57.8151000000000         6.576768668677515E-125
   58.0545000000000         1.170358203688370E-124
   58.2939000000000         1.856228751857345E-124
   58.5333000000000         2.624508462100381E-124
   58.7727000000000         3.208228915599594E-124
   59.0121000000000         3.039676631238214E-124
   59.2515000000000         1.094359502427250E-124
   59.4909000000000        -4.265057862843882E-124
   59.7303000000000        -1.536879728520278E-123
   59.9697000000000        -3.509735928452480E-123
   60.2091000000000        -6.627070215333910E-123
   60.4485000000000        -1.102041052450894E-122
   60.6879000000000        -1.639535172495718E-122
   60.9273000000000        -2.157313227432715E-122
   61.1667000000000        -2.381170768106247E-122
   61.4061000000000        -1.792018632735135E-122
   61.6455000000000         4.704739590177906E-123
   61.8849000000000         5.678112220923470E-122
   62.1243000000000         1.549050489412462E-121
   62.3637000000000         3.172139707606893E-121
   62.6031000000000         5.571880666291486E-121
   62.8425000000000         8.712232742237226E-121
   63.0819000000000         1.217268296941600E-120
   63.3213000000000         1.482236410904590E-120
   63.5607000000000         1.437886944829724E-120
   63.8001000000000         6.895788385950444E-121
   64.0395000000000        -1.368815667323763E-120
   64.2789000000000        -5.565989893955930E-120
   64.5183000000000        -1.288125578392725E-119
   64.7577000000000        -2.421350255472177E-119
   64.9971000000000        -3.988626148791657E-119
   65.2365000000000        -5.876389017501601E-119
   65.4759000000000        -7.686167711376181E-119
   65.7153000000000        -8.540028759920784E-119
   65.9547000000000        -6.842864769067273E-119
   66.1941000000000        -4.779461497982853E-121
   66.4335000000000         1.547247868109161E-118
   66.6729000000000         4.426182587732167E-118
   66.9123000000000         9.102860815532415E-118
   67.1517000000000         1.588888955244611E-117
   67.3911000000000         2.460923478848271E-117
   67.6305000000000         3.407159891545858E-117
   67.8699000000000         4.130179250786679E-117
   68.1093000000000         4.057264517890327E-117
   68.3487000000000         2.237149301795034E-117
   68.5881000000000        -2.734895030786981E-117
   68.8275000000000        -1.269921664927691E-116
   69.0669000000000        -2.971710379011843E-116
   69.3063000000000        -5.551020725984512E-116
   69.5457000000000        -9.036642377806732E-116
   69.7851000000000        -1.313152849470344E-115
   70.0245000000000        -1.694337243360676E-115
   70.2639000000000        -1.863233194230423E-115
   70.5033000000000        -1.501735923200338E-115
   70.7427000000000        -1.246926298327960E-116
   70.9821000000000         2.926286960944180E-115
   71.2215000000000         8.428997283189334E-115
   71.4609000000000         1.711855116905093E-114
   71.7003000000000         2.935545109239935E-114
   71.9397000000000         4.455737147978099E-114
   72.1791000000000         6.034327835292111E-114
   72.4185000000000         7.139008126506429E-114
   72.6579000000000         6.811119388597626E-114
   72.8973000000000         3.545585439964083E-114
   73.1367000000000        -4.758476867665016E-114
   73.3761000000000        -2.067939638366049E-113
   73.6155000000000        -4.684522640345582E-113
   73.8549000000000        -8.501440287924543E-113
   74.0943000000000        -1.344650509122592E-112
   74.3337000000000        -1.895304595690146E-112
   74.5731000000000        -2.362554946284204E-112
   74.8125000000000        -2.484430024874674E-112
   75.0519000000000        -1.838710011383902E-112
   75.2913000000000         1.776395343444219E-113
   75.5307000000000         4.325863314251647E-112
   75.7701000000000         1.142174985901555E-111
   76.0095000000000         2.210199715171453E-111
   76.2489000000000         3.640661354707772E-111
   76.4883000000000         5.313217912135966E-111
   76.7277000000000         6.894483458071324E-111
   76.9671000000000         7.731515092915071E-111
   77.2065000000000         6.746412958826725E-111
   77.4459000000000         2.370102671635665E-111
   77.6853000000000        -7.421178315044140E-111
   77.9247000000000        -2.487386489985010E-110
   78.1641000000000        -5.190981071421372E-110
   78.4035000000000        -8.913136723384805E-110
   78.6429000000000        -1.342664176254764E-109
   78.8823000000000        -1.800197194942782E-109
   79.1217000000000        -2.114658753292971E-109
   79.3611000000000        -2.034104357567020E-109
   79.6005000000000        -1.185810259545307E-109
   79.8399000000000         9.191530389895162E-110
   80.0793000000000         4.837763603076349E-109
   80.3187000000000         1.107641522492423E-108
   80.5581000000000         1.987210638376712E-108
   80.7975000000000         3.084809887323247E-108
   81.0369000000000         4.253567658800882E-108
   81.2763000000000         5.178978212220897E-108
   81.5157000000000         5.318806587887071E-108
   81.7551000000000         3.859440333861687E-108
   81.9945000000000        -2.812443792165806E-109
   82.2339000000000        -8.360904364651804E-108
   82.4733000000000        -2.157386261553466E-107
   82.7127000000000        -4.060497025508933E-107
   82.9521000000000        -6.492374909627358E-107
   83.1915000000000        -9.180054404613226E-107
   83.4309000000000        -1.150983527940863E-106
   83.6703000000000        -1.240156983702095E-106
   83.9097000000000        -1.021345430857366E-106
   84.1491000000000        -2.735846950846403E-107
   84.3885000000000         1.264147914045102E-106
   84.6279000000000         3.848123455079668E-106
   84.8673000000000         7.645197842716812E-106
   85.1067000000000         1.259825003281650E-105
   85.3461000000000         1.823809931840890E-105
   85.5855000000000         2.345163337552166E-105
   85.8249000000000         2.623824289377036E-105
   86.0643000000000         2.351917450244454E-105
   86.3037000000000         1.110610495029527E-105
   86.5431000000000        -1.601855663321323E-105
   86.7825000000000        -6.291657551485604E-105
   87.0219000000000        -1.331934049890210E-104
   87.2613000000000        -2.266027605729719E-104
   87.5007000000000        -3.356895205503111E-104
   87.7401000000000        -4.416360628894657E-104
   87.9795000000000        -5.098617170479681E-104
   88.2189000000000        -4.864791789347024E-104
   88.4583000000000        -2.974160638026986E-104
   88.6977000000000         1.472167847072992E-104
   88.9371000000000         9.402570655503925E-104
   89.1765000000000         2.152586708786159E-103
   89.4159000000000         3.793176182497767E-103
   89.6553000000000         5.752916777384716E-103
   89.8947000000000         7.734853599656071E-103
   90.1341000000000         9.179638312739433E-103
   90.3735000000000         9.203893705444680E-103
   90.6129000000000         6.580373168932058E-103
   90.8523000000000        -1.990068323202747E-104
   91.0917000000000        -1.272568165994239E-102
   91.3311000000000        -3.228655584159895E-102
   91.5705000000000        -5.923789182985692E-102
   91.8099000000000        -9.212170968307151E-102
   92.0493000000000        -1.265631247577488E-101
   92.2887000000000        -1.540812785684580E-101
   92.5281000000000        -1.610803506163522E-101
   92.7675000000000        -1.284548781029403E-101
   93.0069000000000        -3.242533513715078E-102
   93.2463000000000         1.526243284079903E-101
   93.4857000000000         4.484705363160533E-101
   93.7251000000000         8.638158625733415E-101
   93.9645000000000         1.381190031773018E-100
   94.2039000000000         1.940509121242725E-100
   94.4433000000000         2.421164306599492E-100
   94.6827000000000         2.626416949919758E-100
   94.9221000000000         2.276253921700841E-100
   95.1615000000000         1.017422825824820E-100
   95.4009000000000        -1.538435759732125E-100
   95.6403000000000        -5.736704667777037E-100
   95.8797000000000        -1.175146652280334E-099
   96.1191000000000        -1.940224644608113E-099
   96.3585000000000        -2.792236468757393E-099
   96.5979000000000        -3.570365110548990E-099
   96.8373000000000        -4.006791897138739E-099
   97.0767000000000        -3.714749595606922E-099
   97.3161000000000        -2.199149482312737E-099
   97.5555000000000         1.095593936346621E-099
   97.7949000000000         6.684603226870631E-099
   98.0343000000000         1.487443373635326E-098
   98.2737000000000         2.552093076085128E-098
   98.5131000000000         3.772049534556651E-098
   98.7525000000000         4.946542931621554E-098
   98.9919000000000         5.732669060828261E-098
   99.2313000000000         5.626797395057221E-098
   99.4707000000000         3.973882109381023E-098
   99.7101000000000         2.324016626621999E-100
   99.9495000000000        -6.948853920314117E-098
   100.188900000000        -1.743157938138784E-097
   100.428300000000        -3.137729547977236E-097
   100.667700000000        -4.781214061352744E-097
   100.907100000000        -6.439505076176199E-097
   101.146500000000        -7.700012628902332E-097
   101.385900000000        -7.944625849560924E-097
   101.625300000000        -6.355096234159999E-097
   101.864700000000        -1.973186811650180E-097
   102.104100000000         6.159722502877471E-097
   102.343500000000         1.876109599164137E-096
   102.582900000000         3.595077145618384E-096
   102.822300000000         5.678610908083562E-096
   103.061700000000         7.872719234696704E-096
   103.301100000000         9.711549461607558E-096
   103.540500000000         1.048055391361132E-095
   103.779900000000         9.215020033243984E-096
   104.019300000000         4.759475341188622E-096
   104.258700000000        -4.083558861270052E-096
   104.498100000000        -1.828897831071298E-095
   104.737500000000        -3.821208160296786E-095
   104.976900000000        -6.306341073762749E-095
   105.216300000000        -9.029404990471139E-095
   105.455700000000        -1.149786623913198E-094
   105.695100000000        -1.293445862036370E-094
   105.934500000000        -1.226623588417916E-094
   106.173900000000        -8.177395822131910E-095
   106.413300000000         7.429073420764879E-096
   106.652700000000         1.572802700153552E-094
   106.892100000000         3.741645725533128E-094
   107.131500000000         6.529049363520230E-094
   107.370900000000         9.700670242271153E-094
   107.610300000000         1.277038955325773E-093
   107.849700000000         1.494373774919645E-093
   108.089100000000         1.509582699508981E-093
   108.328500000000         1.181217995648993E-093
   108.567900000000         3.524992811417901E-094
   108.807300000000        -1.122337217873961E-093
   109.046700000000        -3.336654943707568E-093
   109.286100000000        -6.274666950595142E-093
   109.525500000000        -9.742344345846835E-093
   109.764900000000        -1.329385903627123E-092
   110.004300000000        -1.616762799574499E-092
   110.243700000000        -1.725299455561907E-092
   110.483100000000        -1.511522180152791E-092
   110.722500000000        -8.111045015655158E-093
   110.961900000000         5.372841809617763E-093
   111.201300000000         2.653317868438883E-092
   111.440700000000         5.560775616555818E-092
   111.680100000000         9.120006194042920E-092
   111.919500000000         1.295384387831925E-091
   112.158900000000         1.637949942379469E-091
   112.398300000000         1.836555502207957E-091
   112.637700000000         1.753965948507504E-091
   112.877100000000         1.227731200296584E-091
   113.116500000000         9.031212197078266E-093
   113.355900000000        -1.796945216116524E-091
   113.595300000000        -4.494837383437630E-091
   113.834700000000        -7.923791166618397E-091
   114.074100000000        -1.179316655555249E-090
   114.313500000000        -1.553285189627462E-090
   114.552900000000        -1.824359305151615E-090
   114.792300000000        -1.868851222982530E-090
   115.031700000000        -1.535304643684700E-090
   115.271100000000        -6.602274315258705E-091
   115.510500000000         9.038912607267064E-091
   115.749900000000         3.246850736414194E-090
   115.989300000000         6.345967587289076E-090
   116.228700000000         1.000215648564226E-089
   116.468100000000         1.377507101093387E-089
   116.707500000000         1.693064645601170E-089
   116.946900000000         1.841972406522522E-089
   117.186300000000         1.691095567403443E-089
   117.425700000000         1.090344127054438E-089
   117.665100000000        -1.057274949480333E-090
   117.904500000000        -2.004414045383220E-089
   118.143900000000        -4.629464661780460E-089
   118.383300000000        -7.866335423551653E-089
   118.622700000000        -1.140407974544343E-088
   118.862100000000        -1.468407766768636E-088
   119.101500000000        -1.687032607878400E-088
   119.340900000000        -1.686007717126644E-088
   119.580300000000        -1.335611187145860E-088
   119.819700000000        -5.021450167274796E-089
   120.059100000000         9.267775685231002E-089
   120.298500000000         3.006679491519824E-088
   120.537900000000         5.691810915685340E-088
   120.777300000000         8.785919575197192E-088
   121.016700000000         1.189552599436939E-087
   121.256100000000         1.439668315461692E-087
   121.495500000000         1.542967556858056E-087
   121.734900000000         1.393860075045588E-087
   121.974300000000         8.773218145202986E-088
   122.213700000000        -1.132384665405835E-088
   122.453100000000        -1.649712108467536E-087
   122.692500000000        -3.735195791817010E-087
   122.931900000000        -6.264535903853150E-087
   123.171300000000        -8.984427213883532E-087
   123.410700000000        -1.146079814840124E-086
   123.650100000000        -1.306403974953214E-086
   123.889500000000        -1.298490836009784E-086
   124.128900000000        -1.029489918773347E-086
   124.368300000000        -4.063645480849817E-087
   124.607700000000         6.458508607060446E-087
   124.847100000000         2.159302845089159E-086
   125.086500000000         4.093400072130332E-086
   125.325900000000         6.302777238173101E-086
   125.565300000000         8.508266373577766E-086
   125.804700000000         1.027818384260185E-085
   126.044100000000         1.102917073932748E-085
   126.283500000000         1.005698736434398E-085
   126.522900000000         6.607424164760670E-086
   126.762300000000        -4.846777114641449E-089
   127.001700000000        -1.022675447434181E-085
   127.241100000000        -2.405225460404510E-085
   127.480500000000        -4.077997447765043E-085
   127.719900000000        -5.877486440242339E-085
   127.959300000000        -7.528169947374783E-085
   128.198700000000        -8.635360968713157E-085
   128.438100000000        -8.697011238630363E-085
   128.677500000000        -7.142211298257145E-085
   128.916900000000        -3.403113156380523E-085
   129.156300000000         2.975831279238766E-085
   129.395700000000         1.219246853589487E-084
   129.635100000000         2.401397845920859E-084
   129.874500000000         3.759462464282252E-084
   130.113900000000         5.131373189532402E-084
   130.353300000000         6.267486829300105E-084
   130.592700000000         6.831687022955979E-084
   130.832100000000         6.419246458677458E-084
   131.071500000000         4.596753030164036E-084
   131.310900000000         9.680018122345900E-085
   131.550300000000        -4.733092301110955E-084
   131.789700000000        -1.252600057722883E-083
   132.029100000000        -2.205308302760026E-083
   132.268500000000        -3.245213882200878E-083
   132.507900000000        -4.225714928778810E-083
   132.747300000000        -4.935988370809135E-083
   132.986700000000        -5.107031646438375E-083
   133.226100000000        -4.431473157391419E-083
   133.465500000000        -2.600461662545827E-083
   133.704900000000         6.405313805376038E-084
   133.944300000000         5.417714306636388E-083
   134.183700000000         1.164119445299398E-082
   134.423100000000         1.891255228772511E-082
   134.662500000000         2.644231313849173E-082
   134.901900000000         3.299728862783359E-082
   135.141300000000         3.690223438355466E-082
   135.380700000000         3.612250245420279E-082
   135.620100000000         2.845284531552131E-082
   135.859500000000         1.183068612728873E-082
   136.098900000000        -1.522135846300890E-082
   136.338300000000        -5.303994763054336E-082
   136.577700000000        -1.001971077127603E-081
   136.817100000000        -1.528867602972644E-081
   137.056500000000        -2.044371252742555E-081
   137.295900000000        -2.450980677341820E-081
   137.535300000000        -2.622755769597196E-081
   137.774700000000        -2.413889227995991E-081
   138.014100000000        -1.674994843496296E-081
   138.253500000000        -2.779415153806286E-082
   138.492900000000         1.851065840740228E-081
   138.732300000000         4.692073832996877E-081