  -1.79550000000000         0.000000000000000E+000
  -1.55610000000000         0.000000000000000E+000
  -1.31670000000000         0.000000000000000E+000
  -1.07730000000000         0.000000000000000E+000
 -0.837900000000000         0.000000000000000E+000
 -0.598500000000000         0.000000000000000E+000
 -0.359100000000000         0.000000000000000E+000
 -0.119700000000000         0.000000000000000E+000
  0.119700000000000         0.000000000000000E+000
  0.359100000000000         0.000000000000000E+000
  0.598500000000000         0.000000000000000E+000
  0.837900000000000         0.000000000000000E+000
   1.07730000000000         0.000000000000000E+000
   1.31670000000000         0.000000000000000E+000
   1.55610000000000         0.000000000000000E+000
   1.79550000000000         0.000000000000000E+000
   2.03490000000000         0.000000000000000E+000
   2.27430000000000         0.000000000000000E+000
   2.51370000000000         0.000000000000000E+000
   2.75310000000000         0.000000000000000E+000
   2.99250000000000         0.000000000000000E+000
   3.23190000000000         0.000000000000000E+000
   3.47130000000000         0.000000000000000E+000
   3.71070000000000         0.000000000000000E+000
   3.95010000000000         0.000000000000000E+000
   4.18950000000000         0.000000000000000E+000
   4.42890000000000         0.000000000000000E+000
   4.66830000000000         0.000000000000000E+000
   4.90770000000000         0.000000000000000E+000
   5.14710000000000         0.000000000000000E+000
   5.38650000000000         0.000000000000000E+000
   5.62590000000000         0.000000000000000E+000
   5.86530000000000         0.000000000000000E+000
   6.10470000000000         0.000000000000000E+000
   6.34410000000000         0.000000000000000E+000
   6.58350000000000         0.000000000000000E+000
   6.82290000000000         0.000000000000000E+000
   7.06230000000000         0.000000000000000E+000
   7.30170000000000         0.000000000000000E+000
   7.54110000000000         0.000000000000000E+000
   7.78050000000000         0.000000000000000E+000
   8.01990000000000         0.000000000000000E+000
   8.25930000000000         0.000000000000000E+000
   8.49870000000000         0.000000000000000E+000
   8.73810000000000         0.000000000000000E+000
   8.97750000000000         0.000000000000000E+000
   9.21690000000000         0.000000000000000E+000
   9.45630000000000         0.000000000000000E+000
   9.69570000000000         0.000000000000000E+000
   9.93510000000000         0.000000000000000E+000
   10.1745000000000         0.000000000000000E+000
   10.4139000000000         0.000000000000000E+000
   10.6533000000000         0.000000000000000E+000
   10.8927000000000         0.000000000000000E+000
   11.1321000000000         0.000000000000000E+000
   11.3715000000000         0.000000000000000E+000
   11.6109000000000         0.000000000000000E+000
   11.8503000000000         0.000000000000000E+000
   12.0897000000000         0.000000000000000E+000
   12.3291000000000         0.000000000000000E+000
   12.5685000000000         4.787450922846128E-224
   12.8079000000000         2.579372609174757E-212
   13.0473000000000         1.356131152942500E-210
   13.2867000000000        -3.856412977787570E-208
   13.5261000000000        -3.606980635429768E-206
   13.7655000000000        -1.476602234504201E-204
   14.0049000000000        -3.432972627221575E-203
   14.2443000000000        -3.728504480582401E-202
   14.4837000000000         5.069194994048569E-201
   14.7231000000000         3.524667683075228E-199
   14.9625000000000         9.929775931690827E-198
   15.2019000000000         2.020813137897737E-196
   15.4413000000000         3.345966018476158E-195
   15.6807000000000         4.741178522425878E-194
   15.9201000000000         5.915129333146015E-193
   16.1595000000000         6.619484126551974E-192
   16.3989000000000         6.733687999833689E-191
   16.6383000000000         6.290225512567676E-190
   16.8777000000000         5.439824350620105E-189
   17.1171000000000         4.384419451343800E-188
   17.3565000000000         3.312116970920023E-187
   17.5959000000000         2.356632788420904E-186
   17.8353000000000         1.586147697404135E-185
   18.0747000000000         1.013757644385603E-184
   18.3141000000000         6.174110113031595E-184
   18.5535000000000         3.594481848584406E-183
   18.7929000000000         2.006157613751736E-182
   19.0323000000000         1.076169575110825E-181
   19.2717000000000         5.561227397318809E-181
   19.5111000000000         2.773789278729005E-180
   19.7505000000000         1.337381949773782E-179
   19.9899000000000         6.239946607242975E-179
   20.2293000000000         2.818876139187175E-178
   20.4687000000000         1.232778868398435E-177
   20.7081000000000         5.214496849062316E-177
   20.9475000000000         2.129282306322793E-176
   21.1869000000000         8.366534252986204E-176
   21.4263000000000         3.146960568644086E-175
   21.6657000000000         1.123546178084670E-174
   21.9051000000000         3.752087117082848E-174
   22.1445000000000         1.139072706633459E-173
   22.3839000000000         2.936691496824785E-173
   22.6233000000000         4.993451480961878E-173
   22.8627000000000        -6.387142002145310E-173
   23.1021000000000        -1.217789382270078E-171
   23.3415000000000        -8.132038959155769E-171
   23.5809000000000        -4.260175448931502E-170
   23.8203000000000        -1.975868011344103E-169
   24.0597000000000        -8.466178165415223E-169
   24.2991000000000        -3.419160776312641E-168
   24.5385000000000        -1.315973644859317E-167
   24.7779000000000        -4.859376478780501E-167
   25.0173000000000        -1.729012535261869E-166
   25.2567000000000        -5.944990651570211E-166
   25.4961000000000        -1.979110410656069E-165
   25.7355000000000        -6.386627711140282E-165
   25.9749000000000        -1.998987270440584E-164
   26.2143000000000        -6.068601237196959E-164
   26.4537000000000        -1.785820937618000E-163
   26.6931000000000        -5.086914728302797E-163
   26.9325000000000        -1.399201950598437E-162
   27.1719000000000        -3.701511801389422E-162
   27.4113000000000        -9.356232653638931E-162
   27.6507000000000        -2.234442927351047E-161
   27.8901000000000        -4.937240866052392E-161
   28.1295000000000        -9.643519928865001E-161
   28.3689000000000        -1.455808190486356E-160
   28.6083000000000        -5.766861306090558E-161
   28.8477000000000         7.689415863575667E-160
   29.0871000000000         4.480688825714807E-159
   29.3265000000000         1.796058222858275E-158
   29.5659000000000         6.169894936002006E-158
   29.8053000000000         1.931646229319870E-157
   30.0447000000000         5.652509853955995E-157
   30.2841000000000         1.564645803803244E-156
   30.5235000000000         4.119656839351971E-156
   30.7629000000000         1.033376400927542E-155
   31.0023000000000         2.465219021816091E-155
   31.2417000000000         5.562130941298748E-155
   31.4811000000000         1.173334923868694E-154
   31.7205000000000         2.260634560354029E-154
   31.9599000000000         3.767047475084276E-154
   32.1993000000000         4.541783749285625E-154
   32.4387000000000        -3.777190024180164E-155
   32.6781000000000        -2.714143398806496E-153
   32.9175000000000        -1.214639318086158E-152
   33.1569000000000        -4.010497708376409E-152
   33.3963000000000        -1.146380445887195E-151
   33.6357000000000        -2.979009684249537E-151
   33.8751000000000        -7.174219315475164E-151
   34.1145000000000        -1.611554166061076E-150
   34.3539000000000        -3.369711033890905E-150
   34.5933000000000        -6.482763814751188E-150
   34.8327000000000        -1.114363922187900E-149
   35.0721000000000        -1.581921381273223E-149
   35.3115000000000        -1.320499452247162E-149
   35.5509000000000         1.982595749667723E-149
   35.7903000000000         1.448708159707761E-148
   36.0297000000000         5.087366622951787E-148
   36.2691000000000         1.431366835517166E-147
   36.5085000000000         3.553154020354274E-147
   36.7479000000000         8.040512641928305E-147
   36.9873000000000         1.676875358148852E-146
   37.2267000000000         3.217235405329481E-146
   37.4661000000000         5.589853237959057E-146
   37.7055000000000         8.420697582766215E-146
   37.9449000000000         9.574047951869859E-146
   38.1843000000000         2.325286987495495E-146
   38.4237000000000        -3.052143822922277E-145
   38.6631000000000        -1.277331118188102E-144
   38.9025000000000        -3.684315243902398E-144
   39.1419000000000        -8.994417412590013E-144
   39.3813000000000        -1.965104318087168E-143
   39.6207000000000        -3.913798237016517E-143
   39.8601000000000        -7.109646132320778E-143
   40.0995000000000        -1.158396046091984E-142
   40.3389000000000        -1.608850607200200E-142
   40.5783000000000        -1.593166291703923E-142
   40.8177000000000         1.409452847754481E-143
   41.0571000000000         6.429250908807151E-142
   41.2965000000000         2.299184685214374E-141
   41.5359000000000         6.023824819336133E-141
   41.7753000000000         1.351057774243186E-140
   42.0147000000000         2.712629837293491E-140
   42.2541000000000         4.934542734008598E-140
   42.4935000000000         8.069416956324815E-140
   42.7329000000000         1.144917879048714E-139
   42.9723000000000         1.255006700791530E-139
   43.2117000000000         4.824007752324926E-140
   43.4511000000000        -2.600502320573915E-139
   43.6905000000000        -1.074991417838158E-138
   43.9299000000000        -2.873709498232845E-138
   44.1693000000000        -6.387558967179067E-138
   44.4087000000000        -1.255850595193518E-137
   44.6481000000000        -2.222073424109837E-137
   44.8875000000000        -3.516355039184440E-137
   45.1269000000000        -4.798755406779388E-137
   45.3663000000000        -4.987122339836604E-137
   45.6057000000000        -1.514601602746196E-137
   45.8451000000000         1.082349124533764E-136
   46.0845000000000         4.139589713006279E-136
   46.3239000000000         1.052300407317350E-135
   46.5633000000000         2.232587204890515E-135
   46.8027000000000         4.185588288862981E-135
   47.0421000000000         7.032295621604961E-135
   47.2815000000000         1.046745224258675E-134
   47.5209000000000         1.311968553316219E-134
   47.7603000000000         1.141257524701636E-134
   47.9997000000000        -2.233200622411082E-135
   48.2391000000000        -4.185574884405592E-134
   48.4785000000000        -1.305953762222868E-133
   48.7179000000000        -3.020183834513447E-133
   48.9573000000000        -5.966598096544608E-133
   49.1967000000000        -1.047076900045525E-132
   49.4361000000000        -1.639974642408247E-132
   49.6755000000000        -2.238205254681464E-132
   49.9149000000000        -2.440619684481743E-132
   50.1543000000000        -1.358752085321890E-132
   50.3937000000000         2.694010696281147E-132
   50.6331000000000         1.255559418553708E-131
   50.8725000000000         3.245673375435760E-131
   51.1119000000000         6.779365053845350E-131
   51.3513000000000         1.237407589893552E-130
   51.5907000000000         2.015296222918353E-130
   51.8301000000000         2.906328377124387E-130
   52.0695000000000         3.545817628496219E-130
   52.3089000000000         3.081591903120896E-130
   52.5483000000000        -1.488262140994821E-131
   52.7877000000000        -9.001230955022108E-130
   53.0271000000000        -2.783874456345862E-129
   53.2665000000000        -6.247190271284112E-129
   53.5059000000000        -1.191326392771927E-128
   53.7453000000000        -2.014759503059299E-128
   53.9847000000000        -3.040950153902932E-128
   54.2241000000000        -4.005725306616002E-128
   54.4635000000000        -4.240076744948343E-128
   54.7029000000000        -2.389059917230041E-128
   54.9423000000000         3.935988454672359E-128
   55.1817000000000         1.848358286458196E-127
   55.4211000000000         4.645038082816186E-127
   55.6605000000000         9.390610006711617E-127
   55.8999000000000         1.658261641371897E-126
   56.1393000000000         2.616243790590122E-126
   56.3787000000000         3.667104152381072E-126
   56.6181000000000         4.384519208608661E-126
   56.8575000000000         3.854100244396564E-126
   57.0969000000000         4.053444058400910E-127
   57.3363000000000        -8.668111131617816E-126
   57.5757000000000        -2.727214369446740E-125
   57.8151000000000        -6.030108740301082E-125
   58.0545000000000        -1.126012034990580E-124
   58.2939000000000        -1.864117753257584E-124
   58.5333000000000        -2.763314233978080E-124
   58.7727000000000        -3.607055411115456E-124
   59.0121000000000        -3.885062130095161E-124
   59.2515000000000        -2.616588266294505E-124
   59.4909000000000         1.850667552895847E-124
   59.7303000000000         1.200277230981585E-123
   59.9697000000000         3.114873074936671E-123
   60.2091000000000         6.299618822548456E-123
   60.4485000000000         1.104329198670331E-122
   60.6879000000000         1.729780892776832E-122
   60.9273000000000         2.422492080443035E-122
   61.1667000000000         2.948158342199286E-122
   61.4061000000000         2.821626906748763E-122
   61.6455000000000         1.184437811652126E-122
   61.8849000000000        -3.313446251178502E-122
   62.1243000000000        -1.256771202744852E-121
   62.3637000000000        -2.889777476739733E-121
   62.6031000000000        -5.456655003188955E-121
   62.8425000000000        -9.067716706275357E-121
   63.0819000000000        -1.351085977673437E-120
   63.3213000000000        -1.791326449752405E-120
   63.5607000000000        -2.024678527078491E-120
   63.8001000000000        -1.668945857511407E-120
   64.0395000000000        -9.349584786778400E-122
   64.2789000000000         3.631593905631265E-120
   64.5183000000000         1.072237442866085E-119
   64.7577000000000         2.252664837879349E-119
   64.9971000000000         4.011286402063574E-119
   65.2365000000000         6.344914188048224E-119
   65.4759000000000         8.999925449236644E-119
   65.7153000000000         1.125905294551190E-118
   65.9547000000000         1.165334247161018E-118
   66.1941000000000         7.626190242712683E-119
   66.4335000000000        -4.769918623788418E-119
   66.6729000000000        -3.097665332038285E-118
   66.9123000000000        -7.754146860870928E-118
   67.1517000000000        -1.507895136513047E-117
   67.3911000000000        -2.539440590505314E-117
   67.6305000000000        -3.819713221202818E-117
   67.8699000000000        -5.134723635953257E-117
   68.1093000000000        -5.993232050471224E-117
   68.3487000000000        -5.487187036626730E-117
   68.5881000000000        -2.151083085823118E-117
   68.8275000000000         6.124701129890616E-117
   69.0669000000000         2.202753642999126E-116
   69.3063000000000         4.844757534076035E-116
   69.5457000000000         8.757726314004420E-116
   69.7851000000000         1.392208475170372E-115
   70.0245000000000         1.980503545626036E-115
   70.2639000000000         2.496496799569441E-115
   70.5033000000000         2.654768171902471E-115
   70.7427000000000         1.974437017632044E-115
   70.9821000000000        -2.623600377563250E-116
   71.2215000000000        -5.008819601847204E-115
   71.4609000000000        -1.335999319874078E-114
   71.7003000000000        -2.629872786823295E-114
   71.9397000000000        -4.419573975791093E-114
   72.1791000000000        -6.597580998361208E-114
   72.4185000000000        -8.788954617708707E-114
   72.6579000000000        -1.019108283376081E-113
   72.8973000000000        -9.394230327995238E-114
   73.1367000000000        -4.228392590571893E-114
   73.3761000000000         8.277839397358187E-114
   73.6155000000000         3.168838761041796E-113
   73.8549000000000         6.950455611269320E-113
   74.0943000000000         1.238184321470340E-112
   74.3337000000000         1.930175599115926E-112
   74.5731000000000         2.683524704708186E-112
   74.8125000000000         3.293893219030109E-112
   75.0519000000000         3.387962306081145E-112
   75.2913000000000         2.376273147578423E-112
   75.5307000000000        -5.668078077362306E-113
   75.7701000000000        -6.460250550610866E-112
   76.0095000000000        -1.635984435714044E-111
   76.2489000000000        -3.102452741664206E-111
   76.4883000000000        -5.033876609575260E-111
   76.7277000000000        -7.244099127721712E-111
   76.9671000000000        -9.255972442267308E-111
   77.2065000000000        -1.016628727837281E-110
   77.4459000000000        -8.519848334782516E-111
   77.6853000000000        -2.245658908258542E-111
   77.9247000000000         1.125964583045370E-110
   78.1641000000000         3.478082345710474E-110
   78.4035000000000         7.051622402344093E-110
   78.6429000000000         1.187371567403283E-109
   78.8823000000000         1.757583412940250E-109
   79.1217000000000         2.312224081563443E-109
   79.3611000000000         2.649369641366704E-109
   79.6005000000000         2.438891741487043E-109
   79.8399000000000         1.206169238751528E-109
   80.0793000000000        -1.651860586944203E-109
   80.3187000000000        -6.792059237179963E-109
   80.5581000000000        -1.475965281671296E-108
   80.7975000000000        -2.569884822881116E-108
   81.0369000000000        -3.891547873534501E-108
   81.2763000000000        -5.229351256141028E-108
   81.5157000000000        -6.161720825425160E-108
   81.7551000000000        -5.993115549012323E-108
   81.9945000000000        -3.718381846942140E-108
   82.2339000000000         1.945960859017596E-108
   82.4733000000000         1.241028250742036E-107
   82.7127000000000         2.887595923670077E-107
   82.9521000000000         5.175017334669830E-107
   83.1915000000000         7.976639491601128E-107
   83.4309000000000         1.088184111002194E-106
   83.6703000000000         1.306151197586540E-106
   83.9097000000000         1.314200798592087E-106
   84.1491000000000         9.135657937789063E-107
   84.3885000000000        -1.497851064585000E-107
   84.6279000000000        -2.155823749030356E-106
   84.8673000000000        -5.345962415497006E-106
   85.1067000000000        -9.811560120019024E-106
   85.3461000000000        -1.532767721247107E-105
   85.5855000000000        -2.113448936483977E-105
   85.8249000000000        -2.568735386715927E-105
   86.0643000000000        -2.642524225195509E-105
   86.3037000000000        -1.964621392353837E-105
   86.5431000000000        -6.248086193110199E-107
   86.7825000000000         3.584821717839065E-105
   87.0219000000000         9.429316207714395E-105
   87.2613000000000         1.765329673588436E-104
   87.5007000000000         2.787237279849130E-104
   87.7401000000000         3.874825504148574E-104
   87.9795000000000         4.754985385058563E-104
   88.2189000000000         4.975090550001443E-104
   88.4583000000000         3.881849501849914E-104
   88.6977000000000         6.423795505031162E-105
   88.9371000000000        -5.661982795995779E-104
   89.1765000000000        -1.583404387401175E-103
   89.4159000000000        -3.021821565556526E-103
   89.6553000000000        -4.819767441388879E-103
   89.8947000000000        -6.754300201343607E-103
   90.1341000000000        -8.367846502919895E-103
   90.3735000000000        -8.901319030801859E-103
   90.6129000000000        -7.259098237959500E-103
   90.8523000000000        -2.043441558985117E-103
   91.0917000000000         8.292677646927613E-103
   91.3311000000000         2.511859711206449E-102
   91.5705000000000         4.907311919301167E-102
   91.8099000000000         7.925643811034248E-102
   92.0493000000000         1.121871303927688E-101
   92.2887000000000         1.406296379478693E-101
   92.5281000000000         1.525230923220817E-101
   92.7675000000000         1.304051350108293E-101
   93.0069000000000         5.190857756898872E-102
   93.2463000000000        -1.079208982136458E-101
   93.4857000000000        -3.716412484336409E-101
   93.7251000000000        -7.509849919388633E-101
   93.9645000000000        -1.234544171351246E-100
   94.2039000000000        -1.771869360995294E-100
   94.4433000000000        -2.255539442033254E-100
   94.6827000000000        -2.504594657219661E-100
   94.9221000000000        -2.255091004521148E-100
   95.1615000000000        -1.166192580071440E-100
   95.4009000000000         1.147336725163753E-100
   95.6403000000000         5.043999104176777E-100
   95.8797000000000         1.073445134694872E-099
   96.1191000000000         1.810384060669543E-099
   96.3585000000000         2.648135209546498E-099
   96.5979000000000         3.437820672559106E-099
   96.8373000000000         3.924076798923744E-099
   97.0767000000000         3.729806848806074E-099
   97.3161000000000         2.361970682332370E-099
   97.5555000000000        -7.466134186256504E-100
   97.7949000000000        -6.142516659622488E-099
   98.0343000000000        -1.418813576182724E-098
   98.2737000000000        -2.481962186400760E-098
   98.5131000000000        -3.723011790330268E-098
   98.7525000000000        -4.950498775550818E-098
   98.9919000000000        -5.826899632696191E-098
   99.2313000000000        -5.844817114244460E-098
   99.4707000000000        -4.329723113719523E-098
   99.7101000000000        -4.888384681008539E-099
   99.9495000000000         6.471525939755076E-098
   100.188900000000         1.713887534247695E-097
   100.428300000000         3.158375835057961E-097
   100.667700000000         4.894789078470085E-097
   100.907100000000         6.696189779699007E-097
   101.146500000000         8.146453285304739E-097
   101.385900000000         8.604834476444778E-097
   101.625300000000         7.201701434079055E-097
   101.864700000000         2.889676806815556E-097
   102.104100000000        -5.421845112228690E-097
   102.343500000000        -1.862150213637304E-096
   102.582900000000        -3.702086337899641E-096
   102.822300000000        -5.984901365693041E-096
   103.061700000000        -8.464896697259613E-096
   103.301100000000        -1.066560406680955E-095
   103.540500000000        -1.183007753958954E-095
   103.779900000000        -1.090506299047243E-095
   104.019300000000        -6.587420322562237E-096
   104.258700000000         2.533964170334619E-096
   104.498100000000         1.770744984001462E-095
   104.737500000000         3.959384821917970E-095
   104.976900000000         6.768230479332156E-095
   105.216300000000         9.957694517826975E-095
   105.455700000000         1.302371572573338E-094
   105.695100000000         1.513238556448388E-094
   105.934500000000         1.508849240394742E-094
   106.173900000000         1.136935121263852E-094
   106.413300000000         2.261326070379066E-095
   106.652700000000        -1.386235211749343E-094
   106.892100000000        -3.809112548178971E-094
   107.131500000000        -7.034239469147379E-094
   107.370900000000        -1.085669299119628E-093
   107.610300000000        -1.478734861142137E-093
   107.849700000000        -1.797247615285260E-093
   108.089100000000        -1.914433276210077E-093
   108.328500000000        -1.663546750895911E-093
   108.567900000000        -8.496558045981321E-094
   108.807300000000         7.239872498422575E-094
   109.046700000000         3.211319706794021E-093
   109.286100000000         6.658724275666991E-093
   109.525500000000         1.092173309203417E-092
   109.764900000000         1.557008275135565E-092
   110.004300000000         1.979528140688955E-092
   110.243700000000         2.234361256577561E-092
   110.483100000000         2.150673551424474E-092
   110.722500000000         1.520993822680493E-092
   110.961900000000         1.241982029918902E-093
   111.201300000000        -2.233312850210591E-092
   111.440700000000        -5.655721329858363E-092
   111.680100000000        -1.007571230519806E-091
   111.919500000000        -1.515763384760664E-091
   112.158900000000        -2.019812939474389E-091
   112.398300000000        -2.404488105842745E-091
   112.637700000000        -2.506323390645274E-091
   112.877100000000        -2.118874698262116E-091
   113.116500000000        -1.010875417632426E-091
   113.355900000000         1.038533389943785E-091
   113.595300000000         4.184469328769731E-091
   113.834700000000         8.440370470430250E-091
   114.074100000000         1.358516779552773E-090
   114.313500000000         1.906330689124809E-090
   114.552900000000         2.389498444339089E-090
   114.792300000000         2.662251620071271E-090
   115.031700000000         2.532693255776455E-090
   115.271100000000         1.775470129302166E-090
   115.510500000000         1.595198131072520E-091
   115.749900000000        -2.505806039874465E-090
   115.989300000000        -6.304874800177045E-090
   116.228700000000        -1.113219575858822E-089
   116.468100000000        -1.659818824078641E-089
   116.707500000000        -2.193789370966823E-089
   116.946900000000        -2.594381127180379E-089
   117.186300000000        -2.695166164597991E-089
   117.425700000000        -2.291396563953109E-089
   117.665100000000        -1.159865796845718E-089
   117.904500000000         9.054161251628918E-090
   118.143900000000         4.039774464618698E-089
   118.383300000000         8.237247910834467E-089
   118.622700000000         1.326733120372371E-088
   118.862100000000         1.858892379294999E-088
   119.101500000000         2.327768561783597E-088
   119.340900000000         2.598971032907526E-088
   119.580300000000         2.499029914732497E-088
   119.819700000000         1.827995998585947E-088
   120.059100000000         3.848421494590627E-089
   120.298500000000        -1.992096926441781E-088
   120.537900000000        -5.369193362342501E-088
   120.777300000000        -9.648548168530813E-088
   121.016700000000        -1.449246748745006E-087
   121.256100000000        -1.925294014602349E-087
   121.495500000000        -2.292323711375005E-087
   121.734900000000        -2.413402454353086E-087
   121.974300000000        -2.122011716159859E-087
   122.213700000000        -1.238458467180812E-087
   122.453100000000         4.017518600363591E-088
   122.692500000000         2.906491664931310E-087
   122.931900000000         6.273440088461350E-087
   123.171300000000         1.032818922452770E-086
   123.410700000000         1.466163672882555E-086
   123.650100000000         1.857864708957660E-086
   123.889500000000         2.107438450589526E-086
   124.128900000000         2.085834203044420E-086
   124.368300000000         1.644776388196068E-086
   124.607700000000         6.350487873583712E-087
   124.847100000000        -1.064926969540254E-086
   125.086500000000        -3.510135706861181E-086
   125.325900000000        -6.641528461604541E-086
   125.565300000000        -1.023466936603933E-085
   125.804700000000        -1.385228240865694E-085
   126.044100000000        -1.681198800573198E-085
   126.283500000000        -1.818368678525543E-085
   126.522900000000        -1.683312893886290E-085
   126.762300000000        -1.152822161320636E-085
   127.001700000000        -1.121471401172180E-086
   127.241100000000         1.518544373041129E-085
   127.480500000000         3.750146202684501E-085
   127.719900000000         6.485463895098110E-085
   127.959300000000         9.479639516568530E-085
   128.198700000000         1.230742591279161E-084
   128.438100000000         1.434713132566130E-084
   128.677500000000         1.479308075850000E-084
   128.916900000000         1.270929070722418E-084
   129.156300000000         7.135956240299261E-085
   129.395700000000        -2.743501814353107E-085
   129.635100000000        -1.737439087825094E-084
   129.874500000000        -3.655244829304373E-084
   130.113900000000        -5.912100554717419E-084
   130.353300000000        -8.268723352499173E-084
   130.592700000000        -1.034200953746542E-083
   130.832100000000        -1.160097741213727E-083
   131.071500000000        -1.138794744335258E-083
   131.310900000000        -8.974048979759658E-084
   131.550300000000        -3.656460462228600E-084
   131.789700000000         5.099117068284557E-084
   132.029100000000         1.747379287072020E-083
   132.268500000000         3.308096474517910E-083
   132.507900000000         5.074602369983065E-083
   132.747300000000         6.831762599368195E-083
   132.986700000000         8.256098327499687E-083
   133.226100000000         8.919410631113371E-083
   133.465500000000         8.313256723950011E-083
   133.704900000000         5.900334928565107E-083
   133.944300000000         1.196984298342266E-083
   134.183700000000        -6.112533180649288E-083
   134.423100000000        -1.603471968691374E-082
   134.662500000000        -2.811050073733514E-082
   134.901900000000        -4.126453322817070E-082
   135.141300000000        -5.369006967122577E-082
   135.380700000000        -6.280768012106659E-082
   135.620100000000        -6.534176662015051E-082
   135.859500000000        -5.755930989769581E-082
   136.098900000000        -3.570806547693750E-082
   136.338300000000         3.325998119584750E-083
   136.577700000000         6.115169632076927E-082
   136.817100000000         1.368478290842344E-081
   137.056500000000         2.258856581198277E-081
   137.295900000000         3.191641562650488E-081
   137.535300000000         4.023837231738741E-081
   137.774700000000         4.560332039266254E-081
   138.014100000000         4.562890750609971E-081
   138.253500000000         3.771082601828383E-081
   138.492900000000         1.937204655344927E-081
   138.732300000000        -1.124221968433644E-081