  -1.79550000000000         0.000000000000000E+000
  -1.55610000000000         0.000000000000000E+000
  -1.31670000000000         0.000000000000000E+000
  -1.07730000000000         0.000000000000000E+000
 -0.837900000000000         0.000000000000000E+000
 -0.598500000000000         0.000000000000000E+000
 -0.359100000000000         0.000000000000000E+000
 -0.119700000000000         0.000000000000000E+000
  0.119700000000000         0.000000000000000E+000
  0.359100000000000         0.000000000000000E+000
  0.598500000000000         0.000000000000000E+000
  0.837900000000000         0.000000000000000E+000
   1.07730000000000         0.000000000000000E+000
   1.31670000000000         0.000000000000000E+000
   1.55610000000000         0.000000000000000E+000
   1.79550000000000         0.000000000000000E+000
   2.03490000000000         0.000000000000000E+000
   2.27430000000000         0.000000000000000E+000
   2.51370000000000         0.000000000000000E+000
   2.75310000000000         0.000000000000000E+000
   2.99250000000000         0.000000000000000E+000
   3.23190000000000         0.000000000000000E+000
   3.47130000000000         0.000000000000000E+000
   3.71070000000000         0.000000000000000E+000
   3.95010000000000         0.000000000000000E+000
   4.18950000000000         0.000000000000000E+000
   4.42890000000000         0.000000000000000E+000
   4.66830000000000         0.000000000000000E+000
   4.90770000000000         0.000000000000000E+000
   5.14710000000000         0.000000000000000E+000
   5.38650000000000         0.000000000000000E+000
   5.62590000000000         0.000000000000000E+000
   5.86530000000000         0.000000000000000E+000
   6.10470000000000         0.000000000000000E+000
   6.34410000000000         0.000000000000000E+000
   6.58350000000000         0.000000000000000E+000
   6.82290000000000         0.000000000000000E+000
   7.06230000000000         0.000000000000000E+000
   7.30170000000000         0.000000000000000E+000
   7.54110000000000         0.000000000000000E+000
   7.78050000000000         0.000000000000000E+000
   8.01990000000000         0.000000000000000E+000
   8.25930000000000         0.000000000000000E+000
   8.49870000000000         0.000000000000000E+000
   8.73810000000000         0.000000000000000E+000
   8.97750000000000         0.000000000000000E+000
   9.21690000000000         0.000000000000000E+000
   9.45630000000000         0.000000000000000E+000
   9.69570000000000         0.000000000000000E+000
   9.93510000000000         0.000000000000000E+000
   10.1745000000000         0.000000000000000E+000
   10.4139000000000         0.000000000000000E+000
   10.6533000000000         0.000000000000000E+000
   10.8927000000000         0.000000000000000E+000
   11.1321000000000         0.000000000000000E+000
   11.3715000000000         0.000000000000000E+000
   11.6109000000000         0.000000000000000E+000
   11.8503000000000         0.000000000000000E+000
   12.0897000000000         0.000000000000000E+000
   12.3291000000000         0.000000000000000E+000
   12.5685000000000         0.000000000000000E+000
   12.8079000000000         2.292231501858726E-224
   13.0473000000000         1.235003605272874E-212
   13.2867000000000         6.493155960288921E-211
   13.5261000000000        -1.846327033404161E-208
   13.7655000000000        -1.726957396684170E-206
   14.0049000000000        -7.071817825839520E-205
   14.2443000000000        -1.645434251310375E-203
   14.4837000000000        -1.792279763128693E-202
   14.7231000000000         2.410676220637352E-201
   14.9625000000000         1.685818606893291E-199
   15.2019000000000         4.756787392314206E-198
   15.4413000000000         9.692511490323300E-197
   15.6807000000000         1.606805317038700E-195
   15.9201000000000         2.279768788027833E-194
   16.1595000000000         2.848231977880699E-193
   16.3989000000000         3.192206687673363E-192
   16.6383000000000         3.252572134099178E-191
   16.8777000000000         3.043682042294138E-190
   17.1171000000000         2.637113620417898E-189
   17.3565000000000         2.129696853726353E-188
   17.5959000000000         1.612212741880686E-187
   17.8353000000000         1.149652747633193E-186
   18.0747000000000         7.755696449359071E-186
   18.3141000000000         4.968836876081589E-185
   18.5535000000000         3.033720886613118E-184
   18.7929000000000         1.770726277863030E-183
   19.0323000000000         9.908854743304624E-183
   19.2717000000000         5.329772553416932E-182
   19.5111000000000         2.761804225269292E-181
   19.7505000000000         1.381388032189617E-180
   19.9899000000000         6.679565198043797E-180
   20.2293000000000         3.125825238766898E-179
   20.4687000000000         1.416473547423257E-178
   20.7081000000000         6.215127745768394E-178
   20.9475000000000         2.638348446073363E-177
   21.1869000000000         1.081651645725037E-176
   21.4263000000000         4.269731444937131E-176
   21.6657000000000         1.614929884839292E-175
   21.9051000000000         5.806512245163110E-175
   22.1445000000000         1.957992300143197E-174
   22.3839000000000         6.034531343877313E-174
   22.6233000000000         1.601887118694026E-173
   22.8627000000000         2.994317703472279E-173
   23.1021000000000        -1.456276471933148E-173
   23.3415000000000        -5.531343791961907E-172
   23.5809000000000        -3.908183018363114E-171
   23.8203000000000        -2.095085442868022E-170
   24.0597000000000        -9.851274340151876E-170
   24.2991000000000        -4.263114649887611E-169
   24.5385000000000        -1.735606923100011E-168
   24.7779000000000        -6.727193276575171E-168
   25.0173000000000        -2.500230150350105E-167
   25.2567000000000        -8.951231346491344E-167
   25.4961000000000        -3.096484539006827E-166
   25.7355000000000        -1.037110378087039E-165
   25.9749000000000        -3.367565801994650E-165
   26.2143000000000        -1.060826142895656E-164
   26.4537000000000        -3.242402852569369E-164
   26.6931000000000        -9.611336792210636E-164
   26.9325000000000        -2.759855057168317E-163
   27.1719000000000        -7.660512618686378E-163
   27.4113000000000        -2.048269356222087E-162
   27.6507000000000        -5.245815456430958E-162
   27.8901000000000        -1.274678209237890E-161
   28.1295000000000        -2.888532472308982E-161
   28.3689000000000        -5.891995551178453E-161
   28.6083000000000        -9.858942088357656E-161
   28.8477000000000        -8.653168744534611E-161
   29.0871000000000         2.695798106644264E-160
   29.3265000000000         2.058822122306903E-159
   29.5659000000000         8.869106581709847E-159
   29.8053000000000         3.160027907588451E-158
   30.0447000000000         1.013563280415453E-157
   30.2841000000000         3.022424508832977E-157
   30.5235000000000         8.505087389025386E-157
   30.7629000000000         2.274734145565022E-156
   31.0023000000000         5.798314946543611E-156
   31.2417000000000         1.407820282202046E-155
   31.4811000000000         3.242979789348202E-155
   31.7205000000000         7.025747897685353E-155
   31.9599000000000         1.406689806432330E-154
   32.1993000000000         2.506237120838887E-154
   32.4387000000000         3.581295865590286E-154
   32.6781000000000         2.325385262481139E-154
   32.9175000000000        -9.414022727895216E-154
   33.1569000000000        -5.583154528748411E-153
   33.3963000000000        -2.014366530049577E-152
   33.6357000000000        -6.047185027782730E-152
   33.8751000000000        -1.627786489823636E-151
   34.1145000000000        -4.039734711027780E-151
   34.3539000000000        -9.343907836924070E-151
   34.5933000000000        -2.017391114129744E-150
   34.8327000000000        -4.038338098195276E-150
   35.0721000000000        -7.352965573565411E-150
   35.3115000000000        -1.161257767173147E-149
   35.5509000000000        -1.367551695092483E-149
   35.7903000000000        -2.119909222322413E-150
   36.0297000000000         5.568862973588276E-149
   36.2691000000000         2.414632046846092E-148
   36.5085000000000         7.410270705815018E-148
   36.7479000000000         1.942713349630236E-147
   36.9873000000000         4.590824523536774E-147
   37.2267000000000         9.971592564446938E-147
   37.4661000000000         1.999494764425433E-146
   37.7055000000000         3.673580986779492E-146
   37.9449000000000         6.031324767053897E-146
   38.1843000000000         8.257635146134779E-146
   38.4237000000000         7.144672176666739E-146
   38.6631000000000        -6.356029478017083E-146
   38.9025000000000        -5.401394176217958E-145
   39.1419000000000        -1.827610433560639E-144
   39.3813000000000        -4.846666474769895E-144
   39.6207000000000        -1.123652990856200E-143
   39.8601000000000        -2.358593243360498E-143
   40.0995000000000        -4.527751559011388E-143
   40.3389000000000        -7.904993512048917E-143
   40.5783000000000        -1.223092826628594E-142
   40.8177000000000        -1.553307371672730E-142
   41.0571000000000        -1.155608224278110E-142
   41.2965000000000         1.525017963464134E-142
   41.5359000000000         9.852888048528311E-142
   41.7753000000000         3.036709119844554E-141
   42.0147000000000         7.454153427929206E-141
   42.2541000000000         1.602478078080579E-140
   42.4935000000000         3.108074403836237E-140
   42.7329000000000         5.466114916768901E-140
   42.9723000000000         8.589941208721476E-140
   43.2117000000000         1.147508700015874E-139
   43.4511000000000         1.089967612053465E-139
   43.6905000000000        -9.761181107491611E-141
   43.9299000000000        -4.057091296555634E-139
   44.1693000000000        -1.385693288861378E-138
   44.4087000000000        -3.464072363140901E-138
   44.6481000000000        -7.398705938647941E-138
   44.8875000000000        -1.410335991777880E-137
   45.1269000000000        -2.423501386626305E-137
   45.3663000000000        -3.707980080543851E-137
   45.6057000000000        -4.811335562940071E-137
   45.8451000000000        -4.433171327938730E-137
   46.0845000000000         3.709520453275937E-138
   46.3239000000000         1.538718421793534E-136
   46.5633000000000         5.075509554768230E-136
   46.8027000000000         1.222834595880932E-135
   47.0421000000000         2.511610628184418E-135
   47.2815000000000         4.589897739505388E-135
   47.5209000000000         7.523426761934956E-135
   47.7603000000000         1.087160317278344E-134
   47.9997000000000         1.298776779020639E-134
   48.2391000000000         9.802346714773016E-135
   48.4785000000000        -7.052764756327587E-135
   48.7179000000000        -5.272671942045792E-134
   48.9573000000000        -1.516591667528314E-133
   49.1967000000000        -3.384074362830137E-133
   49.4361000000000        -6.529995864946288E-133
   49.6755000000000        -1.123627295068083E-132
   49.9149000000000        -1.724652262436114E-132
   50.1543000000000        -2.292195999997941E-132
   50.3937000000000        -2.375222760888235E-132
   50.6331000000000        -1.002303678618528E-132
   50.8725000000000         3.636395735146919E-132
   51.1119000000000         1.453798044296789E-131
   51.3513000000000         3.609599561295845E-131
   51.5907000000000         7.378505584707114E-131
   51.8301000000000         1.325883787662892E-130
   52.0695000000000         2.129400585437868E-130
   52.3089000000000         3.023621268186881E-130
   52.5483000000000         3.604866788652153E-130
   52.7877000000000         2.952363276876050E-130
   53.0271000000000        -7.049225926124338E-131
   53.2665000000000        -1.037682762010794E-129
   53.5059000000000        -3.061646961152076E-129
   53.7453000000000        -6.741753530602782E-129
   53.9847000000000        -1.270831546180000E-128
   54.2241000000000        -2.130182286749001E-128
   54.4635000000000        -3.188772822987741E-128
   54.7029000000000        -4.160331032230268E-128
   54.9423000000000        -4.332654711357485E-128
   55.1817000000000        -2.275779760133142E-128
   55.4211000000000         4.517284764204355E-128
   55.6605000000000         1.996466258039076E-127
   55.8999000000000         4.947952547633957E-127
   56.1393000000000         9.936222996927718E-127
   56.3787000000000         1.747452781697946E-126
   56.6181000000000         2.749431767852829E-126
   56.8575000000000         3.846760578779773E-126
   57.0969000000000         4.594774964869904E-126
   57.3363000000000         4.040839480296010E-126
   57.5757000000000         4.444833550512933E-127
   57.8151000000000        -9.017062920614979E-126
   58.0545000000000        -2.842767729351028E-125
   58.2939000000000        -6.293051915596393E-125
   58.5333000000000        -1.176816353194834E-124
   58.7727000000000        -1.952380046788344E-124
   59.0121000000000        -2.903874484036914E-124
   59.2515000000000        -3.812547794677907E-124
   59.4909000000000        -4.156696945938724E-124
   59.7303000000000        -2.926448170351375E-124
   59.9697000000000         1.590230436001107E-124
   60.2091000000000         1.198756411244541E-123
   60.4485000000000         3.175280535836312E-123
   60.6879000000000         6.486284614478086E-123
   60.9273000000000         1.145747145045178E-122
   61.1667000000000         1.808517669563934E-122
   61.4061000000000         2.557325359290197E-122
   61.6455000000000         3.159512632515242E-122
   61.8849000000000         3.124434183509235E-122
   62.1243000000000         1.573034567450974E-122
   62.3637000000000        -2.892986335233117E-122
   62.6031000000000        -1.226321999117887E-121
   62.8425000000000        -2.901945049050183E-121
   63.0819000000000        -5.567944758082527E-121
   63.3213000000000        -9.370944710150603E-121
   63.5607000000000        -1.414481579949704E-120
   63.8001000000000        -1.906510549780242E-120
   64.0395000000000        -2.213572856526166E-120
   64.2789000000000        -1.951276361739337E-120
   64.5183000000000        -4.747656945099159E-121
   64.7577000000000         3.182596514703481E-120
   64.9971000000000         1.031099354925640E-119
   65.2365000000000         2.238863580778388E-119
   65.4759000000000         4.069044268163130E-119
   65.7153000000000         6.548027885872891E-119
   65.9547000000000         9.459878818474227E-119
   66.1941000000000         1.212764826127984E-118
   66.4335000000000         1.311129870668506E-118
   66.6729000000000         9.843811224209951E-119
   66.9123000000000        -1.720322903114251E-119
   67.1517000000000        -2.728304394564005E-118
   67.3911000000000        -7.391834203935892E-118
   67.6305000000000        -1.488714594190345E-117
   67.8699000000000        -2.568062110705498E-117
   68.1093000000000        -3.947220271084765E-117
   68.3487000000000        -5.437621616471119E-117
   68.5881000000000        -6.574485424221642E-117
   68.8275000000000        -6.467560197963227E-117
   69.0669000000000        -3.641978523230014E-117
   69.3063000000000         4.079224244716586E-117
   69.5457000000000         1.955472054992605E-116
   69.7851000000000         4.601121783616975E-116
   70.0245000000000         8.621366234108345E-116
   70.2639000000000         1.408377276007443E-115
   70.5033000000000         2.057459291044682E-115
   70.7427000000000         2.679480276714347E-115
   70.9821000000000         3.002819735086905E-115
   71.2215000000000         2.553862290636618E-115
   71.4609000000000         6.045969097224642E-116
   71.7003000000000        -3.842902452920466E-115
   71.9397000000000        -1.198723399358747E-114
   72.1791000000000        -2.500382264900822E-114
   72.4185000000000        -4.357645181374094E-114
   72.6579000000000        -6.708533735859751E-114
   72.8973000000000        -9.237135642178770E-114
   73.1367000000000        -1.120649121690387E-113
   73.3761000000000        -1.126169001454459E-113
   73.6155000000000        -7.243061713448769E-114
   73.8549000000000         3.910709973323532E-114
   74.0943000000000         2.603571975330874E-113
   74.3337000000000         6.319497528532340E-113
   74.5731000000000         1.184525274389793E-112
   74.8125000000000         1.916821381467513E-112
   75.0519000000000         2.761641347661409E-112
   75.2913000000000         3.538977733619165E-112
   75.5307000000000         3.899400930721958E-112
   75.7701000000000         3.267590155275058E-112
   76.0095000000000         8.062329670894752E-113
   76.2489000000000        -4.565503322923785E-112
   76.4883000000000        -1.404831075999874E-111
   76.7277000000000        -2.866770452957013E-111
   76.9671000000000        -4.873305738353030E-111
   77.2065000000000        -7.298530058314600E-111
   77.4459000000000        -9.740924087237930E-111
   77.6853000000000        -1.137783344100847E-110
   77.9247000000000        -1.081614557251212E-110
   78.1641000000000        -5.986715017387237E-111
   78.4035000000000         5.836912698749631E-111
   78.6429000000000         2.777645304503629E-110
   78.8823000000000         6.268826334601882E-110
   79.1217000000000         1.119295468566155E-109
   79.3611000000000         1.733975523712765E-109
   79.6005000000000         2.387813652852533E-109
   79.8399000000000         2.901716889536761E-109
   80.0793000000000         2.965327484366765E-109
   80.3187000000000         2.110806040507876E-109
   80.5581000000000        -2.867104783950013E-110
   80.7975000000000        -4.956115728134289E-109
   81.0369000000000        -1.259131901034978E-108
   81.2763000000000        -2.358884694661747E-108
   81.5157000000000        -3.762945282475303E-108
   81.7551000000000        -5.309116625875314E-108
   81.9945000000000        -6.632449007342402E-108
   82.2339000000000        -7.089477854191211E-108
   82.4733000000000        -5.700722948044778E-108
   82.7127000000000        -1.147434589638343E-108
   82.9521000000000         8.125086334487547E-108
   83.1915000000000         2.363054840876081E-107
   83.4309000000000         4.631723622027376E-107
   83.6703000000000         7.573280364354585E-107
   83.9097000000000         1.088557555607173E-106
   84.1491000000000         1.386567378801350E-106
   84.3885000000000         1.525972857668513E-106
   84.6279000000000         1.314850269829020E-106
   84.8673000000000         4.937644466327784E-107
   85.1067000000000        -1.244796534710947E-106
   85.3461000000000        -4.204010538832331E-106
   85.5855000000000        -8.583688384042097E-106
   85.8249000000000        -1.432320404671762E-105
   86.0643000000000        -2.088279341563795E-105
   86.3037000000000        -2.697561003695371E-105
   86.5431000000000        -3.028940064222812E-105
   86.7825000000000        -2.727476840387983E-105
   87.0219000000000        -1.312527425721468E-105
   87.2613000000000         1.787279759865671E-105
   87.5007000000000         7.139871051419963E-105
   87.7401000000000         1.513257185578330E-104
   87.9795000000000         2.569253556528334E-104
   88.2189000000000         3.789944187944370E-104
   88.4583000000000         4.951326911869024E-104
   88.6977000000000         5.648573729430109E-104
   88.9371000000000         5.258898240649916E-104
   89.1765000000000         2.937616366707329E-104
   89.4159000000000        -2.322441966226912E-104
   89.6553000000000        -1.153086528917732E-103
   89.8947000000000        -2.539948847559686E-103
   90.1341000000000        -4.387045465321051E-103
   90.3735000000000        -6.546473753157731E-103
   90.6129000000000        -8.648997017268980E-103
   90.8523000000000        -1.002212998949274E-102
   91.0917000000000        -9.627396835711054E-103
   91.3311000000000        -6.051595932143798E-103
   91.5705000000000         2.399387461545425E-103
   91.8099000000000         1.744461353747019E-102
   92.0493000000000         4.034737002877739E-102
   92.2887000000000         7.115981156952790E-102
   92.5281000000000         1.076808406782172E-101
   92.7675000000000         1.441878681733406E-101
   93.0069000000000         1.701188193214022E-101
   93.2463000000000         1.690416951133724E-101
   93.4857000000000         1.184462932567087E-101
   93.7251000000000        -8.900134636654934E-103
   93.9645000000000        -2.411253208836191E-101
   94.2039000000000        -5.999998838796317E-101
   94.4433000000000        -1.089496370928166E-100
   94.6827000000000        -1.679952168725153E-100
   94.9221000000000        -2.288696292804940E-100
   95.1615000000000        -2.759689741689879E-100
   95.4009000000000        -2.847069300143145E-100
   95.6403000000000        -2.210344917681474E-100
   95.8797000000000        -4.320025290633046E-101
   96.1191000000000         2.929310387237571E-100
   96.3585000000000         8.236116353422467E-100
   96.5979000000000         1.560858177054620E-099
   96.8373000000000         2.469640173363547E-099
   97.0767000000000         3.439706148379310E-099
   97.3161000000000         4.255471692571896E-099
   97.5555000000000         4.570617711080049E-099
   97.7949000000000         3.897993187733934E-099
   98.0343000000000         1.629580734452802E-099
   98.2737000000000        -2.895286215028951E-099
   98.5131000000000        -1.025405421403403E-098
   98.7525000000000        -2.072106666713027E-098
   98.9919000000000        -3.395704235137136E-098
   99.2313000000000        -4.862026210847963E-098
   99.4707000000000        -6.194202669437383E-098
   99.7101000000000        -6.935097637696870E-098
   99.9495000000000        -6.428258527964069E-098
   100.188900000000        -3.836531017742141E-098
   100.428300000000         1.777834986013892E-098
   100.667700000000         1.128577248051537E-097
   100.907100000000         2.521408509372866E-097
   101.146500000000         4.334712914571422E-097
   101.385900000000         6.421930342376775E-097
   101.625300000000         8.454707661893184E-097
   101.864700000000         9.870104989013830E-097
   102.104100000000         9.838284916996473E-097
   102.343500000000         7.274125549278730E-097
   102.582900000000         9.223096941010601E-098
   102.822300000000        -1.045146383658475E-096
   103.061700000000        -2.773339804483722E-096
   103.301100000000        -5.098138922306377E-096
   103.540500000000        -7.880031031672134E-096
   103.779900000000        -1.076238004826185E-095
   104.019300000000        -1.310137519151034E-095
   104.258700000000        -1.391643689870464E-095
   104.498100000000        -1.188811314675412E-095
   104.737500000000        -5.438109915305645E-096
   104.976900000000         7.069421380589117E-096
   105.216300000000         2.696817761973672E-095
   105.455700000000         5.474686273194467E-095
   105.695100000000         8.932572851454815E-095
   105.934500000000         1.272007248146935E-094
   106.173900000000         1.615694301446484E-094
   106.413300000000         1.816371784208067E-094
   106.652700000000         1.723966593696234E-094
   106.892100000000         1.152642364822483E-094
   107.131500000000        -9.983649437185726E-096
   107.370900000000        -2.215351493005283E-094
   107.610300000000        -5.298021098556636E-094
   107.849700000000        -9.295534008153837E-094
   108.089100000000        -1.390324268054246E-093
   108.328500000000        -1.846184053464769E-093
   108.567900000000        -2.186830452383209E-093
   108.807300000000        -2.252999252706354E-093
   109.046700000000        -1.840185357158736E-093
   109.286100000000        -7.154193770933770E-094
   109.525500000000         1.348011826030619E-093
   109.764900000000         4.513906427372587E-093
   110.004300000000         8.802967447379707E-093
   110.243700000000         1.399188716499131E-092
   110.483100000000         1.950108914387307E-092
   110.722500000000         2.428931212921169E-092
   110.961900000000         2.678360756686727E-092
   111.201300000000         2.488397312513686E-092
   111.440700000000         1.609050564005896E-092
   111.680100000000        -2.195620602224980E-093
   111.919500000000        -3.215200487722938E-092
   112.158900000000        -7.477037146456558E-092
   112.398300000000        -1.288606484192631E-091
   112.637700000000        -1.898972619723163E-091
   112.877100000000        -2.488634123633589E-091
   113.116500000000        -2.913489825251063E-091
   113.355900000000        -2.972641273595994E-091
   113.595300000000        -2.416240038145979E-091
   113.834700000000        -9.691173589810479E-092
   114.074100000000         1.625009343096025E-091
   114.313500000000         5.535460981517631E-091
   114.552900000000         1.075252068262561E-090
   114.792300000000         1.697637953301319E-090
   115.031700000000         2.349938143952686E-090
   115.271100000000         2.910291484167085E-090
   115.510500000000         3.200033241862562E-090
   115.749900000000         2.986669570682838E-090
   115.989300000000         2.000253309970669E-090
   116.228700000000        -3.210448364193146E-092
   116.468100000000        -3.329842019241369E-090
   116.707500000000        -7.979317013330465E-090
   116.946900000000        -1.383370552743051E-089
   117.186300000000        -2.040121385027012E-089
   117.425700000000        -2.673816112352570E-089
   117.665100000000        -3.137242059847760E-089
   117.904500000000        -3.229159855882300E-089
   118.143900000000        -2.703728819119768E-089
   118.383300000000        -1.294915842222867E-089
   118.622700000000         1.240265480587775E-089
   118.862100000000         5.057482338120047E-089
   119.101500000000         1.014064219265223E-088
   119.340900000000         1.620283821193991E-088
   119.580300000000         2.258451549821347E-088
   119.819700000000         2.816819344367910E-088
   120.059100000000         3.133696033944298E-088
   120.298500000000         3.001081765528910E-088
   120.537900000000         2.179880025563973E-088
   120.777300000000         4.303119836393202E-089
   121.016700000000        -2.439844837528579E-088
   121.256100000000        -6.508681449351771E-088
   121.495500000000        -1.165815257944462E-087
   121.734900000000        -1.748432737941530E-087
   121.974300000000        -2.321352353088720E-087
   122.213700000000        -2.764451947638870E-087
   122.453100000000        -2.914326267174892E-087
   122.692500000000        -2.572093157053461E-087
   122.931900000000        -1.522698058005781E-087
   123.171300000000         4.316299573018339E-088
   123.410700000000         3.422438942698082E-087
   123.650100000000         7.451621623063510E-087
   123.889500000000         1.231789516918735E-086
   124.128900000000         1.754203692448616E-086
   124.368300000000         2.230486933336404E-086
   124.607700000000         2.541722627116894E-086
   124.847100000000         2.534548292723592E-086
   125.086500000000         2.031835594101020E-086
   125.325900000000         8.538953162784580E-087
   125.565300000000        -1.148128233315235E-086
   125.804700000000        -4.046464376181173E-086
   126.044100000000        -7.780601050580174E-086
   126.283500000000        -1.209604423332564E-085
   126.522900000000        -1.648695028336047E-085
   126.762300000000        -2.015574636925321E-085
   127.001700000000        -2.200666279176368E-085
   127.241100000000        -2.069270687613444E-085
   127.480500000000        -1.473587233364276E-085
   127.719900000000        -2.737006857681051E-086
   127.959300000000         1.631652879608699E-085
   128.198700000000         4.265150714764907E-085
   128.438100000000         7.524448406653321E-085
   128.677500000000         1.113455719349154E-084
   128.916900000000         1.460737547382312E-084
   129.156300000000         1.721976558411047E-084
   129.395700000000         1.802407132167841E-084
   129.635100000000         1.590617691539821E-084
   129.874500000000         9.705212969171859E-085
   130.113900000000        -1.595135327311127E-085
   130.353300000000        -1.860192448681514E-084
   130.592700000000        -4.118578273907717E-084
   130.832100000000        -6.811946615219959E-084
   131.071500000000        -9.673126258839044E-084
   131.310900000000        -1.226449585109717E-083
   131.550300000000        -1.396990091034797E-083
   131.789700000000        -1.401520912041223E-083
   132.029100000000        -1.152844365805332E-083
   132.268500000000        -5.648757093911392E-084
   132.507900000000         4.310722261938435E-084
   132.747300000000         1.864843905356753E-083
   132.986700000000         3.702120158771335E-083
   133.226100000000         5.817863784563604E-083
   133.465500000000         7.972733968948416E-083
   133.704900000000         9.798251103990867E-083
   133.944300000000         1.079781433274539E-082
   134.183700000000         1.037136718603715E-082
   134.423100000000         7.871133445850511E-083
   134.662500000000         2.693943399942849E-083
   134.901900000000        -5.588174307185550E-083
   135.141300000000        -1.706351510970528E-082
   135.380700000000        -3.129497966576845E-082
   135.620100000000        -4.713583235167197E-082
   135.859500000000        -6.258061752349651E-082
   136.098900000000        -7.469522993068872E-082
   136.338300000000        -7.967763927385419E-082
   136.577700000000        -7.310274203103155E-082
   136.817100000000        -5.039820707546986E-082
   137.056500000000        -7.580001465500103E-083
   137.295900000000         5.775584603230366E-082
   137.535300000000         1.452357965542053E-081
   137.774700000000         2.504171726879546E-081
   138.014100000000         3.635844945942735E-081
   138.253500000000         4.688883818271600E-081
   138.492900000000         5.441439295698164E-081
   138.732300000000         5.616417407250750E-081