  -1.79550000000000         0.000000000000000E+000
  -1.55610000000000         0.000000000000000E+000
  -1.31670000000000         0.000000000000000E+000
  -1.07730000000000         0.000000000000000E+000
 -0.837900000000000         0.000000000000000E+000
 -0.598500000000000         0.000000000000000E+000
 -0.359100000000000         0.000000000000000E+000
 -0.119700000000000         0.000000000000000E+000
  0.119700000000000         0.000000000000000E+000
  0.359100000000000         0.000000000000000E+000
  0.598500000000000         0.000000000000000E+000
  0.837900000000000         0.000000000000000E+000
   1.07730000000000         0.000000000000000E+000
   1.31670000000000         0.000000000000000E+000
   1.55610000000000         0.000000000000000E+000
   1.79550000000000         0.000000000000000E+000
   2.03490000000000         0.000000000000000E+000
   2.27430000000000         0.000000000000000E+000
   2.51370000000000         0.000000000000000E+000
   2.75310000000000         0.000000000000000E+000
   2.99250000000000         0.000000000000000E+000
   3.23190000000000         0.000000000000000E+000
   3.47130000000000         0.000000000000000E+000
   3.71070000000000         0.000000000000000E+000
   3.95010000000000         0.000000000000000E+000
   4.18950000000000         0.000000000000000E+000
   4.42890000000000         0.000000000000000E+000
   4.66830000000000         0.000000000000000E+000
   4.90770000000000         0.000000000000000E+000
   5.14710000000000         0.000000000000000E+000
   5.38650000000000         0.000000000000000E+000
   5.62590000000000         0.000000000000000E+000
   5.86530000000000         0.000000000000000E+000
   6.10470000000000         0.000000000000000E+000
   6.34410000000000         0.000000000000000E+000
   6.58350000000000         0.000000000000000E+000
   6.82290000000000         0.000000000000000E+000
   7.06230000000000         0.000000000000000E+000
   7.30170000000000         0.000000000000000E+000
   7.54110000000000         0.000000000000000E+000
   7.78050000000000         0.000000000000000E+000
   8.01990000000000         0.000000000000000E+000
   8.25930000000000         0.000000000000000E+000
   8.49870000000000         0.000000000000000E+000
   8.73810000000000         0.000000000000000E+000
   8.97750000000000         0.000000000000000E+000
   9.21690000000000         0.000000000000000E+000
   9.45630000000000         0.000000000000000E+000
   9.69570000000000         0.000000000000000E+000
   9.93510000000000         0.000000000000000E+000
   10.1745000000000         0.000000000000000E+000
   10.4139000000000         0.000000000000000E+000
   10.6533000000000         0.000000000000000E+000
   10.8927000000000         0.000000000000000E+000
   11.1321000000000         0.000000000000000E+000
   11.3715000000000         0.000000000000000E+000
   11.6109000000000         0.000000000000000E+000
   11.8503000000000         0.000000000000000E+000
   12.0897000000000         0.000000000000000E+000
   12.3291000000000         0.000000000000000E+000
   12.5685000000000        -8.080918218905476E-236
   12.8079000000000        -4.451669593236645E-224
   13.0473000000000         1.022694879400487E-213
   13.2867000000000        -8.044263360736305E-210
   13.5261000000000        -5.790826520171354E-208
   13.7655000000000        -1.341589736060959E-206
   14.0049000000000         2.486772853236188E-205
   14.2443000000000         2.935416698675467E-203
   14.4837000000000         1.199204113560626E-201
   14.7231000000000         3.344335762372269E-200
   14.9625000000000         7.310091592016393E-199
   15.2019000000000         1.330720291604528E-197
   15.4413000000000         2.089173485758131E-196
   15.6807000000000         2.894826438726557E-195
   15.9201000000000         3.599475581509358E-194
   16.1595000000000         4.067097844365926E-193
   16.3989000000000         4.217432186579309E-192
   16.6383000000000         4.045651772603864E-191
   16.8777000000000         3.613671692874246E-190
   17.1171000000000         3.022030330329190E-189
   17.3565000000000         2.377035850335158E-188
   17.5959000000000         1.765446256611871E-187
   17.8353000000000         1.242227022257173E-186
   18.0747000000000         8.304451593660073E-186
   18.3141000000000         5.287367226857174E-185
   18.5535000000000         3.212788078607135E-184
   18.7929000000000         1.866334249490486E-183
   19.0323000000000         1.037947469881485E-182
   19.2717000000000         5.532459113585953E-182
   19.5111000000000         2.828482878354331E-181
   19.7505000000000         1.387573556925499E-180
   19.9899000000000         6.531370129135919E-180
   20.2293000000000         2.947947289831608E-179
   20.4687000000000         1.273969915194410E-178
   20.7081000000000         5.256831429078486E-178
   20.9475000000000         2.061107247058802E-177
   21.1869000000000         7.612476604662941E-177
   21.4263000000000         2.605557178810257E-176
   21.6657000000000         7.982439810334710E-176
   21.9051000000000         1.993915596030353E-175
   22.1445000000000         2.558518018278483E-175
   22.3839000000000        -1.265792311098356E-174
   22.6233000000000        -1.418653810884102E-173
   22.8627000000000        -9.112684812128798E-173
   23.1021000000000        -4.867146351443476E-172
   23.3415000000000        -2.352850730522927E-171
   23.5809000000000        -1.064497200413171E-170
   23.8203000000000        -4.582966398491807E-170
   24.0597000000000        -1.895248888830052E-169
   24.2991000000000        -7.571115254492134E-169
   24.5385000000000        -2.932003604558156E-168
   24.7779000000000        -1.103178116655248E-167
   25.0173000000000        -4.038217945184459E-167
   25.2567000000000        -1.439188512857654E-166
   25.4961000000000        -4.995202973773736E-166
   25.7355000000000        -1.688351916707362E-165
   25.9749000000000        -5.554912808390808E-165
   26.2143000000000        -1.777839204994940E-164
   26.4537000000000        -5.529148129914257E-164
   26.6931000000000        -1.668566802224593E-163
   26.9325000000000        -4.876132288156335E-163
   27.1719000000000        -1.376039837670097E-162
   27.4113000000000        -3.734634355348913E-162
   27.6507000000000        -9.688883507197935E-162
   27.8901000000000        -2.379332485645671E-161
   28.1295000000000        -5.436608743844719E-161
   28.3689000000000        -1.116438575572231E-160
   28.6083000000000        -1.884777036675402E-160
   28.8477000000000        -1.735384892026345E-160
   29.0871000000000         4.587569087714357E-160
   29.3265000000000         3.627012214467608E-159
   29.5659000000000         1.547527751325874E-158
   29.8053000000000         5.400350856034586E-158
   30.0447000000000         1.683051512602705E-157
   30.2841000000000         4.838830874719840E-157
   30.5235000000000         1.301466568069013E-156
   30.7629000000000         3.292075075398505E-156
   31.0023000000000         7.826903949181464E-156
   31.2417000000000         1.737407513134413E-155
   31.4811000000000         3.543338135977544E-155
   31.7205000000000         6.399137201213737E-155
   31.9599000000000         9.233350476965135E-155
   32.1993000000000         6.065566473264296E-155
   32.4387000000000        -2.418840653798942E-154
   32.6781000000000        -1.434725845246331E-153
   32.9175000000000        -5.141999372542608E-153
   33.1569000000000        -1.525726141760519E-152
   33.3963000000000        -4.037041259119638E-152
   33.6357000000000        -9.781564482086550E-152
   33.8751000000000        -2.188564534381115E-151
   34.1145000000000        -4.507515483886440E-151
   34.3539000000000        -8.402760851603254E-151
   34.5933000000000        -1.354957024226141E-150
   34.8327000000000        -1.634193867187069E-150
   35.0721000000000        -3.316579121069299E-151
   35.3115000000000         6.427481320246836E-150
   35.5509000000000         2.831938294597367E-149
   35.7903000000000         8.708348510958055E-149
   36.0297000000000         2.270539457618551E-148
   36.2691000000000         5.295093009613444E-148
   36.5085000000000         1.123456922836889E-147
   36.7479000000000         2.165670969801342E-147
   36.9873000000000         3.714897687945490E-147
   37.2267000000000         5.322196994051707E-147
   37.4661000000000         4.960717103327587E-147
   37.7055000000000        -3.422019874661767E-147
   37.9449000000000        -3.493860781895173E-146
   38.1843000000000        -1.230957662847686E-145
   38.4237000000000        -3.350876450696385E-145
   38.6631000000000        -7.925389797128261E-145
   38.9025000000000        -1.689321205892604E-144
   39.1419000000000        -3.277268801484620E-144
   39.3813000000000        -5.743961129076864E-144
   39.6207000000000        -8.814136236360241E-144
   39.8601000000000        -1.074299247052612E-143
   40.0995000000000        -6.120013303767038E-144
   40.3389000000000         1.839967966531863E-143
   40.5783000000000         9.149403400342422E-143
   40.8177000000000         2.682935661146094E-142
   41.0571000000000         6.435176220747364E-142
   41.2965000000000         1.358428649801831E-141
   41.5359000000000         2.578529087118621E-141
   41.7753000000000         4.389273232302006E-141
   42.0147000000000         6.504776900932118E-141
   42.2541000000000         7.604181290574821E-141
   42.4935000000000         4.010031217809931E-141
   42.7329000000000        -1.265117362128950E-140
   42.9723000000000        -5.908301241325517E-140
   43.2117000000000        -1.649885883974178E-139
   43.4511000000000        -3.769535336477201E-139
   43.6905000000000        -7.561524023732908E-139
   43.9299000000000        -1.357472878425690E-138
   44.1693000000000        -2.165499528365344E-138
   44.4087000000000        -2.944467111615194E-138
   44.6481000000000        -2.936697324722073E-138
   44.8875000000000        -3.268715738075762E-139
   45.1269000000000         8.596011614192420E-138
   45.3663000000000         3.054446811923197E-137
   45.6057000000000         7.627568294971861E-137
   45.8451000000000         1.605812328115696E-136
   46.0845000000000         2.989695991096598E-136
   46.3239000000000         4.966649381105695E-136
   46.5633000000000         7.224489762444008E-136
   46.8027000000000         8.562070949447525E-136
   47.0421000000000         5.964575047988367E-136
   47.2815000000000        -6.832254718649852E-136
   47.5209000000000        -4.123738309601621E-135
   47.7603000000000        -1.156613024258538E-134
   47.9997000000000        -2.558791328164829E-134
   48.2391000000000        -4.906828863419364E-134
   48.4785000000000        -8.367626635004399E-134
   48.7179000000000        -1.262799451307330E-133
   48.9573000000000        -1.618368841176631E-133
   49.1967000000000        -1.510704316824755E-133
   49.4361000000000        -1.168003144670066E-134
   49.6755000000000         4.060477121782900E-133
   49.9149000000000         1.342954125585619E-132
   50.1543000000000         3.136781824050896E-132
   50.3937000000000         6.173468872559577E-132
   50.6331000000000         1.071789289282528E-131
   50.8725000000000         1.651940054461511E-131
   51.1119000000000         2.204890920943484E-131
   51.3513000000000         2.321053420191564E-131
   51.5907000000000         1.143253751188663E-131
   51.8301000000000        -2.873065964941049E-131
   52.0695000000000        -1.218252365255206E-130
   52.3089000000000        -3.018865549163894E-130
   52.5483000000000        -6.076615324177496E-130
   52.7877000000000        -1.066954018461052E-129
   53.0271000000000        -1.661533421656807E-129
   53.2665000000000        -2.261671774342433E-129
   53.5059000000000        -2.519624492775752E-129
   53.7453000000000        -1.718246164352330E-129
   53.9847000000000         1.409162727262198E-129
   54.2241000000000         8.829929585731348E-129
   54.4635000000000         2.320266006905527E-128
   54.7029000000000         4.746388722781798E-128
   54.9423000000000         8.362035401712767E-128
   55.1817000000000         1.302048949781037E-127
   55.4211000000000         1.777736775151084E-127
   55.6605000000000         2.019631495697212E-127
   55.8999000000000         1.542330327054177E-127
   56.1393000000000        -4.815299556906658E-128
   56.3787000000000        -5.287032258231231E-127
   56.6181000000000        -1.446403538879467E-126
   56.8575000000000        -2.964357421127536E-126
   57.0969000000000        -5.171720466162350E-126
   57.3363000000000        -7.933613560460919E-126
   57.5757000000000        -1.064569241738380E-125
   57.8151000000000        -1.188685389484639E-125
   58.0545000000000        -9.006675667832778E-126
   58.2939000000000         2.233026647861369E-126
   58.5333000000000         2.771004609725360E-125
   58.7727000000000         7.425260946237614E-125
   59.0121000000000         1.475731458751667E-124
   59.2515000000000         2.480466001105304E-124
   59.4909000000000         3.636254200423827E-124
   59.7303000000000         4.597136400149720E-124
   59.9697000000000         4.671454572411677E-124
   60.2091000000000         2.718841245493771E-124
   60.4485000000000        -2.861128399660701E-124
   60.6879000000000        -1.392467982067241E-123
   60.9273000000000        -3.199123065730625E-123
   61.1667000000000        -5.706926851756698E-123
   61.4061000000000        -8.576559399485120E-123
   61.6455000000000        -1.087547576570457E-122
   61.8849000000000        -1.081453010062681E-122
   62.1243000000000        -5.607250198715103E-123
   62.3637000000000         8.300912308966502E-123
   62.6031000000000         3.425231819339989E-122
   62.8425000000000         7.316056126163291E-122
   63.0819000000000         1.195987684117388E-121
   63.3213000000000         1.560626172097854E-121
   63.5607000000000         1.461537968105575E-121
   63.8001000000000         2.914001003536941E-122
   64.0395000000000        -2.788766593964711E-121
   64.2789000000000        -8.681406924153229E-121
   64.5183000000000        -1.789527019585999E-120
   64.7577000000000        -2.963842121478696E-120
   64.9971000000000        -4.032070065424665E-120
   65.2365000000000        -4.145120530465775E-120
   65.4759000000000        -1.723024017749482E-120
   65.7153000000000         5.726792200935549E-120
   65.9547000000000         2.154660830269872E-119
   66.1941000000000         4.930320122579307E-119
   66.4335000000000         9.113272073699450E-119
   66.6729000000000         1.444729922102523E-118
   66.9123000000000         1.966262482448731E-118
   67.1517000000000         2.169391055690622E-118
   67.3911000000000         1.473047580807398E-118
   67.6305000000000        -1.065017178437957E-118
   67.8699000000000        -6.771564667204822E-118
   68.1093000000000        -1.722012397724964E-117
   68.3487000000000        -3.378241631070801E-117
   68.5881000000000        -5.667077405249731E-117
   68.8275000000000        -8.325606865854737E-117
   69.0669000000000        -1.055075743184692E-116
   69.3063000000000        -1.066147445269704E-116
   69.5457000000000        -5.731002948129685E-117
   69.7851000000000         8.678374704727645E-117
   70.0245000000000         3.842408659333743E-116
   70.2639000000000         8.992191796764756E-116
   70.5033000000000         1.679281620701203E-115
   70.7427000000000         2.712532013373846E-115
   70.9821000000000         3.857289823672963E-115
   71.2215000000000         4.741273537798631E-115
   71.4609000000000         4.636889562344820E-115
   71.7003000000000         2.337646781739856E-115
   71.9397000000000        -3.909452617350756E-115
   72.1791000000000        -1.631861102329669E-114
   72.4185000000000        -3.717908092135775E-114
   72.6579000000000        -6.797125342582916E-114
   72.8973000000000        -1.077640028195653E-113
   73.1367000000000        -1.507119935154320E-113
   73.3761000000000        -1.826324116450511E-113
   73.6155000000000        -1.769955489563995E-113
   73.8549000000000        -9.129004149390419E-114
   74.0943000000000         1.343240325097744E-113
   74.3337000000000         5.728977000386517E-113
   74.5731000000000         1.296517005690978E-112
   74.8125000000000         2.346293485659639E-112
   75.0519000000000         3.680534456394808E-112
   75.2913000000000         5.097018249981573E-112
   75.5307000000000         6.130924597382034E-112
   75.7701000000000         5.941184608213796E-112
   76.0095000000000         3.216564206134048E-112
   76.2489000000000        -3.840516138914023E-112
   76.4883000000000        -1.736104490719064E-111
   76.7277000000000        -3.936147012915435E-111
   76.9671000000000        -7.085106974229565E-111
   77.2065000000000        -1.103523441754581E-110
   77.4459000000000        -1.517608169635112E-110
   77.6853000000000        -1.816394926038786E-110
   77.9247000000000        -1.763543913573071E-110
   78.1641000000000        -9.994421559868141E-111
   78.4035000000000         9.571795783507350E-111
   78.6429000000000         4.661298442485495E-110
   78.8823000000000         1.061653563997401E-109
   79.1217000000000         1.903842956848205E-109
   79.3611000000000         2.947638464682630E-109
   79.6005000000000         4.028518239268317E-109
   79.8399000000000         4.798159374754223E-109
   80.0793000000000         4.659866992412534E-109
   80.3187000000000         2.726472514353428E-109
   80.5581000000000        -2.161740656040053E-109
   80.7975000000000        -1.130510916496824E-108
   81.0369000000000        -2.583093325176730E-108
   81.2763000000000        -4.612671113948875E-108
   81.5157000000000        -7.096648761746762E-108
   81.7551000000000        -9.633002639415070E-108
   81.9945000000000        -1.140202459614350E-107
   82.2339000000000        -1.103564602281926E-107
   82.4733000000000        -6.546434387016682E-108
   82.7127000000000         4.601657551352178E-108
   82.9521000000000         2.516787899798424E-107
   83.1915000000000         5.741967249957572E-107
   83.4309000000000         1.018957113033771E-106
   83.6703000000000         1.555641437877644E-106
   83.9097000000000         2.094172015170858E-106
   84.1491000000000         2.457701167554021E-106
   84.3885000000000         2.358822666963086E-106
   84.6279000000000         1.389899813966722E-106
   84.8673000000000        -9.560984028946084E-107
   85.1067000000000        -5.212672623825776E-106
   85.3461000000000        -1.179030524730452E-105
   85.5855000000000        -2.072838280018542E-105
   85.8249000000000        -3.133836604484675E-105
   86.0643000000000        -4.175402493132959E-105
   86.3037000000000        -4.844901392160226E-105
   86.5431000000000        -4.584731485610493E-105
   86.7825000000000        -2.623580963627968E-105
   87.0219000000000         1.971984207328893E-105
   87.2613000000000         1.014768433872508E-104
   87.5007000000000         2.257283826656079E-104
   87.7401000000000         3.918003374967667E-104
   87.9795000000000         5.852547679586989E-104
   88.2189000000000         7.701204402479277E-104
   88.4583000000000         8.809728498144775E-104
   88.6977000000000         8.172087174385277E-104
   88.9371000000000         4.432306426428746E-104
   89.1765000000000        -4.003353647466295E-104
   89.4159000000000        -1.868229308599838E-103
   89.6553000000000        -4.058765785956297E-103
   89.8947000000000        -6.934332633092901E-103
   90.1341000000000        -1.021463923968795E-102
   90.3735000000000        -1.325192441236660E-102
   90.6129000000000        -1.491073876287447E-102
   90.8523000000000        -1.349283435882401E-102
   91.0917000000000        -6.768488913729214E-103
   91.3311000000000         7.804620335846702E-103
   91.5705000000000         3.258192757169028E-102
   91.8099000000000         6.886486402819312E-102
   92.0493000000000         1.156163821620068E-101
   92.2887000000000         1.677926848736846E-101
   92.5281000000000         2.144673513316751E-101
   92.7675000000000         2.371325662680944E-101
   93.0069000000000         2.088289490720262E-101
   93.2463000000000         9.504942485953646E-102
   93.4857000000000        -1.423808606556868E-101
   93.7251000000000        -5.371334665821026E-101
   93.9645000000000        -1.104779627748492E-100
   94.2039000000000        -1.823291639338920E-100
   94.4433000000000        -2.608500187962725E-100
   94.6827000000000        -3.287528265209387E-100
   94.9221000000000        -3.576255521635113E-100
   95.1615000000000        -3.070590963242297E-100
   95.4009000000000        -1.265225604777600E-100
   95.6403000000000         2.383383440500863E-100
   95.8797000000000         8.332308431906801E-100
   96.1191000000000         1.675190692415358E-099
   96.3585000000000         2.724673024153755E-099
   96.5979000000000         3.851402894538160E-099
   96.8373000000000         4.798695338348532E-099
   97.0767000000000         5.155098080477965E-099
   97.3161000000000         4.347106674103930E-099
   97.5555000000000         1.671564605778198E-099
   97.7949000000000        -3.610195143778703E-099
   98.0343000000000        -1.209444040418015E-098
   98.2737000000000        -2.395750470464918E-098
   98.5131000000000        -3.857808220829990E-098
   98.7525000000000        -5.408603343559025E-098
   98.9919000000000        -6.690511587782422E-098
   99.2313000000000        -7.141039458085927E-098
   99.4707000000000        -5.988201040638134E-098
   99.7101000000000        -2.299461555684013E-098
   99.9495000000000         4.888200411223012E-098
   100.188900000000         1.633066961342088E-097
   100.428300000000         3.221414772517175E-097
   100.667700000000         5.167087520001123E-097
   100.907100000000         7.221135791665827E-097
   101.146500000000         8.916224414094677E-097
   101.385900000000         9.526392478916282E-097
   101.625300000000         8.065395379592355E-097
   101.864700000000         3.352764546402841E-097
   102.104100000000        -5.819647040316591E-097
   102.343500000000        -2.039019280428699E-096
   102.582900000000        -4.058060287767628E-096
   102.822300000000        -6.530693507097423E-096
   103.061700000000        -9.149770688115081E-096
   103.301100000000        -1.134286065319249E-095
   103.540500000000        -1.222581105381611E-095
   103.779900000000        -1.060295425482062E-095
   104.019300000000        -5.047618053744783E-096
   104.258700000000         5.899847063258631E-096
   104.498100000000         2.338274479294280E-095
   104.737500000000         4.770810746691193E-095
   104.976900000000         7.766647055467050E-095
   105.216300000000         1.097495192309513E-094
   105.455700000000         1.373905999021194E-094
   105.695100000000         1.504352642710926E-094
   105.934500000000         1.351366057907957E-094
   106.173900000000         7.504501755766259E-095
   106.413300000000        -4.680328898895421E-095
   106.652700000000        -2.440363655760792E-094
   106.892100000000        -5.212327610929599E-094
   107.131500000000        -8.664616093160577E-094
   107.370900000000        -1.242704611334553E-093
   107.610300000000        -1.579492505360831E-093
   107.849700000000        -1.766946623427569E-093
   108.089100000000        -1.655322059955506E-093
   108.328500000000        -1.063914986230172E-093
   108.567900000000         1.964565507699174E-094
   108.807300000000         2.283625237252010E-093
   109.046700000000         5.264763221792516E-093
   109.286100000000         9.038689054679675E-093
   109.525500000000         1.324602431080905E-092
   109.764900000000         1.718047454764152E-092
   110.004300000000         1.972305058151811E-092
   110.243700000000         1.933004369170503E-092
   110.483100000000         1.411319515844661E-092
   110.722500000000         2.054068067513337E-093
   110.961900000000        -1.860933448784179E-092
   111.201300000000        -4.880110057974698E-092
   111.440700000000        -8.783920019338411E-092
   111.680100000000        -1.325373093137722E-091
   111.919500000000        -1.763002703893530E-091
   112.158900000000        -2.084179400367694E-091
   112.398300000000        -2.138480542879865E-091
   112.637700000000        -1.738526215682347E-091
   112.877100000000        -6.788971679405116E-092
   113.116500000000         1.228681667083385E-091
   113.355900000000         4.101526511813160E-091
   113.595300000000         7.913913631927427E-091
   113.834700000000         1.241145766303947E-090
   114.074100000000         1.702269878148817E-090
   114.313500000000         2.078601044632200E-090
   114.552900000000         2.231781726059334E-090
   114.792300000000         1.985506153714169E-090
   115.031700000000         1.140875619162759E-090
   115.271100000000        -4.936426562154165E-091
   115.510500000000        -3.055237523625654E-090
   115.749900000000        -6.562615244189635E-090
   115.989300000000        -1.083825162309077E-089
   116.228700000000        -1.542574594914666E-089
   116.468100000000        -1.951736836766222E-089
   116.707500000000        -2.191383441700534E-089
   116.946900000000        -2.104466797527992E-089
   117.186300000000        -1.508148386320206E-089
   117.425700000000        -2.175867034828381E-090
   117.665100000000         1.915436243704233E-089
   117.904500000000         4.948442027527026E-089
   118.143900000000         8.781082266479306E-089
   118.383300000000         1.308141056044849E-088
   118.622700000000         1.721742815086950E-088
   118.862100000000         2.021160390142763E-088
   119.101500000000         2.074162850691868E-088
   119.340900000000         1.721454836864611E-088
   119.580300000000         7.941842444071551E-089
   119.819700000000        -8.562141623833647E-089
   120.059100000000        -3.314882059414058E-088
   120.298500000000        -6.548379048139138E-088
   120.537900000000        -1.034202216553884E-087
   120.777300000000        -1.423841893652533E-087
   121.016700000000        -1.749065323152736E-087
   121.256100000000        -1.904828166573147E-087
   121.495500000000        -1.759792207470534E-087
   121.734900000000        -1.168140779422695E-087
   121.974300000000         8.837748778186678E-090
   122.213700000000         1.870247571134250E-087
   122.453100000000         4.432595359358304E-087
   122.692500000000         7.579128497965521E-087
   122.931900000000         1.100746783895015E-086
   123.171300000000         1.418520319274412E-086
   123.410700000000         1.632692974987665E-086
   123.650100000000         1.640941065671946E-086
   123.889500000000         1.324317414145102E-086
   124.128900000000         5.617691847690614E-087
   124.368300000000        -7.467961612865368E-087
   124.607700000000        -2.648759158548267E-086
   124.847100000000        -5.099872047674222E-086
   125.086500000000        -7.921964876622939E-086
   125.325900000000        -1.076381381893077E-085
   125.565300000000        -1.307466977867377E-085
   125.804700000000        -1.410263441331243E-085
   126.044100000000        -1.293181338369216E-085
   126.283500000000        -8.572118194310843E-086
   126.522900000000        -1.127695595156884E-087
   126.762300000000         1.305595325854026E-085
   127.001700000000         3.095907485863942E-085
   127.241100000000         5.271327062110022E-085
   127.480500000000         7.620463417896853E-085
   127.719900000000         9.783126007636817E-085
   127.959300000000         1.123953963691090E-084
   128.198700000000         1.132462240384024E-084
   128.438100000000         9.277973284641111E-085
   128.677500000000         4.338989175496438E-085
   128.916900000000        -4.107159504228226E-085
   129.156300000000        -1.633370484658739E-084
   129.395700000000        -3.203771233665145E-084
   129.635100000000        -5.009113756172890E-084
   129.874500000000        -6.831744233246381E-084
   130.113900000000        -8.334978551369338E-084
   130.353300000000        -9.064060908304605E-084
   130.592700000000        -8.470015974623722E-084
   130.832100000000        -5.963850146389895E-084
   131.071500000000        -1.006691548595646E-084
   131.310900000000         6.762430379453877E-084
   131.550300000000         1.736568350983640E-083
   131.789700000000         3.030550018816829E-083
   132.029100000000         4.438722232491534E-083
   132.268500000000         5.758041765275846E-083
   132.507900000000         6.696474571867981E-083
   132.747300000000         6.881396099688311E-083
   132.986700000000         5.887326437879674E-083
   133.226100000000         3.287735934487387E-083
   133.465500000000        -1.266410352720774E-083
   133.704900000000        -7.942313293251974E-083
   133.944300000000        -1.660141465753367E-082
   134.183700000000        -2.666886885135507E-082
   134.423100000000        -3.701717670544329E-082
   134.662500000000        -4.589260424815195E-082
   134.901900000000        -5.091952570272437E-082
   135.141300000000        -4.922113058506357E-082
   135.380700000000        -3.769280626748231E-082
   135.620100000000        -1.345463808230529E-082
   135.859500000000         2.551017270797175E-082
   136.098900000000         7.955482575777016E-082
   136.338300000000         1.464717170910412E-081
   136.577700000000         2.206139378889259E-081
   136.817100000000         2.922046424127115E-081
   137.056500000000         3.470528307313562E-081
   137.295900000000         3.669279548344104E-081
   137.535300000000         3.308503237953991E-081
   137.774700000000         2.175143937288924E-081
   138.014100000000         8.963234383579960E-083
   138.253500000000        -3.045359841507133E-081
   138.492900000000        -7.187070478902015E-081
   138.732300000000        -1.209167881983057E-080