  -1.79550000000000         0.000000000000000E+000
  -1.55610000000000         0.000000000000000E+000
  -1.31670000000000         0.000000000000000E+000
  -1.07730000000000         0.000000000000000E+000
 -0.837900000000000         0.000000000000000E+000
 -0.598500000000000         0.000000000000000E+000
 -0.359100000000000         0.000000000000000E+000
 -0.119700000000000         0.000000000000000E+000
  0.119700000000000         0.000000000000000E+000
  0.359100000000000         0.000000000000000E+000
  0.598500000000000         0.000000000000000E+000
  0.837900000000000         0.000000000000000E+000
   1.07730000000000         0.000000000000000E+000
   1.31670000000000         0.000000000000000E+000
   1.55610000000000         0.000000000000000E+000
   1.79550000000000         0.000000000000000E+000
   2.03490000000000         0.000000000000000E+000
   2.27430000000000         0.000000000000000E+000
   2.51370000000000         0.000000000000000E+000
   2.75310000000000         0.000000000000000E+000
   2.99250000000000         0.000000000000000E+000
   3.23190000000000         0.000000000000000E+000
   3.47130000000000         0.000000000000000E+000
   3.71070000000000         0.000000000000000E+000
   3.95010000000000         0.000000000000000E+000
   4.18950000000000         0.000000000000000E+000
   4.42890000000000         0.000000000000000E+000
   4.66830000000000         0.000000000000000E+000
   4.90770000000000         0.000000000000000E+000
   5.14710000000000         0.000000000000000E+000
   5.38650000000000         0.000000000000000E+000
   5.62590000000000         0.000000000000000E+000
   5.86530000000000         0.000000000000000E+000
   6.10470000000000         0.000000000000000E+000
   6.34410000000000         0.000000000000000E+000
   6.58350000000000         0.000000000000000E+000
   6.82290000000000         0.000000000000000E+000
   7.06230000000000         0.000000000000000E+000
   7.30170000000000         0.000000000000000E+000
   7.54110000000000         0.000000000000000E+000
   7.78050000000000         0.000000000000000E+000
   8.01990000000000         0.000000000000000E+000
   8.25930000000000         0.000000000000000E+000
   8.49870000000000         0.000000000000000E+000
   8.73810000000000         0.000000000000000E+000
   8.97750000000000         0.000000000000000E+000
   9.21690000000000         0.000000000000000E+000
   9.45630000000000        -1.589112538748324E-203
   9.69570000000000         1.433230095379995E-174
   9.93510000000000        -1.285704209569968E-167
   10.1745000000000        -2.136127882995788E-166
   10.4139000000000         4.068694396190108E-164
   10.6533000000000         2.241938255129049E-162
   10.8927000000000         4.560226654015080E-161
   11.1321000000000        -9.241701156492224E-161
   11.3715000000000        -3.283281002620647E-158
   11.6109000000000        -1.131108742249277E-156
   11.8503000000000        -2.508606156934616E-155
   12.0897000000000        -4.289265098557516E-154
   12.3291000000000        -6.057403840410253E-153
   12.5685000000000        -7.331714728395946E-152
   12.8079000000000        -7.785993074558309E-151
   13.0473000000000        -7.374002144710649E-150
   13.2867000000000        -6.304161322001907E-149
   13.5261000000000        -4.910764867990151E-148
   13.7655000000000        -3.511716335470757E-147
   14.0049000000000        -2.319669544564137E-146
   14.2443000000000        -1.422928556469541E-145
   14.4837000000000        -8.145169353313366E-145
   14.7231000000000        -4.371870499652752E-144
   14.9625000000000        -2.212002370355619E-143
   15.2019000000000        -1.061869770283983E-142
   15.4413000000000        -4.877948224232724E-142
   15.6807000000000        -2.169070050187060E-141
   15.9201000000000        -9.474903263067922E-141
   16.1595000000000        -4.133812396564717E-140
   16.3989000000000        -1.827958233060299E-139
   16.6383000000000        -8.254871493926245E-139
   16.8777000000000        -3.798005513966973E-138
   17.1171000000000        -1.762064157432133E-137
   17.3565000000000        -8.135162549138640E-137
   17.5959000000000        -3.693730842995684E-136
   17.8353000000000        -1.635425797773807E-135
   18.0747000000000        -7.024470328598116E-135
   18.3141000000000        -2.919269538490437E-134
   18.5535000000000        -1.172804190245297E-133
   18.7929000000000        -4.555669831471616E-133
   19.0323000000000        -1.712455975852390E-132
   19.2717000000000        -6.236622017913192E-132
   19.5111000000000        -2.203662438345077E-131
   19.7505000000000        -7.565559699420824E-131
   19.9899000000000        -2.527389580688006E-130
   20.2293000000000        -8.227176317186540E-130
   20.4687000000000        -2.613059929217827E-129
   20.7081000000000        -8.107480381475630E-129
   20.9475000000000        -2.459866501864410E-128
   21.1869000000000        -7.304664223576949E-128
   21.4263000000000        -2.124425245447127E-127
   21.6657000000000        -6.053908895152835E-127
   21.9051000000000        -1.690812780007685E-126
   22.1445000000000        -4.628576489954342E-126
   22.3839000000000        -1.241770444770055E-125
   22.6233000000000        -3.264073322517845E-125
   22.8627000000000        -8.402949264813916E-125
   23.1021000000000        -2.117606895880469E-124
   23.3415000000000        -5.221132675895626E-124
   23.5809000000000        -1.258771113782133E-123
   23.8203000000000        -2.965936798279797E-123
   24.0597000000000        -6.826862901807793E-123
   24.2991000000000        -1.534669058192191E-122
   24.5385000000000        -3.369526720620529E-122
   24.7779000000000        -7.229912707515798E-122
   25.0173000000000        -1.518131204890443E-121
   25.2567000000000        -3.127787413841001E-121
   25.4961000000000        -6.350835951557960E-121
   25.7355000000000        -1.279442064293538E-120
   25.9749000000000        -2.581413040048596E-120
   26.2143000000000        -5.274960638373097E-120
   26.4537000000000        -1.103718956367003E-119
   26.6931000000000        -2.381791888107112E-119
   26.9325000000000        -5.303698092423603E-119
   27.1719000000000        -1.210818301548369E-118
   27.4113000000000        -2.803511583472821E-118
   27.6507000000000        -6.506848030407834E-118
   27.8901000000000        -1.498595181930161E-117
   28.1295000000000        -3.398576325108235E-117
   28.3689000000000        -7.548071316565259E-117
   28.6083000000000        -1.635466585943805E-116
   28.8477000000000        -3.447344493506138E-116
   29.0871000000000        -7.052011513278820E-116
   29.3265000000000        -1.396446184753943E-115
   29.5659000000000        -2.668253958950280E-115
   29.8053000000000        -4.896987510683652E-115
   30.0447000000000        -8.570762955569061E-115
   30.2841000000000        -1.413342142057269E-114
   30.5235000000000        -2.146761610040350E-114
   30.7629000000000        -2.856934013292174E-114
   31.0023000000000        -2.857581898480712E-114
   31.2417000000000        -3.714363159687086E-115
   31.4811000000000         8.600430607798736E-114
   31.7205000000000         3.220698666034317E-113
   31.9599000000000         8.567357016652459E-113
   32.1993000000000         1.949701758225175E-112
   32.4387000000000         3.995830038000902E-112
   32.6781000000000         7.494263629958548E-112
   32.9175000000000         1.283981783867783E-111
   33.1569000000000         1.968791199246997E-111
   33.3963000000000         2.542957452527629E-111
   33.6357000000000         2.200811868239949E-111
   33.8751000000000        -1.001763614599493E-111
   34.1145000000000        -1.113528654859369E-110
   34.3539000000000        -3.581938092108050E-110
   34.5933000000000        -8.781800881198746E-110
   34.8327000000000        -1.857668822013878E-109
   35.0721000000000        -3.513355207839532E-109
   35.3115000000000        -5.970459760348321E-109
   35.5509000000000        -8.939442638333360E-109
   35.7903000000000        -1.101351295624471E-108
   36.0297000000000        -8.336869483234483E-109
   36.2691000000000         7.625537328577311E-109
   36.5085000000000         5.331981003028970E-108
   36.7479000000000         1.568268671403671E-107
   36.9873000000000         3.600605381731451E-107
   37.2267000000000         7.143555744610112E-107
   37.4661000000000         1.258946217269881E-106
   37.7055000000000         1.963527111978249E-106
   37.9449000000000         2.605507719397904E-106
   38.1843000000000         2.543374403150815E-106
   38.4237000000000         3.496797752118331E-107
   38.6631000000000        -6.698424934490925E-106
   38.9025000000000        -2.316863141538809E-105
   39.1419000000000        -5.572643839728384E-105
   39.3813000000000        -1.123140155668123E-104
   39.6207000000000        -1.987541970068897E-104
   39.8601000000000        -3.102619221589169E-104
   40.0995000000000        -4.142123460280013E-104
   40.3389000000000        -4.198576227231202E-104
   40.5783000000000        -1.318549568412522E-104
   40.8177000000000         8.099790370913188E-104
   41.0571000000000         2.988174831711879E-103
   41.2965000000000         7.217416668538093E-103
   41.5359000000000         1.441247174450946E-102
   41.7753000000000         2.514628812863759E-102
   42.0147000000000         3.863794975596520E-102
   42.2541000000000         5.082798423471741E-102
   42.4935000000000         5.119833773134355E-102
   42.7329000000000         1.821790531484931E-102
   42.9723000000000        -8.601973919723911E-102
   43.2117000000000        -3.199072295625235E-101
   43.4511000000000        -7.604161494174923E-101
   43.6905000000000        -1.486163554902149E-100
   43.9299000000000        -2.530788091168788E-100
   44.1693000000000        -3.786098333309738E-100
   44.4087000000000        -4.831649223587940E-100
   44.6481000000000        -4.674366181843626E-100
   44.8875000000000        -1.410056685232695E-100
   45.1269000000000         8.115010385508989E-100
   45.3663000000000         2.843931195397485E-099
   45.6057000000000         6.501384243959267E-099
   45.8451000000000         1.224417772119558E-098
   46.0845000000000         2.004442945969667E-098
   46.3239000000000         2.863690618244966E-098
   46.5633000000000         3.432486146027871E-098
   46.8027000000000         2.934771807500224E-098
   47.0421000000000         8.110605396498216E-101
   47.2815000000000        -7.415395317592205E-098
   47.5209000000000        -2.200748347324658E-097
   47.7603000000000        -4.644820271174876E-097
   47.9997000000000        -8.193697597304561E-097
   48.2391000000000        -1.253245875587880E-096
   48.4785000000000        -1.644424353552249E-096
   48.7179000000000        -1.715974307488467E-096
   48.9573000000000        -9.618276566377962E-097
   49.1967000000000         1.407701574432923E-096
   49.4361000000000         6.442659657287752E-096
   49.6755000000000         1.525325313873347E-095
   49.9149000000000         2.848911503558042E-095
   50.1543000000000         4.532618632962530E-095
   50.3937000000000         6.181578676096125E-095
   50.6331000000000         6.859438839847380E-095
   50.8725000000000         4.830063788193991E-095
   51.1119000000000        -2.630566081613140E-095
   51.3513000000000        -1.915133677760415E-094
   51.5907000000000        -4.857694380317493E-094
   51.8301000000000        -9.319871250881098E-094
   52.0695000000000        -1.503547705765222E-093
   52.3089000000000        -2.069627312811102E-093
   52.5483000000000        -2.320517814049779E-093
   52.7877000000000        -1.685193831952741E-093
   53.0271000000000         7.257287071919503E-094
   53.2665000000000         6.086704885046911E-093
   53.5059000000000         1.562800583670199E-092
   53.7453000000000         3.006454758406718E-092
   53.9847000000000         4.851840342814655E-092
   54.2241000000000         6.681263594398186E-092
   54.4635000000000         7.517511340633428E-092
   54.7029000000000         5.574551524312613E-092
   54.9423000000000        -1.909965084974679E-092
   55.1817000000000        -1.856662040099448E-091
   55.4211000000000        -4.820161416132462E-091
   55.6605000000000        -9.310068970196625E-091
   55.8999000000000        -1.508672830609064E-090
   56.1393000000000        -2.094625810775634E-090
   56.3787000000000        -2.405756903915516E-090
   56.6181000000000        -1.924372214713366E-090
   56.8575000000000         1.511754048071407E-091
   57.0969000000000         4.880585162373419E-090
   57.3363000000000         1.339731945377745E-089
   57.5757000000000         2.645432756927212E-089
   57.8151000000000         4.357739850233273E-089
   58.0545000000000         6.173755108667025E-089
   58.2939000000000         7.357096440530374E-089
   58.5333000000000         6.542220451722192E-089
   58.7727000000000         1.590699318369418E-089
   59.0121000000000        -1.037004946847397E-088
   59.2515000000000        -3.252070129476091E-088
   59.4909000000000        -6.726163687143128E-088
   59.7303000000000        -1.141582134979934E-087
   59.9697000000000        -1.666893665529143E-087
   60.2091000000000        -2.078333419066369E-087
   60.4485000000000        -2.050840874917155E-087
   60.6879000000000        -1.064434431241780E-087
   60.9273000000000         1.596871286283036E-087
   61.1667000000000         6.760968717633320E-087
   61.4061000000000         1.513583284391989E-086
   61.6455000000000         2.685936856609752E-086
   61.8849000000000         4.077346910375210E-086
   62.1243000000000         5.341744334024099E-086
   62.3637000000000         5.785003342751783E-086
   62.6031000000000         4.260522168448817E-086
   62.8425000000000        -8.626294732000704E-087
   63.0819000000000        -1.156399884998178E-085
   63.3213000000000        -2.973751324514707E-085
   63.5607000000000        -5.630627687006973E-085
   63.8001000000000        -8.975150642895030E-085
   64.0395000000000        -1.240123488447097E-084
   64.2789000000000        -1.459217086755412E-084
   64.5183000000000        -1.327095051536376E-084
   64.7577000000000        -5.065069219496218E-085
   64.9971000000000         1.433657728590999E-084
   65.2365000000000         4.948339650693633E-084
   65.4759000000000         1.036155659386413E-083
   65.7153000000000         1.759766127743013E-083
   65.9547000000000         2.578301133319842E-083
   66.1941000000000         3.273633751438434E-083
   66.4335000000000         3.442795673558244E-083
   66.6729000000000         2.458278166599284E-083
   66.9123000000000        -5.272657851257685E-084
   67.1517000000000        -6.487969354942411E-083
   67.3911000000000        -1.628788512240351E-082
   67.6305000000000        -3.024243775380270E-082
   67.8699000000000        -4.743699969807539E-082
   68.1093000000000        -6.480986344151348E-082
   68.3487000000000        -7.610070139145719E-082
   68.5881000000000        -7.091500177463543E-082
   68.8275000000000        -3.435997630048944E-082
   69.0669000000000         5.205189442783149E-082
   69.3063000000000         2.073109963959725E-081
   69.5457000000000         4.445968171101614E-081
   69.7851000000000         7.608539009305505E-081
   70.0245000000000         1.121966304514482E-080
   70.2639000000000         1.444506065396516E-080
   70.5033000000000         1.577155258277709E-080
   70.7427000000000         1.287947978235000E-080
   70.9821000000000         2.672561605005360E-081
   71.2215000000000        -1.839667068661996E-080
   71.4609000000000        -5.353993456467568E-080
   71.7003000000000        -1.042217219075332E-079
   71.9397000000000        -1.680208408535248E-079
   72.1791000000000        -2.358127396161804E-079
   72.4185000000000        -2.885909318158097E-079
   72.6579000000000        -2.946549001982277E-079
   72.8973000000000        -2.084279891161624E-079
   73.1367000000000         2.723122881460680E-080
   73.3761000000000         4.728364369813782E-079
   73.6155000000000         1.175600856184996E-078
   73.8549000000000         2.142128705729565E-078
   74.0943000000000         3.299840772262147E-078
   74.3337000000000         4.449560524555932E-078
   74.5731000000000         5.216620561770821E-078
   74.8125000000000         5.014705431600433E-078
   75.0519000000000         3.044904928125346E-078
   75.2913000000000        -1.639288734462403E-078
   75.5307000000000        -9.964623277082495E-078
   75.7701000000000        -2.253277557527166E-077
   76.0095000000000        -3.915401497771605E-077
   76.2489000000000        -5.822686902072040E-077
   76.4883000000000        -7.602385188033992E-077
   76.7277000000000        -8.602202697469782E-077
   76.9671000000000        -7.851876835947665E-077
   77.2065000000000        -4.088558878114418E-077
   77.4459000000000         4.108860392837397E-077
   77.6853000000000         1.802697392257120E-076
   77.9247000000000         3.832393506631148E-076
   78.1641000000000         6.431662973302964E-076
   78.4035000000000         9.308134371588271E-076
   78.6429000000000         1.184809940059132E-075
   78.8823000000000         1.303437055033245E-075
   79.1217000000000         1.141521926172783E-075
   79.3611000000000         5.174004312041848E-076
   79.6005000000000        -7.640822585336155E-076
   79.8399000000000        -2.866482333366264E-075
   80.0793000000000        -5.850108054191300E-075
   80.3187000000000        -9.573408148394669E-075
   80.5581000000000        -1.357430322394302E-074
   80.7975000000000        -1.694931645863959E-074
   81.0369000000000        -1.826264045182062E-074
   81.2763000000000        -1.553340906414543E-074
   81.5157000000000        -6.364330875613266E-075
   81.7551000000000         1.171656350839782E-074
   81.9945000000000         4.063404692350217E-074
   82.2339000000000         8.082331364220141E-074
   82.4733000000000         1.299840773747505E-073
   82.7127000000000         1.816431546481961E-073
   82.9521000000000         2.237719333628966E-073
   83.1915000000000         2.378712415007290E-073
   83.4309000000000         1.991122814483202E-073
   83.6703000000000         7.826859138941330E-074
   83.9097000000000        -1.537699120636442E-073
   84.1491000000000        -5.182230687055849E-073
   84.3885000000000        -1.017082099266111E-072
   84.6279000000000        -1.618620267783959E-072
   84.8673000000000        -2.241284263152614E-072
   85.1067000000000        -2.739004403650851E-072
   85.3461000000000        -2.892735817750009E-072
   85.5855000000000        -2.414811104500739E-072
   85.8249000000000        -9.739878443892657E-073
   86.0643000000000         1.750743172013954E-072
   86.3037000000000         5.981275423593399E-072
   86.5431000000000         1.171467707654720E-071
   86.7825000000000         1.856702159425458E-071
   87.0219000000000         2.560516027718990E-071
   87.2613000000000         3.120039408873138E-071
   87.5007000000000         3.295553925919549E-071
   87.7401000000000         2.777334223465895E-071
   87.9795000000000         1.214477322910885E-071
   88.2189000000000        -1.726610420442920E-071
   88.4583000000000        -6.268595221643641E-071
   88.6977000000000        -1.239398330690691E-070
   88.9371000000000        -1.968817794691352E-070
   89.1765000000000        -2.717467791444832E-070
   89.4159000000000        -3.317717879340289E-070
   89.6553000000000        -3.525950861733772E-070
   89.8947000000000        -3.030866628015180E-070
   90.1341000000000        -1.483411379389413E-070
   90.3735000000000         1.444810020393900E-070
   90.6129000000000         5.970165128122671E-070
   90.8523000000000         1.207315686322948E-069
   91.0917000000000         1.935059243585165E-069
   91.3311000000000         2.686325142590403E-069
   91.5705000000000         3.301189929949959E-069
   91.8099000000000         3.548850028553775E-069
   92.0493000000000         3.136127871071419E-069
   92.2887000000000         1.735775097221102E-069
   92.5281000000000        -9.596150215466222E-070
   92.7675000000000        -5.154584186256830E-069
   93.0069000000000        -1.083970341995035E-068
   93.2463000000000        -1.766047142462243E-068
   93.4857000000000        -2.478380070283380E-068
   93.7251000000000        -3.079091653085855E-068
   93.9645000000000        -3.363697131034754E-068
   94.2039000000000        -3.072693381214496E-068
   94.4433000000000        -1.916094131775987E-068
   94.6827000000000         3.803846263331624E-069
   94.9221000000000         4.004816784306566E-068
   95.1615000000000         8.965390911472945E-068
   95.4009000000000         1.498054524900029E-067
   95.6403000000000         2.136758009533998E-067
   95.8797000000000         2.695335660697528E-067
   96.1191000000000         3.003963999256874E-067
   96.3585000000000         2.846264094072758E-067
   96.5979000000000         1.978870045784761E-067
   96.8373000000000         1.682696254204997E-068
   97.0767000000000        -2.753062854987551E-067
   97.3161000000000        -6.812229994605199E-067
   97.5555000000000        -1.180866430894165E-066
   97.7949000000000        -1.722543753749254E-066
   98.0343000000000        -2.215724314070060E-066
   98.2737000000000        -2.527984212118207E-066
   98.5131000000000        -2.489089363715390E-066
   98.7525000000000        -1.905373624489538E-066
   98.9919000000000        -5.871568670225368E-067
   99.2313000000000         1.609270066133055E-066
   99.4707000000000         4.725776599297383E-066
   99.7101000000000         8.636603205005150E-066
   99.9495000000000         1.298086219213529E-065
   100.188900000000         1.710639176770424E-065
   100.428300000000         2.004280392979828E-065
   100.667700000000         2.052523830091937E-065
   100.907100000000         1.709154879535257E-065
   101.146500000000         8.272845588824997E-066
   101.385900000000        -7.111072337100177E-066
   101.625300000000        -2.955507313908593E-065
   101.864700000000        -5.839706074839240E-065
   102.104100000000        -9.132673066534855E-065
   102.343500000000        -1.239633971461155E-064
   102.582900000000        -1.496244860095229E-064
   102.822300000000        -1.594319569066818E-064
   103.061700000000        -1.429134334155367E-064
   103.301100000000        -8.923792004899260E-065
   103.540500000000         1.082756030744089E-065
   103.779900000000         1.622524157421716E-064
   104.019300000000         3.625265517499629E-064
   104.258700000000         5.982428411728320E-064
   104.498100000000         8.420454289771258E-064
   104.737500000000         1.050729669705132E-063
   104.976900000000         1.165454586750944E-063
   105.216300000000         1.115104544855208E-063
   105.455700000000         8.237488213478629E-064
   105.695100000000         2.228313153666551E-064
   105.934500000000        -7.318744742798717E-064
   106.173900000000        -2.039411430534403E-063
   106.413300000000        -3.630933985337992E-063
   106.652700000000        -5.348574091443121E-063
   106.892100000000        -6.930694826868254E-063
   107.131500000000        -8.009509253539061E-063
   107.370900000000        -8.127632888245793E-063
   107.610300000000        -6.779769667439008E-063
   107.849700000000        -3.484009357460103E-063
   108.089100000000         2.116187948337461E-063
   108.328500000000         1.012349300797171E-062
   108.567900000000         2.024285833165821E-062
   108.807300000000         3.164173723235633E-062
   109.046700000000         4.284236329946513E-062
   109.286100000000         5.168152736056837E-062
   109.525500000000         5.537768559632908E-062
   109.764900000000         5.074432907844261E-062
   110.004300000000         3.458002074214156E-062
   110.243700000000         4.247368629777483E-063
   110.483100000000        -4.157568932287287E-062
   110.722500000000        -1.020282574447935E-061
   110.961900000000        -1.731859094883443E-061
   111.201300000000        -2.473211542197017E-061
   111.440700000000        -3.125049007176784E-061
   111.680100000000        -3.527797869962172E-061
   111.919500000000        -3.491395689809947E-061
   112.158900000000        -2.815113644233563E-061
   112.398300000000        -1.318476462614187E-061
   112.637700000000         1.117151227194252E-061
   112.877100000000         4.498846501009997E-061
   113.116500000000         8.669413719589281E-061
   113.355900000000         1.325966945664590E-060
   113.595300000000         1.765644544856660E-060
   113.834700000000         2.099907149096013E-060
   114.074100000000         2.221779959956187E-060
   114.313500000000         2.012626784196641E-060
   114.552900000000         1.357600704052533E-060
   114.792300000000         1.673683704232006E-061
   115.031700000000        -1.594888037836397E-060
   115.271100000000        -3.883546639216577E-060
   115.510500000000        -6.541599728242287E-060
   115.749900000000        -9.278127907301086E-060
   115.989300000000        -1.165890693189275E-059
   116.228700000000        -1.311752121040707E-059
   116.468100000000        -1.299403444829538E-059
   116.707500000000        -1.060659274907354E-059
   116.946900000000        -5.358018303642632E-060
   117.186300000000         3.125638978932131E-060
   117.425700000000         1.483437254188281E-059
   117.665100000000         2.920905040046569E-059
   117.904500000000         4.499786686295981E-059
   118.143900000000         6.016790620057292E-059
   118.383300000000         7.191021694252229E-059
   118.622700000000         7.677729400477356E-059
   118.862100000000         7.098603205912517E-059
   119.101500000000         5.090539305476041E-059
   119.340900000000         1.372522703512043E-059
   119.580300000000        -4.172900430683918E-059
   119.819700000000        -1.141098063443172E-058
   120.059100000000        -1.987064624319062E-058
   120.298500000000        -2.868069568782188E-058
   120.537900000000        -3.654525593416876E-058
   120.777300000000        -4.177879963206167E-058
   121.016700000000        -4.241955811096390E-058
   121.256100000000        -3.643502641526763E-058
   121.495500000000        -2.202378410574395E-058
   121.734900000000         1.996143889576985E-059
   121.974300000000         3.574022243239726E-058
   122.213700000000         7.780028095986163E-058
   122.453100000000         1.248472439590193E-057
   122.692500000000         1.713821083842899E-057
   122.931900000000         2.097351387121560E-057
   123.171300000000         2.304133336090799E-057
   123.410700000000         2.228802484357003E-057
   123.650100000000         1.768164714514337E-057
   123.889500000000         8.385139056985839E-058
   124.128900000000        -6.032200993444683E-058
   124.368300000000        -2.536334418271543E-057
   124.607700000000        -4.854109981978309E-057
   124.847100000000        -7.346337470424620E-057
   125.086500000000        -9.691253414579622E-057
   125.325900000000        -1.146185864168159E-056
   125.565300000000        -1.215126729981631E-056
   125.804700000000        -1.122055424744147E-056
   126.044100000000        -8.170387671784390E-057
   126.283500000000        -2.634510355798212E-057
   126.522900000000         5.511027926882490E-057
   126.762300000000         1.603379157154514E-056
   127.001700000000         2.824188956454208E-056
   127.241100000000         4.091215101184773E-056
   127.480500000000         5.227269486990161E-056
   127.719900000000         6.006348293305439E-056
   127.959300000000         6.169540920803442E-056
   128.198700000000         5.452112430068733E-056
   128.438100000000         3.621862686101697E-056
   128.677500000000         5.271736927310928E-057
   128.916900000000        -3.848928877305328E-056
   129.156300000000        -9.334681305065140E-056
   129.395700000000        -1.552369546340506E-055
   129.635100000000        -2.174737045218239E-055
   129.874500000000        -2.707669651105991E-055
   130.113900000000        -3.036423825330567E-055
   130.353300000000        -3.033502547210686E-055
   130.592700000000        -2.573093261723277E-055
   130.832100000000        -1.550674778711909E-055
   131.071500000000         9.323416755408628E-057
   131.310900000000         2.347218024360733E-055
   131.550300000000         5.104104003864632E-055
   131.789700000000         8.141202680225212E-055
   132.029100000000         1.111050547133341E-054
   132.268500000000         1.354399394821004E-054
   132.507900000000         1.487885228987313E-054
   132.747300000000         1.450616003628952E-054
   132.986700000000         1.184444866996503E-054
   133.226100000000         6.436303146854630E-055
   133.465500000000        -1.937910974328431E-055
   133.704900000000        -1.313982773978489E-054
   133.944300000000        -2.656184831933210E-054
   134.183700000000        -4.104468310903907E-054
   134.423100000000        -5.484638697518210E-054
   134.662500000000        -6.568622783515354E-054
   134.901900000000        -7.088411364323520E-054
   135.141300000000        -6.760967058602535E-054
   135.380700000000        -5.324395104349358E-054
   135.620100000000        -2.584118670342555E-054
   135.859500000000         1.534130513630064E-054
   136.098900000000         6.929849303808791E-054
   136.338300000000         1.327930971059294E-053
   136.577700000000         2.000239811858520E-053
   136.817100000000         2.625510831474171E-053
   137.056500000000         3.095798604540574E-053
   137.295900000000         3.286922017971663E-053
   137.535300000000         3.070762172087802E-053
   137.774700000000         2.332527749739076E-053
   138.014100000000         9.922303475861550E-054
   138.253500000000        -9.712738949567963E-054
   138.492900000000        -3.496278803044952E-053
   138.732300000000        -6.417777193265674E-053