  -1.79550000000000         0.000000000000000E+000
  -1.55610000000000         0.000000000000000E+000
  -1.31670000000000         0.000000000000000E+000
  -1.07730000000000         0.000000000000000E+000
 -0.837900000000000         0.000000000000000E+000
 -0.598500000000000         0.000000000000000E+000
 -0.359100000000000         0.000000000000000E+000
 -0.119700000000000         0.000000000000000E+000
  0.119700000000000         0.000000000000000E+000
  0.359100000000000         0.000000000000000E+000
  0.598500000000000         0.000000000000000E+000
  0.837900000000000         0.000000000000000E+000
   1.07730000000000         0.000000000000000E+000
   1.31670000000000         0.000000000000000E+000
   1.55610000000000         0.000000000000000E+000
   1.79550000000000         0.000000000000000E+000
   2.03490000000000         0.000000000000000E+000
   2.27430000000000         0.000000000000000E+000
   2.51370000000000         0.000000000000000E+000
   2.75310000000000         0.000000000000000E+000
   2.99250000000000         0.000000000000000E+000
   3.23190000000000         0.000000000000000E+000
   3.47130000000000         0.000000000000000E+000
   3.71070000000000         0.000000000000000E+000
   3.95010000000000         0.000000000000000E+000
   4.18950000000000         0.000000000000000E+000
   4.42890000000000         0.000000000000000E+000
   4.66830000000000         0.000000000000000E+000
   4.90770000000000         0.000000000000000E+000
   5.14710000000000         0.000000000000000E+000
   5.38650000000000         0.000000000000000E+000
   5.62590000000000         0.000000000000000E+000
   5.86530000000000         0.000000000000000E+000
   6.10470000000000         0.000000000000000E+000
   6.34410000000000         0.000000000000000E+000
   6.58350000000000         0.000000000000000E+000
   6.82290000000000         0.000000000000000E+000
   7.06230000000000         0.000000000000000E+000
   7.30170000000000         0.000000000000000E+000
   7.54110000000000         0.000000000000000E+000
   7.78050000000000         0.000000000000000E+000
   8.01990000000000         0.000000000000000E+000
   8.25930000000000         0.000000000000000E+000
   8.49870000000000         0.000000000000000E+000
   8.73810000000000         0.000000000000000E+000
   8.97750000000000         0.000000000000000E+000
   9.21690000000000         0.000000000000000E+000
   9.45630000000000        -6.221492405069205E-202
   9.69570000000000         2.549947236046083E-173
   9.93510000000000         1.564647496500136E-166
   10.1745000000000        -2.769379752609729E-165
   10.4139000000000        -9.672473731729449E-163
   10.6533000000000        -3.932061159242598E-161
   10.8927000000000        -3.787071942478820E-160
   11.1321000000000         2.328329976002585E-158
   11.3715000000000         1.243866518175232E-156
   11.6109000000000         3.506647725156610E-155
   11.8503000000000         7.186079818394829E-154
   12.0897000000000         1.180588010688725E-152
   12.3291000000000         1.632177416775040E-151
   12.5685000000000         1.955824970771242E-150
   12.8079000000000         2.072745779338009E-149
   13.0473000000000         1.971654980255787E-148
   13.2867000000000         1.702586243938117E-147
   13.5261000000000         1.346754698247695E-146
   13.7655000000000         9.829843491250984E-146
   14.0049000000000         6.660610183933645E-145
   14.2443000000000         4.211108343068858E-144
   14.4837000000000         2.494922510326510E-143
   14.7231000000000         1.390180848248582E-142
   14.9625000000000         7.307327487946003E-142
   15.2019000000000         3.632395658246550E-141
   15.4413000000000         1.710766276522327E-140
   15.6807000000000         7.642968079652583E-140
   15.9201000000000         3.239788526900874E-139
   16.1595000000000         1.301602893553825E-138
   16.3989000000000         4.940086488907772E-138
   16.6383000000000         1.758821366478600E-137
   16.8777000000000         5.789104169776121E-137
   17.1171000000000         1.705843171587537E-136
   17.3565000000000         4.127223180425484E-136
   17.5959000000000         5.476015283629233E-136
   17.8353000000000        -2.031095949355150E-135
   18.0747000000000        -2.325542707673289E-134
   18.3141000000000        -1.435118029486350E-133
   18.5535000000000        -7.280697250527235E-133
   18.7929000000000        -3.322897791918847E-132
   19.0323000000000        -1.412366033177366E-131
   19.2717000000000        -5.685819906607038E-131
   19.5111000000000        -2.188525113317462E-130
   19.7505000000000        -8.100900924807052E-130
   19.9899000000000        -2.894610489833731E-129
   20.2293000000000        -1.001099102764546E-128
   20.4687000000000        -3.357756786591803E-128
   20.7081000000000        -1.093893076228652E-127
   20.9475000000000        -3.465799907399246E-127
   21.1869000000000        -1.069075022347726E-126
   21.4263000000000        -3.213754903624439E-126
   21.6657000000000        -9.423436803575154E-126
   21.9051000000000        -2.697553417384009E-125
   22.1445000000000        -7.544924071652273E-125
   22.3839000000000        -2.063556821671347E-124
   22.6233000000000        -5.523354440916667E-124
   22.8627000000000        -1.447968208232894E-123
   23.1021000000000        -3.720705260815761E-123
   23.3415000000000        -9.378544516699559E-123
   23.5809000000000        -2.320664619949281E-122
   23.8203000000000        -5.641073864521276E-122
   24.0597000000000        -1.347920502728514E-121
   24.2991000000000        -3.167858270729161E-121
   24.5385000000000        -7.325989230900529E-121
   24.7779000000000        -1.667662357802141E-120
   25.0173000000000        -3.737343638191910E-120
   25.2567000000000        -8.245543357591782E-120
   25.4961000000000        -1.790476011489752E-119
   25.7355000000000        -3.824650520454994E-119
   25.9749000000000        -8.030517074392842E-119
   26.2143000000000        -1.655507833280242E-118
   26.4537000000000        -3.345695171107325E-118
   26.6931000000000        -6.614844802050800E-118
   26.9325000000000        -1.275995383506235E-117
   27.1719000000000        -2.392645943436029E-117
   27.4113000000000        -4.338931294117638E-117
   27.6507000000000        -7.552767944024046E-117
   27.8901000000000        -1.247201379415197E-116
   28.1295000000000        -1.914193259417632E-116
   28.3689000000000        -2.619149392075129E-116
   28.6083000000000        -2.855512711211746E-116
   28.8477000000000        -1.298237927302327E-116
   29.0871000000000         4.977852858954127E-116
   29.3265000000000         2.164663676213332E-115
   29.5659000000000         5.832075390679759E-115
   29.8053000000000         1.283945967636178E-114
   30.0447000000000         2.435492421950777E-114
   30.2841000000000         3.932990342926955E-114
   30.5235000000000         4.889942514727177E-114
   30.7629000000000         2.325345100921436E-114
   31.0023000000000        -1.159090693280958E-113
   31.2417000000000        -5.477272485601951E-113
   31.4811000000000        -1.641618605466649E-112
   31.7205000000000        -4.090129584275700E-112
   31.9599000000000        -9.062938650498322E-112
   32.1993000000000        -1.827871433050528E-111
   32.4387000000000        -3.370443260632537E-111
   32.6781000000000        -5.621473865873085E-111
   32.9175000000000        -8.186962882778053E-111
   33.1569000000000        -9.341184755250195E-111
   33.3963000000000        -4.321622299544104E-111
   33.6357000000000         1.772295970121666E-110
   33.8751000000000         7.855973805278080E-110
   34.1145000000000         2.173004765460606E-109
   34.3539000000000         4.964152066165526E-109
   34.5933000000000         1.001040511573335E-108
   34.8327000000000         1.816858235125643E-108
   35.0721000000000         2.957277627092255E-108
   35.3115000000000         4.189022117335732E-108
   35.5509000000000         4.679415227322733E-108
   35.7903000000000         2.371357385502329E-108
   36.0297000000000        -6.984263389117884E-108
   36.2691000000000        -3.107694249461656E-107
   36.5085000000000        -8.214453411910523E-107
   36.7479000000000        -1.767516271523172E-106
   36.9873000000000        -3.316471290155373E-106
   37.2267000000000        -5.508938575403185E-106
   37.4661000000000        -7.965292753481954E-106
   37.7055000000000        -9.322096377283932E-106
   37.9449000000000        -6.290198221472292E-106
   38.1843000000000         7.699180610475414E-106
   38.4237000000000         4.404837316282961E-105
   38.6631000000000         1.199719874283312E-104
   38.9025000000000         2.570544482772273E-104
   39.1419000000000         4.737855184806929E-104
   39.3813000000000         7.660231864108149E-104
   39.6207000000000         1.066655999382868E-103
   39.8601000000000         1.174317449157859E-103
   40.0995000000000         6.441427116734961E-104
   40.3389000000000        -1.352679833669407E-103
   40.5783000000000        -6.159853220993324E-103
   40.8177000000000        -1.564984353854707E-102
   41.0571000000000        -3.190061066439544E-102
   41.2965000000000        -5.615271076264882E-102
   41.5359000000000        -8.647345330244220E-102
   41.7753000000000        -1.134125763442394E-101
   42.0147000000000        -1.130162525517005E-101
   42.2541000000000        -3.719984600016255E-102
   42.4935000000000         1.968170883057559E-101
   42.7329000000000         7.128419054744521E-101
   42.9723000000000         1.666676954224073E-100
   43.2117000000000         3.201802916118072E-100
   43.4511000000000         5.339084274903852E-100
   43.6905000000000         7.760505187840309E-100
   43.9299000000000         9.447169427702336E-100
   44.1693000000000         8.156550253284593E-100
   44.4087000000000        -2.029718643945421E-101
   44.6481000000000        -2.208897699081334E-099
   44.8875000000000        -6.625486658913173E-099
   45.1269000000000        -1.422153178884117E-098
   45.3663000000000        -2.558709188045875E-098
   45.6057000000000        -4.004551684557011E-098
   45.8451000000000        -5.408706770224665E-098
   46.0845000000000        -5.903525436718648E-098
   46.3239000000000        -3.811834091058289E-098
   46.5633000000000         3.628538256481854E-098
   46.8027000000000         2.034149631256231E-097
   47.0421000000000         5.095289455307561E-097
   47.2815000000000         9.925996743380136E-097
   47.5209000000000         1.649106057469690E-096
   47.7603000000000         2.375186125788696E-096
   47.9997000000000         2.877350247117081E-096
   48.2391000000000         2.557745859933817E-096
   48.4785000000000         3.999915867357474E-097
   48.7179000000000        -5.081689573838548E-096
   48.9573000000000        -1.571273472962592E-095
   49.1967000000000        -3.316260349928134E-095
   49.4361000000000        -5.783436245608433E-095
   49.6755000000000        -8.687165191398818E-095
   49.9149000000000        -1.111126483744210E-094
   50.1543000000000        -1.111430143363793E-094
   50.3937000000000        -5.328491842620373E-095
   50.6331000000000         1.124588144936357E-094
   50.8725000000000         4.487522124506502E-094
   51.1119000000000         1.015684304115481E-093
   51.3513000000000         1.836111476461589E-093
   51.5907000000000         2.833246437478145E-093
   51.8301000000000         3.735258368448315E-093
   52.0695000000000         3.951578034684201E-093
   52.3089000000000         2.446325746315824E-093
   52.5483000000000        -2.330507249215330E-093
   52.7877000000000        -1.234259830195490E-092
   53.0271000000000        -2.952460152052731E-092
   53.2665000000000        -5.476942557024876E-092
   53.5059000000000        -8.610534049808138E-092
   53.7453000000000        -1.159139413837905E-091
   53.9847000000000        -1.273226121651166E-091
   54.2241000000000        -9.048504354556807E-092
   54.4635000000000         3.956478554878058E-092
   54.7029000000000         3.204126049085133E-091
   54.9423000000000         8.103913144876826E-091
   55.1817000000000         1.541151547235350E-090
   55.4211000000000         2.468174796270823E-090
   55.6605000000000         3.395127573930056E-090
   55.8999000000000         3.875296457332207E-090
   56.1393000000000         3.108257995498629E-090
   56.3787000000000        -1.252848630388788E-091
   56.6181000000000        -7.412455093602670E-090
   56.8575000000000        -2.042120787180597E-089
   57.0969000000000        -4.022071755244032E-089
   57.3363000000000        -6.604302231011751E-089
   57.5757000000000        -9.337516343451713E-089
   57.8151000000000        -1.114434325092410E-088
   58.0545000000000        -1.005017686445458E-088
   58.2939000000000        -2.991763292557540E-089
   58.5333000000000         1.411277647131471E-088
   58.7727000000000         4.575252345900757E-088
   59.0121000000000         9.530174542949503E-088
   59.2515000000000         1.621877320465622E-087
   59.4909000000000         2.374586776133737E-087
   59.7303000000000         2.978248401986663E-087
   59.9697000000000         2.989947751764114E-087
   60.2091000000000         1.703786110010166E-087
   60.4485000000000        -1.849857097067168E-087
   60.6879000000000        -8.792683205573439E-087
   60.9273000000000        -2.009390776314845E-086
   61.1667000000000        -3.598293612829972E-086
   61.4061000000000        -5.500749093425023E-086
   61.6455000000000        -7.273341991341721E-086
   61.8849000000000        -8.022712449581728E-086
   62.1243000000000        -6.270716447108234E-086
   62.3637000000000         8.927617823492667E-088
   62.6031000000000         1.362673770589844E-085
   62.8425000000000         3.683711479371554E-085
   63.0819000000000         7.104643094846219E-085
   63.3213000000000         1.145924753466843E-084
   63.5607000000000         1.602297536070402E-084
   63.8001000000000         1.919572306918811E-084
   64.0395000000000         1.819070632399876E-084
   64.2789000000000         8.858260004517736E-085
   64.5183000000000        -1.414390966328679E-084
   64.7577000000000        -5.653584341519886E-084
   64.9971000000000        -1.225963216862987E-083
   65.2365000000000        -2.119936279369012E-083
   65.4759000000000        -3.150789923775155E-083
   65.7153000000000        -4.068474620542053E-083
   65.9547000000000        -4.404825475146551E-083
   66.1941000000000        -3.424863211989729E-083
   66.4335000000000        -1.282409745972800E-084
   66.6729000000000         6.649068902290456E-083
   66.9123000000000         1.796973485889337E-082
   67.1517000000000         3.430082543667463E-082
   67.3911000000000         5.474311256639747E-082
   67.6305000000000         7.599056766282071E-082
   67.8699000000000         9.113062906251015E-082
   68.1093000000000         8.856064014863434E-082
   68.3487000000000         5.152108060301002E-082
   68.5881000000000        -4.099051622086620E-082
   68.8275000000000        -2.109165671882916E-081
   69.0669000000000        -4.743167194354165E-081
   69.3063000000000        -8.300520647726368E-081
   69.5457000000000        -1.243646040422415E-080
   69.7851000000000        -1.627349560270051E-080
   70.0245000000000        -1.819704133186915E-080
   70.2639000000000        -1.571131790306023E-080
   70.5033000000000        -5.460707083895445E-081
   70.7427000000000         1.643742054377803E-080
   70.9821000000000         5.357354251597946E-080
   71.2215000000000         1.077691903840069E-079
   71.4609000000000         1.768350883238183E-079
   71.7003000000000         2.516135488104846E-079
   71.9397000000000         3.126348787514357E-079
   72.1791000000000         3.271388715173355E-079
   72.4185000000000         2.477609763716279E-079
   72.6579000000000         1.479154538762451E-080
   72.8973000000000        -4.355585888432798E-079
   73.1367000000000        -1.154253473127544E-078
   73.3761000000000        -2.151725615838387E-078
   73.6155000000000        -3.358768899678131E-078
   73.8549000000000        -4.578527287635455E-078
   74.0943000000000        -5.437027067000411E-078
   74.3337000000000        -5.346522246614323E-078
   74.5731000000000        -3.504058117738921E-078
   74.8125000000000         1.044321606839912E-078
   75.0519000000000         9.237968656542999E-078
   75.2913000000000         2.170009899694977E-077
   75.5307000000000         3.827863077318177E-077
   75.7701000000000         5.743769998172295E-077
   76.0095000000000         7.556030636420649E-077
   76.2489000000000         8.629905593727577E-077
   76.4883000000000         8.020956720816733E-077
   76.7277000000000         4.500757531207185E-077
   76.9671000000000        -3.311849236968506E-077
   77.2065000000000        -1.666721127980797E-076
   77.4459000000000        -3.620969140281598E-076
   77.6853000000000        -6.129630277532305E-076
   77.9247000000000        -8.914325131578798E-076
   78.1641000000000        -1.139114895990593E-075
   78.4035000000000        -1.259475239889346E-075
   78.6429000000000        -1.115204655306745E-075
   78.8823000000000        -5.351999182615947E-076
   79.1217000000000         6.633367503175634E-076
   79.3611000000000         2.632205164585150E-075
   79.6005000000000         5.425066408412680E-075
   79.8399000000000         8.905932998015559E-075
   80.0793000000000         1.264026301896402E-074
   80.3187000000000         1.578577668506307E-074
   80.5581000000000         1.701311443092652E-074
   80.7975000000000         1.450083064368566E-074
   81.0369000000000         6.062016653530272E-075
   81.2763000000000        -1.053360592840909E-074
   81.5157000000000        -3.698435854420484E-074
   81.7551000000000        -7.359654227237252E-074
   81.9945000000000        -1.181621096668955E-073
   82.2339000000000        -1.646836941283910E-073
   82.4733000000000        -2.021773794714676E-073
   82.7127000000000        -2.139296979437265E-073
   82.9521000000000        -1.777359022087037E-073
   83.1915000000000        -6.776473582788327E-074
   83.4309000000000         1.412734180635844E-073
   83.6703000000000         4.671022189875229E-073
   83.9097000000000         9.098024660245857E-073
   84.1491000000000         1.439143727550533E-072
   84.3885000000000         1.980782296602940E-072
   84.6279000000000         2.404095182592837E-072
   84.8673000000000         2.515925303746401E-072
   85.1067000000000         2.065957596027028E-072
   85.3461000000000         7.704179862845438E-073
   85.5855000000000        -1.639281580554211E-072
   85.8249000000000        -5.338124915051165E-072
   86.0643000000000        -1.029870453342579E-071
   86.3037000000000        -1.615870285570617E-071
   86.5431000000000        -2.208169941104722E-071
   86.7825000000000        -2.664148263156398E-071
   87.0219000000000        -2.777438363115045E-071
   87.2613000000000        -2.285695068124095E-071
   87.5007000000000        -8.973374873064997E-072
   87.7401000000000         1.656701397235772E-071
   87.9795000000000         5.542340313803473E-071
   88.2189000000000         1.071345490413143E-070
   88.4583000000000         1.678261494189552E-070
   88.6977000000000         2.288939221970584E-070
   88.9371000000000         2.759635092587264E-070
   89.1765000000000         2.885555625521637E-070
   89.4159000000000         2.409901005741134E-070
   89.6553000000000         1.051096208510123E-070
   89.8947000000000        -1.446631880436859E-070
   90.1341000000000        -5.236430980892130E-070
   90.3735000000000        -1.026720973596318E-069
   90.6129000000000        -1.616542145680994E-069
   90.8523000000000        -2.211742794924510E-069
   91.0917000000000        -2.678017559565276E-069
   91.3311000000000        -2.825851637193085E-069
   91.5705000000000        -2.419573035722498E-069
   91.8099000000000        -1.202630909674469E-069
   92.0493000000000         1.056719669987478E-069
   92.2887000000000         4.497269093791633E-069
   92.5281000000000         9.076056643650210E-069
   92.7675000000000         1.446652910301567E-068
   93.0069000000000         1.995878394580994E-068
   93.2463000000000         2.438561988751306E-068
   93.4857000000000         2.610647074801950E-068
   93.7251000000000         2.308739384207743E-068
   93.9645000000000         1.311643507719552E-068
   94.2039000000000        -5.813240143639622E-069
   94.4433000000000        -3.493823163210537E-068
   94.6827000000000        -7.399546814944855E-068
   94.9221000000000        -1.203925666625117E-067
   95.1615000000000        -1.684012668441482E-067
   95.4009000000000        -2.085633836860567E-067
   95.6403000000000        -2.275614089818462E-067
   95.8797000000000        -2.088494812326013E-067
   96.1191000000000        -1.343446867457288E-067
   96.3585000000000         1.257949477202436E-068
   96.5979000000000         2.426987435695587E-067
   96.8373000000000         5.552879600303114E-067
   97.0767000000000         9.317111337026066E-067
   97.3161000000000         1.329185239805846E-066
   97.5555000000000         1.676136174133679E-066
   97.7949000000000         1.871015449809242E-066
   98.0343000000000         1.786750633060441E-066
   98.2737000000000         1.283016353495328E-066
   98.5131000000000         2.280756086144697E-067
   98.7525000000000        -1.469099405362319E-066
   98.9919000000000        -3.817469513092180E-066
   99.2313000000000        -6.696856906471661E-066
   99.4707000000000        -9.811767147733206E-066
   99.7101000000000        -1.265608490904207E-065
   99.9495000000000        -1.450174216379373E-065
   100.188900000000        -1.442654753153572E-065
   100.428300000000        -1.139645727086797E-065
   100.667700000000        -4.414595103107031E-066
   100.907100000000         7.257707165434492E-066
   101.146500000000         2.381436107239829E-065
   101.385900000000         4.457559268940852E-065
   101.625300000000         6.766035261944172E-065
   101.864700000000         8.972626046706979E-065
   102.104100000000         1.058641048880297E-064
   102.343500000000         1.097480909742264E-064
   102.582900000000         9.414433266106931E-065
   102.822300000000         5.186174461339506E-065
   103.061700000000        -2.281480294291622E-065
   103.301100000000        -1.322437650251486E-064
   103.540500000000        -2.732386838639393E-064
   103.779900000000        -4.348433285792212E-064
   104.019300000000        -5.964845697622803E-064
   104.258700000000        -7.270516939557824E-064
   104.498100000000        -7.855454675024969E-064
   104.737500000000        -7.239571998205351E-064
   104.976900000000        -4.929359384006269E-064
   105.216300000000        -5.054221000716254E-065
   105.455700000000         6.260574740659229E-064
   105.695100000000         1.526734248127507E-063
   105.934500000000         2.593950005443700E-063
   106.173900000000         3.710168924086252E-063
   106.413300000000         4.690413185722179E-063
   106.652700000000         5.283866720550486E-063
   106.892100000000         5.188608917431693E-063
   107.131500000000         4.083055723519961E-063
   107.370900000000         1.676269895925066E-063
   107.610300000000        -2.223189437938274E-063
   107.849700000000        -7.623815804722972E-063
   108.089100000000        -1.426161635789635E-062
   108.328500000000        -2.151814269499964E-062
   108.567900000000        -2.836477455942845E-062
   108.807300000000        -3.335586121043765E-062
   109.046700000000        -3.469491082984425E-062
   109.286100000000        -3.039590026527799E-062
   109.525500000000        -1.855464382458507E-062
   109.764900000000         2.267979623040263E-063
   110.004300000000         3.256862990052196E-062
   110.243700000000         7.137280520606224E-062
   110.483100000000         1.157265818540697E-061
   110.722500000000         1.603095626304064E-061
   110.961900000000         1.972938058284332E-061
   111.201300000000         2.165859207644882E-061
   111.440700000000         2.065829357304887E-061
   111.680100000000         1.555396933522810E-061
   111.919500000000         5.358061382449099E-062
   112.158900000000        -1.047109339689574E-061
   112.398300000000        -3.173243027717751E-061
   112.637700000000        -5.718279339692588E-061
   112.877100000000        -8.428649426681768E-061
   113.116500000000        -1.090793388565146E-060
   113.355900000000        -1.262214301793586E-060
   113.595300000000        -1.293126319124483E-060
   113.834700000000        -1.115310833020003E-060
   114.074100000000        -6.662531039944790E-061
   114.313500000000         9.757542686823943E-062
   114.552900000000         1.184904814124480E-060
   114.792300000000         2.552949657948548E-060
   115.031700000000         4.092266373767725E-060
   115.271100000000         5.616454454158018E-060
   115.510500000000         6.860537696829508E-060
   115.749900000000         7.492011318297363E-060
   115.989300000000         7.138074346951376E-060
   116.228700000000         5.431305424222230E-060
   116.468100000000         2.073867266199165E-060
   116.707500000000        -3.082769817782121E-060
   116.946900000000        -9.949470264856310E-060
   117.186300000000        -1.811365064878872E-059
   117.425700000000        -2.677151172138039E-059
   117.665100000000        -3.469711270446235E-059
   117.904500000000        -4.026874926279257E-059
   118.143900000000        -4.157198818480466E-059
   118.383300000000        -3.659393118957700E-059
   118.622700000000        -2.351413384843274E-059
   118.862100000000        -1.083845814594833E-060
   119.101500000000         3.093271737685585E-059
   119.340900000000         7.130223579408445E-059
   119.580300000000         1.169199726956093E-058
   119.819700000000         1.625488885528592E-058
   120.059100000000         2.007999297187548E-058
   120.298500000000         2.224539610635499E-058
   120.537900000000         2.172104668925409E-058
   120.777300000000         1.749128884167974E-058
   121.016700000000         8.724318233275126E-059
   121.256100000000        -5.020050117626792E-059
   121.495500000000        -2.356248851123714E-058
   121.734900000000        -4.588473222760173E-058
   121.974300000000        -6.995711031726643E-058
   122.213700000000        -9.265910683744335E-058
   122.453100000000        -1.098422097109271E-057
   122.692500000000        -1.165808695775132E-057
   122.931900000000        -1.076453380593906E-057
   123.171300000000        -7.820808733334702E-058
   123.410700000000        -2.476309008030177E-058
   123.650100000000         5.380437133902473E-058
   123.889500000000         1.551074343701415E-057
   124.128900000000         2.722656717797591E-057
   124.368300000000         3.932324740991793E-057
   124.607700000000         5.006698285767546E-057
   124.847100000000         5.726000591992171E-057
   125.086500000000         5.840303914425401E-057
   125.325900000000         5.096692602902689E-057
   125.565300000000         3.277288149476372E-057
   125.804700000000         2.463759255742079E-058
   126.044100000000        -3.997199742459868E-057
   126.283500000000        -9.268463904928092E-057
   126.522900000000        -1.515381883272434E-056
   126.762300000000        -2.098758954961682E-056
   127.001700000000        -2.585837175649255E-056
   127.241100000000        -2.865540217652802E-056
   127.480500000000        -2.816285896224614E-056
   127.719900000000        -2.320562033405576E-056
   127.959300000000        -1.284346933876076E-056
   128.198700000000         3.397767202925176E-057
   128.438100000000         2.527954363379017E-056
   128.677500000000         5.162006127445581E-056
   128.916900000000         8.012080771304020E-056
   129.156300000000         1.072975568044034E-055
   129.395700000000         1.285648687404439E-055
   129.635100000000         1.385179750335431E-055
   129.874500000000         1.314422669573741E-055
   130.113900000000         1.020573872099337E-055
   130.353300000000         4.647017424774322E-056
   130.592700000000        -3.673010978696131E-056
   130.832100000000        -1.453465165374468E-055
   131.071500000000        -2.725768065907280E-055
   131.310900000000        -4.063394951858579E-055
   131.550300000000        -5.291423692469805E-055
   131.789700000000        -6.187106340544259E-055
   132.029100000000        -6.495570934245122E-055
   132.268500000000        -5.956021736907745E-055
   132.507900000000        -4.338339537536787E-055
   132.747300000000        -1.488397284557367E-055
   132.986700000000         2.621500506948382E-055
   133.226100000000         7.842704049913099E-055
   133.465500000000         1.380843597288317E-054
   133.704900000000         1.990927233984524E-054
   133.944300000000         2.529573350195616E-054
   134.183700000000         2.891733690250272E-054
   134.423100000000         2.960540167927360E-054
   134.662500000000         2.620301140212024E-054
   134.901900000000         1.773976443754377E-054
   135.141300000000         3.641455805710611E-055
   135.380700000000        -1.604385485326161E-054
   135.620100000000        -4.043096300272098E-054
   135.859500000000        -6.762954560530168E-054
   136.098900000000        -9.466455025594927E-054
   136.338300000000        -1.175280252898289E-053
   136.577700000000        -1.314012782296278E-053
   136.817100000000        -1.310748134683025E-053
   137.056500000000        -1.115739591590239E-053
   137.295900000000        -6.897049378982331E-054
   137.535300000000        -1.326187789265625E-055
   137.774700000000         9.032429539127704E-054
   138.014100000000         2.010819583555507E-053
   138.253500000000         3.215466120986054E-053
   138.492900000000         4.376171869324961E-053
   138.732300000000         5.309110451651913E-053