  -1.79550000000000         0.000000000000000E+000
  -1.55610000000000         0.000000000000000E+000
  -1.31670000000000         0.000000000000000E+000
  -1.07730000000000         0.000000000000000E+000
 -0.837900000000000         0.000000000000000E+000
 -0.598500000000000         0.000000000000000E+000
 -0.359100000000000         0.000000000000000E+000
 -0.119700000000000         0.000000000000000E+000
  0.119700000000000         0.000000000000000E+000
  0.359100000000000         0.000000000000000E+000
  0.598500000000000         0.000000000000000E+000
  0.837900000000000         0.000000000000000E+000
   1.07730000000000         0.000000000000000E+000
   1.31670000000000         0.000000000000000E+000
   1.55610000000000         0.000000000000000E+000
   1.79550000000000         0.000000000000000E+000
   2.03490000000000         0.000000000000000E+000
   2.27430000000000         0.000000000000000E+000
   2.51370000000000         0.000000000000000E+000
   2.75310000000000         0.000000000000000E+000
   2.99250000000000         0.000000000000000E+000
   3.23190000000000         0.000000000000000E+000
   3.47130000000000         0.000000000000000E+000
   3.71070000000000         0.000000000000000E+000
   3.95010000000000         0.000000000000000E+000
   4.18950000000000         0.000000000000000E+000
   4.42890000000000         0.000000000000000E+000
   4.66830000000000         0.000000000000000E+000
   4.90770000000000         0.000000000000000E+000
   5.14710000000000         0.000000000000000E+000
   5.38650000000000         0.000000000000000E+000
   5.62590000000000         0.000000000000000E+000
   5.86530000000000         0.000000000000000E+000
   6.10470000000000         0.000000000000000E+000
   6.34410000000000         0.000000000000000E+000
   6.58350000000000         0.000000000000000E+000
   6.82290000000000         0.000000000000000E+000
   7.06230000000000         0.000000000000000E+000
   7.30170000000000         0.000000000000000E+000
   7.54110000000000         0.000000000000000E+000
   7.78050000000000         0.000000000000000E+000
   8.01990000000000         0.000000000000000E+000
   8.25930000000000         0.000000000000000E+000
   8.49870000000000         0.000000000000000E+000
   8.73810000000000         0.000000000000000E+000
   8.97750000000000         8.411829742086068E-196
   9.21690000000000        -9.279498658197704E-189
   9.45630000000000        -1.685323562839552E-185
   9.69570000000000         9.855595981742227E-177
   9.93510000000000        -1.493709962958423E-170
   10.1745000000000        -9.308819734058245E-169
   10.4139000000000        -1.626671689873400E-167
   10.6533000000000         2.735460330571690E-165
   10.8927000000000         2.354840671972230E-163
   11.1321000000000         9.973503211346742E-162
   11.3715000000000         2.863860646831949E-160
   11.6109000000000         6.260763879401615E-159
   11.8503000000000         1.110111868186022E-157
   12.0897000000000         1.663327369895501E-156
   12.3291000000000         2.168250751962279E-155
   12.5685000000000         2.513271958602123E-154
   12.8079000000000         2.634327925945052E-153
   13.0473000000000         2.529762425237225E-152
   13.2867000000000         2.248394397730121E-151
   13.5261000000000         1.863952236074313E-150
   13.7655000000000         1.449982117016208E-149
   14.0049000000000         1.063338156031964E-148
   14.2443000000000         7.378804287187602E-148
   14.4837000000000         4.860734159843724E-147
   14.7231000000000         3.048653242368001E-146
   14.9625000000000         1.825866562385988E-145
   15.2019000000000         1.047289451923859E-144
   15.4413000000000         5.770381564586657E-144
   15.6807000000000         3.063221421772681E-143
   15.9201000000000         1.571160052425273E-142
   16.1595000000000         7.805934389489673E-142
   16.3989000000000         3.764180641062174E-141
   16.6383000000000         1.764231305983854E-140
   16.8777000000000         8.041953741162712E-140
   17.1171000000000         3.564937394045049E-139
   17.3565000000000         1.535687261070893E-138
   17.5959000000000         6.420280731753334E-138
   17.8353000000000         2.600528214458661E-137
   18.0747000000000         1.018438279627542E-136
   18.3141000000000         3.847190350893621E-136
   18.5535000000000         1.397928941850855E-135
   18.7929000000000         4.869548385986861E-135
   19.0323000000000         1.618945235308707E-134
   19.2717000000000         5.104920001429557E-134
   19.5111000000000         1.511886723397180E-133
   19.7505000000000         4.134942742927327E-133
   19.9899000000000         1.009360167400724E-132
   20.2293000000000         2.014917852662386E-132
   20.4687000000000         2.208140330069450E-132
   20.7081000000000        -6.453659679984885E-132
   20.9475000000000        -6.010992749530115E-131
   21.1869000000000        -2.966726870180955E-130
   21.4263000000000        -1.191746894630610E-129
   21.6657000000000        -4.267291818017446E-129
   21.9051000000000        -1.410466308982346E-128
   22.1445000000000        -4.377844612465949E-128
   22.3839000000000        -1.288358449555167E-127
   22.6233000000000        -3.616362417207178E-127
   22.8627000000000        -9.719870987771548E-127
   23.1021000000000        -2.508302430055889E-126
   23.3415000000000        -6.227361094255534E-126
   23.5809000000000        -1.489861546823045E-125
   23.8203000000000        -3.440092426071685E-125
   24.0597000000000        -7.678845758619109E-125
   24.2991000000000        -1.660342670241441E-124
   24.5385000000000        -3.486526819905482E-124
   24.7779000000000        -7.133162504755237E-124
   25.0173000000000        -1.427121708730548E-123
   25.2567000000000        -2.801439588114738E-123
   25.4961000000000        -5.402615514487719E-123
   25.7355000000000        -1.019770577805675E-122
   25.9749000000000        -1.858452218325275E-122
   26.2143000000000        -3.163239559449001E-122
   26.4537000000000        -4.625044872310994E-122
   26.6931000000000        -4.162985194459210E-122
   26.9325000000000         6.139821979480056E-122
   27.1719000000000         5.092492117027982E-121
   27.4113000000000         1.981625323545983E-120
   27.6507000000000         6.188016890784498E-120
   27.8901000000000         1.709091335837444E-119
   28.1295000000000         4.316521509226537E-119
   28.3689000000000         1.010117875528279E-118
   28.6083000000000         2.198022917826968E-118
   28.8477000000000         4.431853678397482E-118
   29.0871000000000         8.179295207759679E-118
   29.3265000000000         1.342457507539869E-117
   29.5659000000000         1.817752527651072E-117
   29.8053000000000         1.493415152683744E-117
   30.0447000000000        -1.660755924181958E-117
   30.2841000000000        -1.226189345248450E-116
   30.5235000000000        -3.948812118413116E-116
   30.7629000000000        -9.925160812014120E-116
   31.0023000000000        -2.145288758229044E-115
   31.2417000000000        -4.082306731324395E-115
   31.4811000000000        -6.760466054374936E-115
   31.7205000000000        -9.151341711019994E-115
   31.9599000000000        -7.688946483781703E-115
   32.1993000000000         6.652119538220434E-115
   32.4387000000000         5.308537162038630E-114
   32.6781000000000         1.671884860351337E-113
   32.9175000000000         4.057268123297308E-113
   33.1569000000000         8.416598819345870E-113
   33.3963000000000         1.529787813533121E-112
   33.6357000000000         2.404899460310794E-112
   33.8751000000000         3.048383709955759E-112
   34.1145000000000         2.233716286439744E-112
   34.3539000000000        -2.839069337901023E-112
   34.5933000000000        -1.762694051342575E-111
   34.8327000000000        -5.137473529335612E-111
   35.0721000000000        -1.173669522934788E-110
   35.3115000000000        -2.300933646319531E-110
   35.5509000000000        -3.949837606295339E-110
   35.7903000000000        -5.833892752514994E-110
   36.0297000000000        -6.824429260974886E-110
   36.2691000000000        -4.087680526561890E-110
   36.5085000000000         8.177621888245650E-110
   36.7479000000000         4.018615240636982E-109
   36.9873000000000         1.073823244490816E-108
   37.2267000000000         2.286672296002664E-108
   37.4661000000000         4.182059241991351E-108
   37.7055000000000         6.644527561623498E-108
   37.9449000000000         8.875483370094736E-108
   38.1843000000000         8.658565291027413E-108
   38.4237000000000         1.284865135965824E-108
   38.6631000000000        -2.169124347624260E-107
   38.9025000000000        -7.323722531397333E-107
   39.1419000000000        -1.696940786598576E-106
   39.3813000000000        -3.248998422670787E-106
   39.6207000000000        -5.351074100397417E-106
   39.8601000000000        -7.487652472390675E-106
   40.0995000000000        -8.155091750157702E-106
   40.3389000000000        -4.136867556165267E-106
   40.5783000000000         1.029738329297863E-105
   40.8177000000000         4.382379035795292E-105
   41.0571000000000         1.071474585740878E-104
   41.2965000000000         2.089762853422475E-104
   41.5359000000000         3.462229078675333E-104
   41.7753000000000         4.851829194724002E-104
   42.0147000000000         5.311278640691289E-104
   42.2541000000000         2.874614973465944E-104
   42.4935000000000        -5.850681371710859E-104
   42.7329000000000        -2.580479207968565E-103
   42.9723000000000        -6.273053458254891E-103
   43.2117000000000        -1.205907549554797E-102
   43.4511000000000        -1.957886754948943E-102
   43.6905000000000        -2.667210818766638E-102
   43.9299000000000        -2.779012297764842E-102
   44.1693000000000        -1.202950993629878E-102
   44.4087000000000         3.851885070104717E-102
   44.6481000000000         1.484723772902059E-101
   44.8875000000000         3.438866147690946E-101
   45.1269000000000         6.373322514875709E-101
   45.3663000000000         9.973859018253171E-101
   45.6057000000000         1.297224014747251E-100
   45.8451000000000         1.242109976045724E-100
   46.0845000000000         2.889656281719699E-101
   46.3239000000000        -2.402589817677678E-100
   46.5633000000000        -7.906059238866379E-100
   46.8027000000000        -1.721251935152622E-099
   47.0421000000000        -3.046847040556044E-099
   47.2815000000000        -4.554986430854283E-099
   47.5209000000000        -5.583616481837592E-099
   47.7603000000000        -4.733999998358258E-099
   47.9997000000000         4.009747156566551E-100
   48.2391000000000         1.330065167752268E-098
   48.4785000000000         3.801529983736326E-098
   48.7179000000000         7.754829677585541E-098
   48.9573000000000         1.304225004553736E-097
   49.1967000000000         1.847886951452338E-097
   49.4361000000000         2.099665428026541E-097
   49.6755000000000         1.466976909324698E-097
   49.9149000000000        -9.993778056808428E-098
   50.1543000000000        -6.567567920501582E-097
   50.3937000000000        -1.654124275185929E-096
   50.6331000000000        -3.153793173023666E-096
   50.8725000000000        -5.011608584574441E-096
   51.1119000000000        -6.661163032890026E-096
   51.3513000000000        -6.830711735588607E-096
   51.5907000000000        -3.262276650044056E-096
   51.8301000000000         7.400707482171297E-096
   52.0695000000000         2.925103717237037E-095
   52.3089000000000         6.581276746498960E-095
   52.5483000000000         1.172035995646865E-094
   52.7877000000000         1.752167978019821E-094
   53.0271000000000         2.161859856863609E-094
   53.2665000000000         1.925562238588812E-094
   53.5059000000000         2.609573445448123E-095
   53.7453000000000        -3.911682929136259E-094
   53.9847000000000        -1.178105096485857E-093
   54.2241000000000        -2.413448201013169E-093
   54.4635000000000        -4.036457775039108E-093
   54.7029000000000        -5.687612878653486E-093
   54.9423000000000        -6.494448447390656E-093
   55.1817000000000        -4.844199192828523E-093
   55.4211000000000         1.752021585596115E-093
   55.6605000000000         1.650759917433264E-092
   55.8999000000000         4.261723732897730E-092
   56.1393000000000         8.152729320788981E-092
   56.3787000000000         1.298212011120118E-091
   56.6181000000000         1.745203087631220E-091
   56.8575000000000         1.871599679664378E-091
   57.0969000000000         1.180978525665986E-091
   57.3363000000000        -1.057246925925399E-091
   57.5757000000000        -5.739600769665310E-091
   57.8151000000000        -1.368759941416742E-090
   58.0545000000000        -2.513404618700802E-090
   58.2939000000000        -3.884564299627733E-090
   58.5333000000000        -5.085627106317597E-090
   58.7727000000000        -5.294423187332466E-090
   59.0121000000000        -3.127737435890843E-090
   59.2515000000000         3.390663768563700E-090
   59.4909000000000         1.661480628941843E-089
   59.7303000000000         3.861259501461937E-089
   59.9697000000000         6.981931636898152E-089
   60.2091000000000         1.068131210967716E-088
   60.4485000000000         1.391926042776968E-088
   60.6879000000000         1.459299058356601E-088
   60.9273000000000         9.225880123175199E-089
   61.1667000000000        -7.083522258800934E-089
   61.4061000000000        -4.012103235365842E-088
   61.6455000000000        -9.497387367980842E-088
   61.8849000000000        -1.728982201465593E-087
   62.1243000000000        -2.662356674050128E-087
   62.3637000000000        -3.513803694579827E-087
   62.6031000000000        -3.806586970320745E-087
   62.8425000000000        -2.754375111292627E-087
   63.0819000000000         7.514188338303372E-088
   63.3213000000000         8.028999369774739E-087
   63.5607000000000         2.027589906408823E-086
   63.8001000000000         3.791896276976631E-086
   64.0395000000000         5.956530701340312E-086
   64.2789000000000         8.055587884179084E-086
   64.5183000000000         9.129119905870318E-086
   64.7577000000000         7.577749170801998E-086
   64.9971000000000         1.123376300471844E-086
   65.2365000000000        -1.299336919100861E-085
   65.4759000000000        -3.740555932578202E-085
   65.7153000000000        -7.341137718395479E-085
   65.9547000000000        -1.190145884964170E-084
   66.1941000000000        -1.662078864503363E-084
   66.4335000000000        -1.977881090452462E-084
   66.6729000000000        -1.844774840989629E-084
   66.9123000000000        -8.380307168648793E-085
   67.1517000000000         1.570120997216039E-084
   67.3911000000000         5.911552557035641E-084
   67.6305000000000         1.252012110229801E-083
   67.8699000000000         2.119947233905553E-083
   68.1093000000000         3.075665471911320E-083
   68.3487000000000         3.844440864958488E-083
   68.5881000000000         3.943214017931834E-083
   68.8275000000000         2.653334867142331E-083
   69.0669000000000        -9.454924492815936E-084
   69.3063000000000        -7.832542720661957E-083
   69.5457000000000        -1.874122943643366E-082
   69.7851000000000        -3.364669565985194E-082
   70.0245000000000        -5.103284446444796E-082
   70.2639000000000        -6.699381201715703E-082
   70.5033000000000        -7.433733952453735E-082
   70.7427000000000        -6.201550325807008E-082
   70.9821000000000        -1.539756298094713E-082
   71.2215000000000         8.191829948048557E-082
   71.4609000000000         2.439542918467539E-081
   71.7003000000000         4.751476096622638E-081
   71.9397000000000         7.597882471580216E-081
   72.1791000000000         1.048695752190435E-080
   72.4185000000000         1.245237826488704E-080
   72.6579000000000         1.194936241763122E-080
   72.8973000000000         6.855133445856484E-081
   73.1367000000000        -5.331755907267128E-081
   73.3761000000000        -2.698203147940284E-080
   73.6155000000000        -5.941122897046469E-080
   73.8549000000000        -1.014823861894223E-079
   74.0943000000000        -1.477864019741075E-079
   74.3337000000000        -1.866366563548303E-079
   74.5731000000000        -1.983836679606153E-079
   74.8125000000000        -1.548899904890412E-079
   75.0519000000000        -2.135052203998946E-080
   75.2913000000000         2.381057501123314E-079
   75.5307000000000         6.496021535637556E-079
   75.7701000000000         1.212535769269447E-078
   76.0095000000000         1.876672001229600E-078
   76.2489000000000         2.515668597145850E-078
   76.4883000000000         2.902521865658148E-078
   76.7277000000000         2.696422194163800E-078
   76.9671000000000         1.454791926595105E-078
   77.2065000000000        -1.312266767796780E-078
   77.4459000000000        -6.027038364827282E-078
   77.6853000000000        -1.285485120056376E-077
   77.9247000000000        -2.143831080666027E-077
   78.1641000000000        -3.057530839295156E-077
   78.4035000000000        -3.789490012531385E-077
   78.6429000000000        -3.962958608112407E-077
   78.8823000000000        -3.063217784679776E-077
   79.1217000000000        -4.829219514080555E-078
   79.3611000000000         4.367722795340010E-077
   79.6005000000000         1.186765900637456E-076
   79.8399000000000         2.190099287207407E-076
   80.0793000000000         3.349616705224566E-076
   80.3187000000000         4.443608213858486E-076
   80.5581000000000         5.093296345043591E-076
   80.7975000000000         4.751538088387629E-076
   81.0369000000000         2.732593548020792E-076
   81.2763000000000        -1.694031332536870E-076
   81.5157000000000        -9.123873922600462E-076
   81.7551000000000        -1.973867176592420E-075
   81.9945000000000        -3.293398219167206E-075
   82.2339000000000        -4.689029608950025E-075
   82.4733000000000        -5.816895528093643E-075
   82.7127000000000        -6.146804831059701E-075
   82.9521000000000        -4.972850079862330E-075
   83.1915000000000        -1.482188080201514E-075
   83.4309000000000         5.094286087313644E-075
   83.6703000000000         1.523140188078344E-074
   83.9097000000000         2.875638460123504E-074
   84.1491000000000         4.441661662990827E-074
   84.3885000000000         5.943189466023852E-074
   84.6279000000000         6.914488677034131E-074
   84.8673000000000         6.693823417032133E-074
   85.1067000000000         4.463387977387708E-074
   85.3461000000000        -6.388692742390691E-075
   85.5855000000000        -9.314774384985379E-074
   85.8249000000000        -2.179871379458853E-073
   86.0643000000000        -3.745849803553862E-073
   86.3037000000000        -5.434773304870805E-073
   86.5431000000000        -6.879668987746312E-073
   86.7825000000000        -7.517895634309106E-073
   87.0219000000000        -6.603925748777877E-073
   87.2613000000000        -3.279933441860471E-073
   87.5007000000000         3.274606770322248E-073
   87.7401000000000         1.359956149134879E-072
   87.9795000000000         2.761702417517847E-072
   88.2189000000000         4.422518192959206E-072
   88.4583000000000         6.088278841421871E-072
   88.6977000000000         7.328653370718260E-072
   88.9371000000000         7.528805985605321E-072
   89.1765000000000         5.923322617421381E-072
   89.4159000000000         1.691850659624919E-072
   89.6553000000000        -5.867054515032193E-072
   89.8947000000000        -1.707658782172699E-071
   90.1341000000000        -3.154666370047098E-071
   90.3735000000000        -4.779872786459132E-071
   90.6129000000000        -6.291931443478179E-071
   90.8523000000000        -7.234871080087584E-071
   91.0917000000000        -6.994578206026899E-071
   91.3311000000000        -4.849141990168804E-071
   91.5705000000000        -7.874167087007681E-073
   91.8099000000000         7.854086786795970E-071
   92.0493000000000         1.905357228530964E-070
   92.2887000000000         3.288632715752231E-070
   92.5281000000000         4.766456215690500E-070
   92.7675000000000         6.038685420725810E-070
   93.0069000000000         6.663606800827920E-070
   93.2463000000000         6.075769427810375E-070
   93.4857000000000         3.645010389369978E-070
   93.7251000000000        -1.212039815061016E-070
   93.9645000000000        -8.862413272845985E-070
   94.2039000000000        -1.923422277876243E-069
   94.4433000000000        -3.156180722344983E-069
   94.6827000000000        -4.413969002697528E-069
   94.9221000000000        -5.414918908115081E-069
   95.1615000000000        -5.764273911962344E-069
   95.4009000000000        -4.978474227559215E-069
   95.6403000000000        -2.544638931993151E-069
   95.8797000000000         1.977318573828056E-069
   96.1191000000000         8.808385231204080E-069
   96.3585000000000         1.776777193586956E-068
   96.5979000000000         2.807472094190246E-068
   96.8373000000000         3.817144316140666E-068
   97.0767000000000         4.562031596299797E-068
   97.3161000000000         4.714225136174075E-068
   97.5555000000000         3.886951080533644E-068
   97.7949000000000         1.687952208116692E-068
   98.0343000000000        -2.194943876388055E-068
   98.2737000000000        -7.876937580259465E-068
   98.5131000000000        -1.513647658238633E-067
   98.7525000000000        -2.327092263205627E-067
   98.9919000000000        -3.097736774321511E-067
   99.2313000000000        -3.629936710779960E-067
   99.4707000000000        -3.668849581220682E-067
   99.7101000000000        -2.923143191216960E-067
   99.9495000000000        -1.108484498327342E-067
   100.188900000000         1.986199266395573E-067
   100.428300000000         6.411591698405234E-067
   100.667700000000         1.195749662790389E-066
   100.907100000000         1.805349604779860E-066
   101.146500000000         2.369290372837249E-066
   101.385900000000         2.740911567407489E-066
   101.625300000000         2.733786532202233E-066
   101.864700000000         2.139845287049324E-066
   102.104100000000         7.619269998213967E-067
   102.343500000000        -1.538430639376862E-066
   102.582900000000        -4.779963183027290E-066
   102.822300000000        -8.793265634280559E-066
   103.061700000000        -1.315548304374641E-065
   103.301100000000        -1.714344257319552E-065
   103.540500000000        -1.972471461361302E-065
   103.779900000000        -1.960832063399151E-065
   104.019300000000        -1.537566995585247E-065
   104.258700000000        -5.706328847006823E-066
   104.498100000000         1.029881805529224E-065
   104.737500000000         3.271314772487315E-065
   104.976900000000         6.033961329002769E-065
   105.216300000000         9.029582705102402E-065
   105.455700000000         1.177283505884802E-064
   105.695100000000         1.357796251307302E-064
   105.934500000000         1.359420402560805E-064
   106.173900000000         1.089231732860671E-064
   106.413300000000         4.610575156527626E-065
   106.652700000000        -5.839122369466838E-065
   106.892100000000        -2.051600453624188E-064
   107.131500000000        -3.867219052557892E-064
   107.370900000000        -5.849497473953081E-064
   107.610300000000        -7.693044697415080E-064
   107.849700000000        -8.966301924762187E-064
   108.089100000000        -9.133129433472233E-064
   108.328500000000        -7.605376681540166E-064
   108.567900000000        -3.831334496984295E-064
   108.807300000000         2.579598508549699E-064
   109.046700000000         1.170251034250017E-063
   109.286100000000         2.312810788502512E-063
   109.525500000000         3.580472149260661E-063
   109.764900000000         4.792650900174386E-063
   110.004300000000         5.691119440354327E-063
   110.243700000000         5.951426769618081E-063
   110.483100000000         5.212302081265829E-063
   110.722500000000         3.126045444078715E-063
   110.961900000000        -5.696076984550154E-064
   111.201300000000        -5.961439129810130E-063
   111.440700000000        -1.286072822813125E-062
   111.680100000000        -2.070714981601085E-062
   111.919500000000        -2.849622174393173E-062
   112.158900000000        -3.475471743826939E-062
   112.398300000000        -3.759097028267342E-062
   112.637700000000        -3.484574390562564E-062
   112.877100000000        -2.436283839076907E-062
   113.116500000000        -4.385636194484049E-063
   113.355900000000         2.593423176201948E-062
   113.595300000000         6.595659710449778E-062
   113.834700000000         1.129728971691679E-061
   114.074100000000         1.617317990559233E-061
   114.313500000000         2.042045331080629E-061
   114.552900000000         2.297425958449613E-061
   114.792300000000         2.257800172185776E-061
   115.031700000000         1.792045560293076E-061
   115.271100000000         7.845954756720135E-062
   115.510500000000        -8.366396824925471E-062
   115.749900000000        -3.067265419773424E-061
   115.989300000000        -5.791860692304700E-061
   116.228700000000        -8.753342351389663E-061
   116.468100000000        -1.153346713479768E-060
   116.707500000000        -1.355302407553879E-060
   116.946900000000        -1.410068176940768E-060
   117.186300000000        -1.239847025461663E-060
   117.425700000000        -7.709036308520831E-061
   117.665100000000         5.152281864726276E-062
   117.904500000000         1.244843264674722E-060
   118.143900000000         2.768946617041703E-060
   118.383300000000         4.506971443563609E-060
   118.622700000000         6.250842428253613E-060
   118.862100000000         7.696289943549697E-060
   119.101500000000         8.452544133541752E-060
   119.340900000000         8.071667048404129E-060
   119.580300000000         6.101279122283651E-060
   119.819700000000         2.162017740051946E-060
   120.059100000000        -3.952687058714543E-060
   120.298500000000        -1.216196366700950E-059
   120.537900000000        -2.198141516952251E-059
   120.777300000000        -3.242537532198268E-059
   121.016700000000        -4.195298856422617E-059
   121.256100000000        -4.848738530492266E-059
   121.495500000000        -4.953754541286091E-059
   121.734900000000        -4.244767520420887E-059
   121.974300000000        -2.478761418503428E-059
   122.213700000000         5.121004267536374E-060
   122.453100000000         4.757442053086645E-059
   122.692500000000         1.008163515763432E-058
   122.931900000000         1.604273891272958E-058
   123.171300000000         2.189081261018859E-058
   123.410700000000         2.656155283093381E-058
   123.650100000000         2.872208268917604E-058
   123.889500000000         2.688400896093088E-058
   124.128900000000         1.959371787770933E-058
   124.368300000000         5.700693983313962E-059
   124.607700000000        -1.530873710072318E-058
   124.847100000000        -4.294189737232324E-058
   125.086500000000        -7.534344998386807E-058
   125.325900000000        -1.090204166247692E-057
   125.565300000000        -1.387321410678762E-057
   125.804700000000        -1.576363450436099E-057
   126.044100000000        -1.577771610171492E-057
   126.283500000000        -1.309783604549291E-057
   126.522900000000        -7.016140026638846E-058
   126.762300000000         2.895794623877968E-058
   127.001700000000         1.659266780797486E-057
   127.241100000000         3.335974574086327E-057
   127.480500000000         5.164911555503266E-057
   127.719900000000         6.898996115642958E-057
   127.959300000000         8.201991556394813E-057
   128.198700000000         8.668344097673218E-057
   128.438100000000         7.863359722073111E-057
   128.677500000000         5.385359074015020E-057
   128.916900000000         9.483290470558959E-058
   129.156300000000        -5.520579183851945E-057
   129.395700000000        -1.377928248622002E-056
   129.635100000000        -2.318044570952175E-056
   129.874500000000        -3.261287494459589E-056
   130.113900000000        -4.049781173339521E-056
   130.353300000000        -4.486343564861834E-056
   130.592700000000        -4.351703148908012E-056
   130.832100000000        -3.432549993038862E-056
   131.071500000000        -1.560069813453236E-056
   131.310900000000         1.343325910928402E-056
   131.550300000000         5.213688112100291E-056
   131.789700000000         9.798727886432092E-056
   132.029100000000         1.462387657042700E-055
   132.268500000000         1.898213314568704E-055
   132.507900000000         2.195896333176041E-055
   132.747300000000         2.250207330477124E-055
   132.986700000000         1.954219930433445E-055
   133.226100000000         1.216487485746249E-055
   133.465500000000        -1.754727022354270E-057
   133.704900000000        -1.741827787317419E-055
   133.944300000000        -3.866705053341515E-055
   134.183700000000        -6.200838490002177E-055
   134.423100000000        -8.442906137999492E-055
   134.662500000000        -1.018833144424937E-054
   134.901900000000        -1.095574658188937E-054
   135.141300000000        -1.023644777481811E-054
   135.380700000000        -7.567527674602806E-055
   135.620100000000        -2.625701056648419E-055
   135.859500000000         4.665732630220197E-055
   136.098900000000         1.402940405481372E-054
   136.338300000000         2.474336536983190E-054
   136.577700000000         3.558889386808481E-054
   136.817100000000         4.485970215001730E-054
   137.056500000000         5.045426080803353E-054
   137.295900000000         5.006745951034306E-054
   137.535300000000         4.148764099615106E-054
   137.774700000000         2.299006876770080E-054
   138.014100000000        -6.201176783870798E-055
   138.253500000000        -4.543242156402513E-054
   138.492900000000        -9.219169331912765E-054
   138.732300000000        -1.418207656707577E-053