  -1.79550000000000         0.000000000000000E+000
  -1.55610000000000         0.000000000000000E+000
  -1.31670000000000         0.000000000000000E+000
  -1.07730000000000         0.000000000000000E+000
 -0.837900000000000         0.000000000000000E+000
 -0.598500000000000         0.000000000000000E+000
 -0.359100000000000         0.000000000000000E+000
 -0.119700000000000         0.000000000000000E+000
  0.119700000000000         0.000000000000000E+000
  0.359100000000000         0.000000000000000E+000
  0.598500000000000         0.000000000000000E+000
  0.837900000000000         0.000000000000000E+000
   1.07730000000000         0.000000000000000E+000
   1.31670000000000         0.000000000000000E+000
   1.55610000000000         0.000000000000000E+000
   1.79550000000000         0.000000000000000E+000
   2.03490000000000         0.000000000000000E+000
   2.27430000000000         0.000000000000000E+000
   2.51370000000000         0.000000000000000E+000
   2.75310000000000         0.000000000000000E+000
   2.99250000000000         0.000000000000000E+000
   3.23190000000000         0.000000000000000E+000
   3.47130000000000         0.000000000000000E+000
   3.71070000000000         0.000000000000000E+000
   3.95010000000000         0.000000000000000E+000
   4.18950000000000         0.000000000000000E+000
   4.42890000000000         0.000000000000000E+000
   4.66830000000000         0.000000000000000E+000
   4.90770000000000         0.000000000000000E+000
   5.14710000000000         0.000000000000000E+000
   5.38650000000000         0.000000000000000E+000
   5.62590000000000         0.000000000000000E+000
   5.86530000000000         0.000000000000000E+000
   6.10470000000000         0.000000000000000E+000
   6.34410000000000         0.000000000000000E+000
   6.58350000000000         0.000000000000000E+000
   6.82290000000000         0.000000000000000E+000
   7.06230000000000         0.000000000000000E+000
   7.30170000000000         0.000000000000000E+000
   7.54110000000000         0.000000000000000E+000
   7.78050000000000         0.000000000000000E+000
   8.01990000000000         0.000000000000000E+000
   8.25930000000000         0.000000000000000E+000
   8.49870000000000         0.000000000000000E+000
   8.73810000000000         0.000000000000000E+000
   8.97750000000000         0.000000000000000E+000
   9.21690000000000         4.027584080510810E-196
   9.45630000000000        -4.443023957545061E-189
   9.69570000000000        -8.069329218473017E-186
   9.93510000000000         4.718859356053736E-177
   10.1745000000000        -7.151883302644940E-171
   10.4139000000000        -4.457062841478496E-169
   10.6533000000000        -7.795655934416490E-168
   10.8927000000000         1.309292699993577E-165
   11.1321000000000         1.127419757180959E-163
   11.3715000000000         4.776622630292813E-162
   11.6109000000000         1.372343897460318E-160
   11.8503000000000         3.002430368087786E-159
   12.0897000000000         5.328939063849275E-158
   12.3291000000000         7.994035750740535E-157
   12.5685000000000         1.043487399103389E-155
   12.8079000000000         1.211348649529438E-154
   13.0473000000000         1.271751084933525E-153
   13.2867000000000         1.223363735698877E-152
   13.5261000000000         1.089248748482517E-151
   13.7655000000000         9.046939679893696E-151
   14.0049000000000         7.051439251121854E-150
   14.2443000000000         5.181732487879981E-149
   14.4837000000000         3.603485885216642E-148
   14.7231000000000         2.379136840611975E-147
   14.9625000000000         1.495730031297965E-146
   15.2019000000000         8.980162784765306E-146
   15.4413000000000         5.163994898941231E-145
   15.6807000000000         2.852660320971744E-144
   15.9201000000000         1.518310365734172E-143
   16.1595000000000         7.807980363109381E-143
   16.3989000000000         3.889312422261073E-142
   16.6383000000000         1.880369494571663E-141
   16.8777000000000         8.836070735276799E-141
   17.1171000000000         4.038524400725872E-140
   17.3565000000000         1.795252731621538E-139
   17.5959000000000         7.756723046080022E-139
   17.8353000000000         3.253555687525651E-138
   18.0747000000000         1.322700139543607E-137
   18.3141000000000         5.201638051609235E-137
   18.5535000000000         1.974304753962226E-136
   18.7929000000000         7.213447578742819E-136
   19.0323000000000         2.528970242606732E-135
   19.2717000000000         8.472854544532375E-135
   19.5111000000000         2.697132720945145E-134
   19.7505000000000         8.086199086078935E-134
   19.9899000000000         2.249523857408119E-133
   20.2293000000000         5.641436390122560E-133
   20.4687000000000         1.189695053595561E-132
   20.7081000000000         1.621401229049512E-132
   20.9475000000000        -1.900317201181203E-132
   21.1869000000000        -2.715923205570068E-131
   21.4263000000000        -1.439471997454453E-130
   21.6657000000000        -5.977676452048368E-130
   21.9051000000000        -2.187126522212198E-129
   22.1445000000000        -7.351080332612311E-129
   22.3839000000000        -2.314824652669916E-128
   22.6233000000000        -6.903768289731373E-128
   22.8627000000000        -1.962996790625788E-127
   23.1021000000000        -5.344251057918155E-127
   23.3415000000000        -1.397274882573338E-126
   23.5809000000000        -3.516085597721365E-126
   23.8203000000000        -8.530731968762076E-126
   24.0597000000000        -1.998724813375259E-125
   24.2991000000000        -4.529704546103037E-125
   24.5385000000000        -9.948445518491284E-125
   24.7779000000000        -2.122319495981049E-124
   25.0173000000000        -4.410202759125937E-124
   25.2567000000000        -8.955378237382914E-124
   25.4961000000000        -1.782349550701930E-123
   25.7355000000000        -3.482310132075012E-123
   25.9749000000000        -6.665011077235500E-123
   26.2143000000000        -1.238057935341643E-122
   26.4537000000000        -2.181060208787732E-122
   26.6931000000000        -3.452529420204147E-122
   26.9325000000000        -4.174297519894802E-122
   27.1719000000000        -5.127826564290957E-123
   27.4113000000000         2.020855473643519E-121
   27.6507000000000         9.436743783495257E-121
   27.8901000000000         3.164908034671970E-120
   28.1295000000000         9.126803694339209E-120
   28.3689000000000         2.383241302084863E-119
   28.6083000000000         5.749124757463321E-119
   28.8477000000000         1.290737503264039E-118
   29.0871000000000         2.696884016963047E-118
   29.3265000000000         5.206984048739374E-118
   29.5659000000000         9.124570563063940E-118
   29.8053000000000         1.391038315113271E-117
   30.0447000000000         1.627504231411371E-117
   30.2841000000000         5.958683786149493E-118
   30.5235000000000        -4.243490353638203E-117
   30.7629000000000        -1.831104404434705E-116
   31.0023000000000        -5.176516032156181E-116
   31.2417000000000        -1.210274697883537E-115
   31.4811000000000        -2.472260066173738E-115
   31.7205000000000        -4.447185844718255E-115
   31.9599000000000        -6.853922477410109E-115
   32.1993000000000        -8.128653421152936E-115
   32.4387000000000        -3.668887642510171E-115
   32.6781000000000         1.728862251068802E-114
   32.9175000000000         7.638095947111186E-114
   33.1569000000000         2.115506202541631E-113
   33.3963000000000         4.793677109413920E-113
   33.6357000000000         9.440130253738211E-113
   33.8751000000000         1.630833572538200E-112
   34.1145000000000         2.403579145700639E-112
   34.3539000000000         2.700336930485549E-112
   34.5933000000000         1.044232746713628E-112
   34.8327000000000        -5.739442187342702E-112
   35.0721000000000        -2.355399051174529E-111
   35.3115000000000        -6.193473894546039E-111
   35.5509000000000        -1.337226934975244E-110
   35.7903000000000        -2.510529635348812E-110
   36.0297000000000        -4.130494784879423E-110
   36.2691000000000        -5.778066365503588E-110
   36.5085000000000        -6.087676220997257E-110
   36.7479000000000        -1.862621005411570E-110
   36.9873000000000         1.315345355117261E-109
   37.2267000000000         4.955203594080869E-109
   37.4661000000000         1.226393230837802E-108
   37.7055000000000         2.497890324473546E-108
   37.9449000000000         4.407793027343132E-108
   38.1843000000000         6.747471762074906E-108
   38.4237000000000         8.553514088687057E-108
   38.6631000000000         7.362665189175336E-108
   38.9025000000000        -1.832253287737900E-108
   39.1419000000000        -2.770331829115509E-107
   39.3813000000000        -8.308177815007770E-107
   39.6207000000000        -1.832653627686324E-106
   39.8601000000000        -3.392912060771060E-106
   40.0995000000000        -5.417741631466979E-106
   40.3389000000000        -7.297569990746567E-106
   40.5783000000000        -7.398473817358911E-106
   40.8177000000000        -2.367182870068405E-106
   41.0571000000000         1.358435700602895E-105
   41.2965000000000         4.893502029520483E-105
   41.5359000000000         1.136422024278970E-104
   41.7753000000000         2.147065485821798E-104
   42.0147000000000         3.459477842712823E-104
   42.2541000000000         4.690105698984786E-104
   42.4935000000000         4.835843492008317E-104
   42.7329000000000         1.888799458209629E-104
   42.9723000000000        -7.519490955745173E-104
   43.2117000000000        -2.814658049991480E-103
   43.4511000000000        -6.525834442842882E-103
   43.6905000000000        -1.218901983268702E-102
   43.9299000000000        -1.929643984309755E-102
   44.1693000000000        -2.549493071438509E-102
   44.4087000000000        -2.505616920059741E-102
   44.6481000000000        -7.052104998723694E-103
   44.8875000000000         4.603240504595313E-102
   45.1269000000000         1.576008061527187E-101
   45.3663000000000         3.511870870582021E-101
   45.6057000000000         6.351491759466806E-101
   45.8451000000000         9.722979453191861E-101
   46.0845000000000         1.229871432477373E-100
   46.3239000000000         1.110654688087925E-100
   46.5633000000000         7.951142777330003E-102
   46.8027000000000        -2.674766475481297E-100
   47.0421000000000        -8.161842837737457E-100
   47.2815000000000        -1.726307010566364E-099
   47.5209000000000        -2.997111786866776E-099
   47.7603000000000        -4.399742582070202E-099
   47.9997000000000        -5.263750986080711E-099
   48.2391000000000        -4.207755888213796E-099
   48.4785000000000         1.104601037117148E-099
   48.7179000000000         1.399396967391573E-098
   48.9573000000000         3.823472553339673E-098
   49.1967000000000         7.644026289194862E-098
   49.4361000000000         1.267115527689346E-097
   49.6755000000000         1.769722435858594E-097
   49.9149000000000         1.969504071874011E-097
   50.1543000000000         1.291220342498606E-097
   50.3937000000000        -1.175047448462146E-097
   50.6331000000000        -6.628726687091621E-097
   50.8725000000000        -1.627540916089945E-096
   51.1119000000000        -3.062430859003405E-096
   51.3513000000000        -4.816905776237690E-096
   51.5907000000000        -6.332975638003230E-096
   51.8301000000000        -6.378883836278783E-096
   52.0695000000000        -2.789516895539610E-096
   52.3089000000000         7.626512761852146E-096
   52.5483000000000         2.872163616669741E-095
   52.7877000000000         6.374359623342406E-095
   53.0271000000000         1.126154389542865E-094
   53.2665000000000         1.672534461800536E-094
   53.5059000000000         2.048113589379188E-094
   53.7453000000000         1.797480838368593E-094
   53.9847000000000         1.751998029087481E-095
   54.2241000000000        -3.843286363605689E-094
   54.4635000000000        -1.138039018354230E-093
   54.7029000000000        -2.316984619049294E-093
   54.9423000000000        -3.861268064653520E-093
   55.1817000000000        -5.426526535659940E-093
   55.4211000000000        -6.180670638179816E-093
   55.6605000000000        -4.587658600476519E-093
   55.8999000000000         1.723167846490646E-093
   56.1393000000000         1.581747463263782E-092
   56.3787000000000         4.075843583442828E-092
   56.6181000000000         7.797586572506910E-092
   56.8575000000000         1.243187596702111E-091
   57.0969000000000         1.675880583873995E-091
   57.3363000000000         1.808640114790985E-091
   57.5757000000000         1.169670755740913E-091
   57.8151000000000        -9.394807337247664E-092
   58.0545000000000        -5.383951843762447E-091
   58.2939000000000        -1.297366204806421E-090
   58.5333000000000        -2.398324571038003E-090
   58.7727000000000        -3.732364463311287E-090
   59.0121000000000        -4.933294393132787E-090
   59.2515000000000        -5.229925147615821E-090
   59.4909000000000        -3.309844580744489E-090
   59.7303000000000         2.725244103757720E-090
   59.9697000000000         1.517786591225526E-089
   60.2091000000000         3.615473278122608E-089
   60.4485000000000         6.631998829338950E-089
   60.6879000000000         1.028001517093873E-088
   60.9273000000000         1.361912272075036E-088
   61.1667000000000         1.469736657391502E-088
   61.4061000000000         1.022753226323647E-088
   61.6455000000000        -4.512583717016628E-089
   61.8849000000000        -3.524595845465581E-088
   62.1243000000000        -8.729625152318924E-088
   62.3637000000000        -1.627195960081760E-087
   62.6031000000000        -2.555371724196713E-087
   62.8425000000000        -3.449789801471333E-087
   63.0819000000000        -3.874166527483622E-087
   63.3213000000000        -3.090010463833367E-087
   63.5607000000000        -2.988162923548076E-089
   63.8001000000000         6.618090008052075E-087
   64.0395000000000         1.812571774492862E-086
   64.2789000000000         3.513795900606948E-086
   64.5183000000000         5.669587253437807E-086
   64.7577000000000         7.884818511537659E-086
   64.9971000000000         9.297813556417803E-086
   65.2365000000000         8.422691084203578E-086
   65.4759000000000         3.076588387762874E-086
   65.7153000000000        -9.487090720980855E-086
   65.9547000000000        -3.207277900791468E-085
   66.1941000000000        -6.647127569306534E-085
   66.4335000000000        -1.116531150403357E-084
   66.6729000000000        -1.611722223039292E-084
   66.9123000000000        -1.999809344269192E-084
   67.1517000000000        -2.012971330274196E-084
   67.3911000000000        -1.248035410802152E-084
   67.6305000000000         8.174800340344685E-085
   67.8699000000000         4.746598572978136E-084
   68.1093000000000         1.096778738997426E-083
   68.3487000000000         1.947288485248953E-083
   68.5881000000000         2.937497025139550E-083
   68.8275000000000         3.835299357034715E-083
   69.0669000000000         4.207913759527297E-083
   69.3063000000000         3.382597572318689E-083
   69.5457000000000         4.576923048743579E-084
   69.7851000000000        -5.590703081845751E-083
   70.0245000000000        -1.565234557706276E-082
   70.2639000000000        -3.002522901142344E-082
   70.5033000000000        -4.772898277087756E-082
   70.7427000000000        -6.561794717577192E-082
   70.9821000000000        -7.742200573084151E-082
   71.2215000000000        -7.299030033104942E-082
   71.4609000000000        -3.819952393958502E-082
   71.7003000000000         4.381501460517644E-082
   71.9397000000000         1.893011515667069E-081
   72.1791000000000         4.076016273444372E-081
   72.4185000000000         6.914166777154874E-081
   72.6579000000000         1.003821498667229E-080
   72.8973000000000         1.263552150271670E-080
   73.1367000000000         1.332045288054837E-080
   73.3761000000000         1.008267677431720E-080
   73.6155000000000         4.014562082102941E-082
   73.8549000000000        -1.836341965674130E-080
   74.0943000000000        -4.818831029928511E-080
   74.3337000000000        -8.912354892194396E-080
   74.5731000000000        -1.375499413619778E-079
   74.8125000000000        -1.841096491414866E-079
   75.0519000000000        -2.117112688081308E-079
   75.2913000000000        -1.943322790942335E-079
   75.5307000000000        -9.770623565434642E-080
   75.7701000000000         1.166972320320928E-079
   76.0095000000000         4.828558906718651E-079
   76.2489000000000         1.015247786220826E-078
   76.4883000000000         1.687358014985299E-078
   76.7277000000000         2.404975255497947E-078
   76.9671000000000         2.978404961550925E-078
   77.2065000000000         3.101529629951682E-078
   77.4459000000000         2.350091633129827E-078
   77.6853000000000         2.157836608723783E-079
   77.9247000000000        -3.804811121700103E-078
   78.1641000000000        -1.004887955335656E-077
   78.4035000000000        -1.844426878024531E-077
   78.6429000000000        -2.819295773335684E-077
   78.8823000000000        -3.741891459588751E-077
   79.1217000000000        -4.285964448640360E-077
   79.3611000000000        -3.973114489922927E-077
   79.6005000000000        -2.194698774231564E-077
   79.8399000000000         1.709120642329212E-077
   80.0793000000000         8.291496612917499E-077
   80.3187000000000         1.774708542694443E-076
   80.5581000000000         2.956749274087193E-076
   80.7975000000000         4.213378832701314E-076
   81.0369000000000         5.231785710807190E-076
   81.2763000000000         5.521744623493671E-076
   81.5157000000000         4.420683508788537E-076
   81.7551000000000         1.153233789352567E-076
   81.9945000000000        -5.030192532735975E-076
   82.2339000000000        -1.461555688402001E-075
   82.4733000000000        -2.748126630038870E-075
   82.7127000000000        -4.246685267253237E-075
   82.9521000000000        -5.691216783150257E-075
   83.1915000000000        -6.627685885491322E-075
   83.4309000000000        -6.400888435950739E-075
   83.6703000000000        -4.188541706885548E-075
   83.9097000000000         8.919067845683710E-076
   84.1491000000000         9.580015240185786E-075
   84.3885000000000         2.215858282696845E-074
   84.6279000000000         3.803600640350799E-074
   84.8673000000000         5.526515461260786E-074
   85.1067000000000         7.008603292425784E-074
   85.3461000000000         7.663585624834019E-074
   85.5855000000000         6.702712683920116E-074
   85.8249000000000         3.203671649303019E-074
   86.0643000000000        -3.734511480928872E-074
   86.3037000000000        -1.473145721011287E-073
   86.5431000000000        -2.975620606465028E-073
   86.7825000000000        -4.767131232344221E-073
   87.0219000000000        -6.575189036172229E-073
   87.2613000000000        -7.929090880859068E-073
   87.5007000000000        -8.145621168135023E-073
   87.7401000000000        -6.361209159228776E-073
   87.9795000000000        -1.634151126077221E-073
   88.2189000000000         6.861822015846681E-073
   88.4583000000000         1.954086598181146E-072
   88.6977000000000         3.601250110857461E-072
   88.9371000000000         5.463045832081049E-072
   89.1765000000000         7.206042416765287E-072
   89.4159000000000         8.299132701302407E-072
   89.6553000000000         8.016100512593699E-072
   89.8947000000000         5.489986999504991E-072
   90.1341000000000        -1.601697364491796E-073
   90.3735000000000        -9.614555580280511E-072
   90.6129000000000        -2.304620063801550E-071
   90.8523000000000        -3.974032333165403E-071
   91.0917000000000        -5.768676336947489E-071
   91.3311000000000        -7.323036378211083E-071
   91.5705000000000        -8.090445521840310E-071
   91.8099000000000        -7.360737890223676E-071
   92.0493000000000        -4.329908768322398E-071
   92.2887000000000         1.762112519982583E-071
   92.5281000000000         1.141606467469929E-070
   92.7675000000000         2.458390488070870E-070
   93.0069000000000         4.032929046913447E-070
   93.2463000000000         5.648925424307278E-070
   93.4857000000000         6.942007448949056E-070
   93.7251000000000         7.394156398737623E-070
   93.9645000000000         6.361682785497842E-070
   94.2039000000000         3.150832923698966E-070
   94.4433000000000        -2.847663080973605E-070
   94.6827000000000        -1.196096037488881E-069
   94.9221000000000        -2.398174666588936E-069
   95.1615000000000        -3.788759210694383E-069
   95.4009000000000        -5.158109015636507E-069
   95.6403000000000        -6.172452670849735E-069
   95.8797000000000        -6.376482136274828E-069
   96.1191000000000        -5.225712537700861E-069
   96.3585000000000        -2.159027287574314E-069
   96.5979000000000         3.281496665193486E-069
   96.8373000000000         1.128314909940859E-068
   97.0767000000000         2.155798365087499E-068
   97.3161000000000         3.312615638249202E-068
   97.5555000000000         4.412969360287647E-068
   97.7949000000000         5.173687815608711E-068
   98.0343000000000         5.221160877533920E-068
   98.2737000000000         4.122748687594108E-068
   98.5131000000000         1.449683164105687E-068
   98.7525000000000        -3.124596300052464E-068
   98.9919000000000        -9.692434592122858E-068
   99.2313000000000        -1.795655997550385E-067
   99.4707000000000        -2.707257156333730E-067
   99.7101000000000        -3.552301177038848E-067
   99.9495000000000        -4.106858116288410E-067
   100.188900000000        -4.083043554837979E-067
   100.428300000000        -3.155865907538210E-067
   100.667700000000        -1.013173449641552E-067
   100.907100000000         2.569383477902172E-067
   101.146500000000         7.630840458044416E-067
   101.385900000000         1.391354578304691E-066
   101.625300000000         2.075432504279147E-066
   101.864700000000         2.700291569923122E-066
   102.104100000000         3.099990427718363E-066
   102.343500000000         3.065102217437606E-066
   102.582900000000         2.363389837584721E-066
   102.822300000000         7.764558454041380E-067
   103.061700000000        -1.846825748108811E-066
   103.301100000000        -5.522389435941644E-066
   103.540500000000        -1.005510605215483E-065
   103.779900000000        -1.496658279293956E-065
   104.019300000000        -1.944356997170996E-065
   104.258700000000        -2.232845356780172E-065
   104.498100000000        -2.217576022365683E-065
   104.737500000000        -1.739737948292780E-065
   104.976900000000        -6.512705092987562E-066
   105.216300000000         1.149322736033746E-065
   105.455700000000         3.672093689904273E-065
   105.695100000000         6.786156162210175E-065
   105.934500000000         1.017322214116364E-064
   106.173900000000         1.329506104967131E-064
   106.413300000000         1.538846367810053E-064
   106.652700000000         1.550260443461674E-064
   106.892100000000         1.259269188759981E-064
   107.131500000000         5.679541462664126E-065
   107.370900000000        -5.923552936047381E-065
   107.610300000000        -2.232785244262323E-064
   107.849700000000        -4.275785094727077E-064
   108.089100000000        -6.525850605838456E-064
   108.328500000000        -8.648727467473582E-064
   108.567900000000        -1.016730496095989E-063
   108.807300000000        -1.048317042462966E-063
   109.046700000000        -8.932193195066290E-064
   109.286100000000        -4.880008472640582E-064
   109.525500000000         2.141544860283737E-064
   109.764900000000         1.226329217801947E-063
   110.004300000000         2.508875737031870E-063
   110.243700000000         3.951237205843598E-063
   110.483100000000         5.358418874325007E-063
   110.722500000000         6.446887442353678E-063
   110.961900000000         6.855169432949897E-063
   111.201300000000         6.174159276333418E-063
   111.440700000000         4.000832377596807E-063
   111.680100000000         1.644260070417342E-065
   111.919500000000        -5.913750954309189E-063
   112.158900000000        -1.362754837029033E-062
   112.398300000000        -2.255430966375257E-062
   112.637700000000        -3.162610494163437E-062
   112.877100000000        -3.923845184576613E-062
   113.116500000000        -4.329103196313460E-062
   113.355900000000        -4.133829445568509E-062
   113.595300000000        -3.087372179547967E-062
   113.834700000000        -9.758275762051537E-063
   114.074100000000         2.321770136911790E-062
   114.313500000000         6.767890962592453E-062
   114.552900000000         1.209908318212584E-061
   114.792300000000         1.776796645164920E-061
   115.031700000000         2.290943040655134E-061
   115.271100000000         2.634828059433245E-061
   115.510500000000         2.666607354406894E-061
   115.749900000000         2.234244979455813E-061
   115.989300000000         1.198000671419379E-061
   116.228700000000        -5.388979200196772E-062
   116.468100000000        -2.993099646425991E-061
   116.707500000000        -6.061121984160803E-061
   116.946900000000        -9.482287573793964E-061
   117.186300000000        -1.281252841535321E-060
   117.425700000000        -1.541867513170440E-060
   117.665100000000        -1.650361499987298E-060
   117.904500000000        -1.517198387602131E-060
   118.143900000000        -1.054330544861042E-060
   118.383300000000        -1.914267473625638E-061
   118.622700000000         1.103607382317214E-060
   118.862100000000         2.801476607285266E-060
   119.101500000000         4.788591007288810E-060
   119.340900000000         6.848554738425055E-060
   119.580300000000         8.653305190064708E-060
   119.819700000000         9.769847182174470E-060
   120.059100000000         9.688479284001580E-060
   120.298500000000         7.877300618461946E-060
   120.537900000000         3.865331080237427E-060
   120.777300000000        -2.647400964705433E-060
   121.016700000000        -1.165993862392788E-059
   121.256100000000        -2.273449188925691E-059
   121.495500000000        -3.487569870792484E-059
   121.734900000000        -4.645306863293470E-059
   121.974300000000        -5.519964559570003E-059
   122.213700000000        -5.832137830472912E-059
   122.453100000000        -5.274770875240361E-059
   122.692500000000        -3.554274575455027E-059
   122.931900000000        -4.476839617650477E-060
   123.171300000000         4.126988815959895E-059
   123.410700000000         1.003363711599325E-058
   123.650100000000         1.684466031141100E-058
   123.889500000000         2.378577030757074E-058
   124.128900000000         2.971672380190471E-058
   124.368300000000         3.316724242741796E-058
   124.607700000000         3.244621608111543E-058
   124.847100000000         2.583741910359171E-058
   125.086500000000         1.188563561924707E-058
   125.325900000000        -1.023702474868432E-058
   125.565300000000        -4.031333986069245E-058
   125.804700000000        -7.666197389198344E-058
   126.044100000000        -1.157896218675728E-057
   126.283500000000        -1.522056785869944E-057
   126.522900000000        -1.785020608533929E-057
   126.762300000000        -1.857989570345412E-057
   127.001700000000        -1.646369961942651E-057
   127.241100000000        -1.063532635699576E-057
   127.480500000000        -4.910533587011769E-059
   127.719900000000         1.409427017075388E-057
   127.959300000000         3.254134004299730E-057
   128.198700000000         5.336540574277224E-057
   128.438100000000         7.404537158265664E-057
   128.677500000000         9.101517209205830E-057
   128.916900000000         9.983047082904056E-057
   129.156300000000         9.555577156936191E-057
   129.395700000000         7.339793769675745E-057
   129.635100000000         2.958056702534046E-057
   129.874500000000        -3.759003636043272E-057
   130.113900000000        -1.265698782093846E-056
   130.353300000000        -2.314935589399289E-056
   130.592700000000        -3.413760080949692E-056
   130.832100000000        -4.398531057096445E-056
   131.071500000000        -5.057265017616701E-056
   131.310900000000        -5.145492483777856E-056
   131.550300000000        -4.414080571464182E-056
   131.789700000000        -2.649178615704235E-056
   132.029100000000         2.775503405595050E-057
   132.268500000000         4.352733486216215E-056
   132.507900000000         9.366195690714459E-056
   132.747300000000         1.486668512946310E-055
   132.986700000000         2.014018838903893E-055
   133.226100000000         2.422349015637843E-055
   133.465500000000         2.596473047079196E-055
   133.704900000000         2.413947382654811E-055
   133.944300000000         1.762485902511617E-055
   134.183700000000         5.625690031148939E-056
   134.423100000000        -1.206475566501426E-055
   134.662500000000        -3.479894455759261E-055
   134.901900000000        -6.084648662008021E-055
   135.141300000000        -8.725505919167895E-055
   135.380700000000        -1.098585985659094E-054
   135.620100000000        -1.234883816976772E-054
   135.859500000000        -1.224304552251420E-054
   136.098900000000        -1.011488538641829E-054
   136.338300000000        -5.525766861069390E-055
   136.577700000000         1.732237952657227E-055
   136.817100000000         1.151419552296962E-054
   137.056500000000         2.321106334208551E-054
   137.295900000000         3.567169559785607E-054
   137.535300000000         4.718336295563776E-054
   137.774700000000         5.553597810681321E-054
   138.014100000000         5.819100788161292E-054
   138.253500000000         5.256685466269587E-054
   138.492900000000         3.643796443675769E-054
   138.732300000000         8.425471901497553E-055