  -1.79550000000000         0.000000000000000E+000
  -1.55610000000000         0.000000000000000E+000
  -1.31670000000000         0.000000000000000E+000
  -1.07730000000000         0.000000000000000E+000
 -0.837900000000000         0.000000000000000E+000
 -0.598500000000000         0.000000000000000E+000
 -0.359100000000000         0.000000000000000E+000
 -0.119700000000000         0.000000000000000E+000
  0.119700000000000         0.000000000000000E+000
  0.359100000000000         0.000000000000000E+000
  0.598500000000000         0.000000000000000E+000
  0.837900000000000         0.000000000000000E+000
   1.07730000000000         0.000000000000000E+000
   1.31670000000000         0.000000000000000E+000
   1.55610000000000         0.000000000000000E+000
   1.79550000000000         0.000000000000000E+000
   2.03490000000000         0.000000000000000E+000
   2.27430000000000         0.000000000000000E+000
   2.51370000000000         0.000000000000000E+000
   2.75310000000000         0.000000000000000E+000
   2.99250000000000         0.000000000000000E+000
   3.23190000000000         0.000000000000000E+000
   3.47130000000000         0.000000000000000E+000
   3.71070000000000         0.000000000000000E+000
   3.95010000000000         0.000000000000000E+000
   4.18950000000000         0.000000000000000E+000
   4.42890000000000         0.000000000000000E+000
   4.66830000000000         0.000000000000000E+000
   4.90770000000000         0.000000000000000E+000
   5.14710000000000         0.000000000000000E+000
   5.38650000000000         0.000000000000000E+000
   5.62590000000000         0.000000000000000E+000
   5.86530000000000         0.000000000000000E+000
   6.10470000000000         0.000000000000000E+000
   6.34410000000000         0.000000000000000E+000
   6.58350000000000         0.000000000000000E+000
   6.82290000000000         0.000000000000000E+000
   7.06230000000000         0.000000000000000E+000
   7.30170000000000         0.000000000000000E+000
   7.54110000000000         0.000000000000000E+000
   7.78050000000000         0.000000000000000E+000
   8.01990000000000         0.000000000000000E+000
   8.25930000000000         0.000000000000000E+000
   8.49870000000000         0.000000000000000E+000
   8.73810000000000         0.000000000000000E+000
   8.97750000000000         1.052318046871369E-188
   9.21690000000000         9.961684533683441E-187
   9.45630000000000        -1.264416459485103E-182
   9.69570000000000        -1.855425198819683E-171
   9.93510000000000        -1.564462712134573E-169
   10.1745000000000         2.924993702687830E-167
   10.4139000000000         2.488754725761053E-165
   10.6533000000000         6.090156818567144E-164
   10.8927000000000        -7.327070941884363E-163
   11.1321000000000        -9.674252992517241E-161
   11.3715000000000        -3.606826639132987E-159
   11.6109000000000        -8.873952087186957E-158
   11.8503000000000        -1.678006642352705E-156
   12.0897000000000        -2.604593401118209E-155
   12.3291000000000        -3.446993372516299E-154
   12.5685000000000        -3.989718934450411E-153
   12.8079000000000        -4.115062110049779E-152
   13.0473000000000        -3.838285298098195E-151
   13.2867000000000        -3.277273918967080E-150
   13.5261000000000        -2.588472909453922E-149
   13.7655000000000        -1.908650254645100E-148
   14.0049000000000        -1.324677302888342E-147
   14.2443000000000        -8.715984050000550E-147
   14.4837000000000        -5.470245234331904E-146
   14.7231000000000        -3.290999652820265E-145
   14.9625000000000        -1.904885990183115E-144
   15.2019000000000        -1.063315504652438E-143
   15.4413000000000        -5.731086547996317E-143
   15.6807000000000        -2.983486756471292E-142
   15.9201000000000        -1.499625428978624E-141
   16.1595000000000        -7.273194258149602E-141
   16.3989000000000        -3.401086831943560E-140
   16.6383000000000        -1.532325593736795E-139
   16.8777000000000        -6.647841417891672E-139
   17.1171000000000        -2.776166055923791E-138
   17.3565000000000        -1.115767479996024E-137
   17.5959000000000        -4.316029650597637E-137
   17.8353000000000        -1.607278129453968E-136
   18.0747000000000        -5.765184171363861E-136
   18.3141000000000        -1.993432424108728E-135
   18.5535000000000        -6.652428290646984E-135
   18.7929000000000        -2.146401190069864E-134
   19.0323000000000        -6.712412799006802E-134
   19.2717000000000        -2.041697161385228E-133
   19.5111000000000        -6.068280866229248E-133
   19.7505000000000        -1.772733185121543E-132
   19.9899000000000        -5.124472864446213E-132
   20.2293000000000        -1.475731722553112E-131
   20.4687000000000        -4.256208378474203E-131
   20.7081000000000        -1.232286986683179E-130
   20.9475000000000        -3.576028470714458E-130
   21.1869000000000        -1.034701894746921E-129
   21.4263000000000        -2.961916551853260E-129
   21.6657000000000        -8.313221527505623E-129
   21.9051000000000        -2.266481201083494E-128
   22.1445000000000        -5.944828133129852E-128
   22.3839000000000        -1.483971643854300E-127
   22.6233000000000        -3.475329878015768E-127
   22.8627000000000        -7.461393731376760E-127
   23.1021000000000        -1.401065334272765E-126
   23.3415000000000        -2.010067870379647E-126
   23.5809000000000        -7.500742124237324E-127
   23.8203000000000         9.211738075941854E-126
   24.0597000000000         4.906991584279295E-125
   24.2991000000000         1.772169145957315E-124
   24.5385000000000         5.403256235345182E-124
   24.7779000000000         1.477513542669816E-123
   25.0173000000000         3.710501381254201E-123
   25.2567000000000         8.640547192637273E-123
   25.4961000000000         1.869335447543241E-122
   25.7355000000000         3.740873399062784E-122
   25.9749000000000         6.840810828553362E-122
   26.2143000000000         1.113551711908358E-121
   26.4537000000000         1.517818624582111E-121
   26.6931000000000         1.417902488568931E-121
   26.9325000000000        -2.442325673643852E-122
   27.1719000000000        -5.083790478038412E-121
   27.4113000000000        -1.386469235474846E-120
   27.6507000000000        -2.066904426210203E-120
   27.8901000000000         4.341298696602500E-121
   28.1295000000000         1.575314214485276E-119
   28.3689000000000         6.936095630620242E-119
   28.6083000000000         2.198772577005999E-118
   28.8477000000000         5.867787312353125E-118
   29.0871000000000         1.383905443947660E-117
   29.3265000000000         2.932839741253068E-117
   29.5659000000000         5.579784231359204E-117
   29.8053000000000         9.341292265588218E-117
   30.0447000000000         1.294964091417658E-116
   30.2841000000000         1.180482560921336E-116
   30.5235000000000        -5.619799801295132E-117
   30.7629000000000        -6.251941622550639E-116
   31.0023000000000        -1.961744386532374E-115
   31.2417000000000        -4.464534161414396E-115
   31.4811000000000        -8.007694995447108E-115
   31.7205000000000        -1.030826832922897E-114
   31.9599000000000        -2.972527188313170E-115
   32.1993000000000         3.685176445961264E-114
   32.4387000000000         1.621027248126127E-113
   32.6781000000000         4.814666852216266E-113
   32.9175000000000         1.194460693837798E-112
   33.1569000000000         2.623935566619108E-112
   33.3963000000000         5.206005956553469E-112
   33.6357000000000         9.339532339681125E-112
   33.8751000000000         1.489307219301434E-111
   34.1145000000000         2.000504470347736E-111
   34.3539000000000         1.860752043583161E-111
   34.5933000000000        -4.056847988943730E-112
   34.8327000000000        -7.852704249883276E-111
   35.0721000000000        -2.604775726461338E-110
   35.3115000000000        -6.392310289577172E-110
   35.5509000000000        -1.336201872406324E-109
   35.7903000000000        -2.472504099724660E-109
   36.0297000000000        -4.066171361245047E-109
   36.2691000000000        -5.793776710270166E-109
   36.5085000000000        -6.525496634684415E-109
   36.7479000000000        -3.537673396465620E-109
   36.9873000000000         8.630843204218371E-109
   37.2267000000000         3.949654316066402E-108
   37.4661000000000         1.034352103830701E-107
   37.7055000000000         2.183087031712151E-107
   37.9449000000000         3.986439338452670E-107
   38.1843000000000         6.378646564536624E-107
   38.4237000000000         8.717380398941530E-107
   38.6631000000000         9.143280678790977E-107
   38.9025000000000         3.618154819476911E-107
   39.1419000000000        -1.525155649713243E-106
   39.3813000000000        -5.913741433776084E-106
   39.6207000000000        -1.434972554065624E-105
   39.8601000000000        -2.833877137230414E-105
   40.0995000000000        -4.817847310960773E-105
   40.3389000000000        -7.050959410378429E-105
   40.5783000000000        -8.401226487474863E-105
   40.8177000000000        -6.296818039909312E-105
   41.0571000000000         4.056333148638665E-105
   41.2965000000000         3.028806702671919E-104
   41.5359000000000         8.257413580568392E-104
   41.7753000000000         1.710477721567742E-103
   42.0147000000000         2.986812125717692E-103
   42.2541000000000         4.466763010341820E-103
   42.4935000000000         5.494768038486602E-103
   42.7329000000000         4.587226528992041E-103
   42.9723000000000        -9.807053934416543E-104
   43.2117000000000        -1.544825520791608E-102
   43.4511000000000        -4.427773162151243E-102
   43.6905000000000        -9.254225709355520E-102
   43.9299000000000        -1.608615334790079E-101
   44.1693000000000        -2.375221101327970E-101
   44.4087000000000        -2.857217989174406E-101
   44.6481000000000        -2.263985262639416E-101
   44.8875000000000         7.917563192283217E-102
   45.1269000000000         8.358205355361112E-101
   45.3663000000000         2.287618908943390E-100
   45.6057000000000         4.621281197501843E-100
   45.8451000000000         7.749918993981103E-100
   46.0845000000000         1.092566731094291E-099
   46.3239000000000         1.215886080717469E-099
   46.5633000000000         7.512273141811066E-100
   46.8027000000000        -9.469871954443972E-100
   47.0421000000000        -4.761160048025524E-099
   47.2815000000000        -1.161814914252485E-098
   47.5209000000000        -2.196200225980360E-098
   47.7603000000000        -3.470051346504338E-098
   47.9997000000000        -4.546967858485762E-098
   48.2391000000000        -4.424938095902539E-098
   48.4785000000000        -1.282535059839284E-098
   48.7179000000000         7.654353196447561E-098
   48.9573000000000         2.585493259850297E-097
   49.1967000000000         5.639233777140209E-097
   49.4361000000000         9.941429021267931E-097
   49.6755000000000         1.475343048997409E-096
   49.9149000000000         1.788006366188760E-096
   50.1543000000000         1.478533142380459E-096
   50.3937000000000        -2.211315963344213E-097
   50.6331000000000        -4.405436567496457E-096
   50.8725000000000        -1.232953667255394E-095
   51.1119000000000        -2.490075746284306E-095
   51.3513000000000        -4.162102375697849E-095
   51.5907000000000        -5.879371319100755E-095
   51.8301000000000        -6.696436792814334E-095
   52.0695000000000        -4.796225965795807E-095
   52.3089000000000         2.733439237106729E-095
   52.5483000000000         1.981944848856944E-094
   52.7877000000000         5.063050152721199E-094
   53.0271000000000         9.756289361109555E-094
   53.2665000000000         1.573577172594418E-093
   53.5059000000000         2.148817197553548E-093
   53.7453000000000         2.347413168542706E-093
   53.9847000000000         1.523204496783819E-093
   54.2241000000000        -1.316650148479573E-093
   54.4635000000000        -7.453045452354792E-093
   54.7029000000000        -1.816000487865461E-092
   54.9423000000000        -3.400959011445902E-092
   55.1817000000000        -5.360440068576993E-092
   55.4211000000000        -7.163646516221533E-092
   55.6605000000000        -7.638937533944863E-092
   55.8999000000000        -4.724524608326153E-092
   56.1393000000000         4.650395256000685E-092
   56.3787000000000         2.432071824758177E-091
   56.6181000000000         5.792474389403121E-091
   56.8575000000000         1.067822177162775E-090
   57.0969000000000         1.661761240575517E-090
   57.3363000000000         2.198445182977825E-090
   57.5757000000000         2.331323808094957E-090
   57.8151000000000         1.464879061903442E-090
   58.0545000000000        -1.270532518272103E-090
   58.2939000000000        -6.941202582726001E-090
   58.5333000000000        -1.653854501639247E-089
   58.7727000000000        -3.040197320040468E-089
   59.0121000000000        -4.723301673944764E-089
   59.2515000000000        -6.266507635391180E-089
   59.4909000000000        -6.751966125359017E-089
   59.7303000000000        -4.618631055367606E-089
   59.9697000000000         2.396535483810473E-089
   60.2091000000000         1.706182175823956E-088
   60.4485000000000         4.198152692574482E-088
   60.6879000000000         7.819515154368314E-088
   60.9273000000000         1.228116997018097E-087
   61.1667000000000         1.656066374766353E-087
   61.4061000000000         1.848892957646574E-087
   61.6455000000000         1.436315462634704E-087
   61.8849000000000        -1.212054600100303E-088
   62.1243000000000        -3.492076523969315E-087
   62.3637000000000        -9.329769644995715E-087
   62.6031000000000        -1.796970241349256E-086
   62.8425000000000        -2.891630980869656E-086
   63.0819000000000        -4.010284909572199E-086
   63.3213000000000        -4.698362554833018E-086
   63.5607000000000        -4.165553247402411E-086
   63.8001000000000        -1.241123292010520E-086
   64.0395000000000         5.561135655788046E-086
   64.2789000000000         1.777463195788771E-085
   64.5183000000000         3.639655533607759E-085
   64.7577000000000         6.088559186329543E-085
   64.9971000000000         8.769589819671799E-085
   65.2365000000000         1.084419034107811E-084
   65.4759000000000         1.080372765982789E-084
   65.7153000000000         6.352457120213577E-085
   65.9547000000000        -5.520888362103121E-085
   66.1941000000000        -2.811273957080686E-084
   66.4335000000000        -6.400916150264310E-084
   66.6729000000000        -1.133255285656617E-083
   66.9123000000000        -1.710726301231979E-083
   67.1517000000000        -2.237653101774499E-083
   67.3911000000000        -2.457973269501595E-083
   67.6305000000000        -1.967241104461602E-083
   67.8699000000000        -2.139925270885634E-084
   68.1093000000000         3.442168766583144E-083
   68.3487000000000         9.580751422527599E-083
   68.5881000000000         1.844326106595978E-082
   68.8275000000000         2.950525540309226E-082
   69.0669000000000         4.090637532267893E-082
   69.3063000000000         4.880752888200702E-082
   69.5457000000000         4.683770400373470E-082
   69.7851000000000         2.591677092032819E-082
   70.0245000000000        -2.512038899802389E-082
   70.2639000000000        -1.175543709152179E-081
   70.5033000000000        -2.588848345810542E-081
   70.7427000000000        -4.465582235671535E-081
   70.9821000000000        -6.592839241746412E-081
   71.2215000000000        -8.467112610543746E-081
   71.4609000000000        -9.195235281448432E-081
   71.7003000000000        -7.437547351262501E-081
   71.9397000000000        -1.451710190918980E-081
   72.1791000000000         1.068555240056449E-080
   72.4185000000000         3.059189771375647E-080
   72.6579000000000         5.875224058601954E-080
   72.8973000000000         9.332183713856290E-080
   73.1367000000000         1.286279133695427E-079
   73.3761000000000         1.535990867901525E-079
   73.6155000000000         1.505781020442300E-079
   73.8549000000000         9.524725300092567E-080
   74.0943000000000        -4.133136375042807E-080
   74.3337000000000        -2.873768115069813E-079
   74.5731000000000        -6.606134691417020E-079
   74.8125000000000        -1.153372908583422E-078
   75.0519000000000        -1.712945892084694E-078
   75.2913000000000        -2.219391459581462E-078
   75.5307000000000        -2.465688188160647E-078
   75.7701000000000        -2.148489256920227E-078
   76.0095000000000        -8.813328568937656E-079
   76.2489000000000         1.754987419335603E-078
   76.4883000000000         6.109567130927918E-078
   76.7277000000000         1.229435451112223E-077
   76.9671000000000         1.995144769286336E-077
   77.2065000000000         2.797221287006042E-077
   77.4459000000000         3.421468297935949E-077
   77.6853000000000         3.530383979178309E-077
   77.9247000000000         2.664242312874876E-077
   78.1641000000000         2.798722912264665E-078
   78.4035000000000        -4.154262384656237E-077
   78.6429000000000        -1.099014647960547E-076
   78.8823000000000        -2.015153805251178E-076
   79.1217000000000        -3.081431537551748E-076
   79.3611000000000        -4.105421489840233E-076
   79.6005000000000        -4.753977758407006E-076
   79.8399000000000        -4.539539630516958E-076
   80.0793000000000        -2.840614595357179E-076
   80.3187000000000         1.023122585717663E-076
   80.5581000000000         7.640826916499341E-076
   80.7975000000000         1.727138627585623E-075
   81.0369000000000         2.951578937181675E-075
   81.2763000000000         4.292715047920753E-075
   81.5157000000000         5.462188286626388E-075
   81.7551000000000         6.000252974931461E-075
   81.9945000000000         5.275337903692411E-075
   82.2339000000000         2.531263078620241E-075
   82.4733000000000        -2.995816517208815E-075
   82.7127000000000        -1.187187495566809E-074
   82.9521000000000        -2.416277322183592E-074
   83.1915000000000        -3.904793653393344E-074
   83.4309000000000        -5.439473426880273E-074
   83.6703000000000        -6.638123067091069E-074
   83.9097000000000        -6.930448181639041E-074
   84.1491000000000        -5.575890268458086E-074
   84.3885000000000        -1.740010000399350E-074
   84.6279000000000         5.349584568979886E-074
   84.8673000000000         1.615331007348623E-073
   85.1067000000000         3.047617092389536E-073
   85.3461000000000         4.705645414935396E-073
   85.5855000000000         6.314787226412966E-073
   85.8249000000000         7.420042717778784E-073
   86.0643000000000         7.379156582348984E-073
   86.3037000000000         5.399729134179481E-073
   86.5431000000000         6.407328336626986E-074
   86.7825000000000        -7.604036703247954E-073
   87.0219000000000        -1.963238617307956E-072
   87.2613000000000        -3.497951198346738E-072
   87.5007000000000        -5.201960636172952E-072
   87.7401000000000        -6.759521603942773E-072
   87.9795000000000        -7.678679296397997E-072
   88.2189000000000        -7.297340202258277E-072
   88.4583000000000        -4.836106981803415E-072
   88.6977000000000         4.847051313854244E-073
   88.9371000000000         9.251196714945111E-072
   89.1765000000000         2.158344028020060E-071
   89.4159000000000         3.680114350526701E-071
   89.6553000000000         5.307008646571844E-071
   89.8947000000000         6.710394517827431E-071
   90.1341000000000         7.402989406273340E-071
   90.3735000000000         6.755485679103314E-071
   90.6129000000000         4.058218855986818E-071
   90.8523000000000        -1.358686550402622E-071
   91.0917000000000        -9.939012932442398E-071
   91.3311000000000        -2.165146606559682E-070
   91.5705000000000        -3.569867554812056E-070
   91.8099000000000        -5.022759922253575E-070
   92.0493000000000        -6.211102089498615E-070
   92.2887000000000        -6.689548001683938E-070
   92.5281000000000        -5.902954753022700E-070
   92.7675000000000        -3.248924603160784E-070
   93.0069000000000         1.810541542104187E-070
   93.2463000000000         9.584724791669275E-070
   93.4857000000000         1.994378696107295E-069
   93.7251000000000         3.208346930428731E-069
   93.9645000000000         4.430435514862589E-069
   94.2039000000000         5.386504816592593E-069
   94.4433000000000         5.698646651442091E-069
   94.6827000000000         4.909499356344096E-069
   94.9221000000000         2.538885216304343E-069
   95.1615000000000        -1.821241005991989E-069
   95.4009000000000        -8.372749244254454E-069
   95.6403000000000        -1.694576485749543E-068
   95.8797000000000        -2.682053392437704E-068
   96.1191000000000        -3.656927523007017E-068
   96.3585000000000        -4.396455487144099E-068
   96.5979000000000        -4.601220356227967E-068
   96.8373000000000        -3.917184949495523E-068
   97.0767000000000        -1.982209394095465E-068
   97.3161000000000         1.499455908436112E-068
   97.5555000000000         6.655357782214632E-068
   97.7949000000000         1.332267335143240E-067
   98.0343000000000         2.092089539267342E-067
   98.2737000000000         2.834400881308275E-067
   98.5131000000000         3.390602421712942E-067
   98.7525000000000         3.538066266413802E-067
   98.9919000000000         3.017790487692769E-067
   99.2313000000000         1.569395938564453E-067
   99.4707000000000        -1.014599365847813E-067
   99.7101000000000        -4.816333150887653E-067
   99.9495000000000        -9.707495978259255E-067
   100.188900000000        -1.526266160140572E-066
   100.428300000000        -2.068830825996667E-066
   100.667700000000        -2.479057593626837E-066
   100.907100000000        -2.600881204900552E-066
   101.146500000000        -2.254244319823735E-066
   101.385900000000        -1.259377381776100E-066
   101.625300000000         5.262791009449810E-067
   101.864700000000         3.159502756842878E-066
   102.104100000000         6.554939646158764E-066
   102.343500000000         1.042839904003193E-065
   102.582900000000         1.425105656390431E-065
   102.822300000000         1.722933326334452E-065
   103.061700000000         1.832751368584039E-065
   103.301100000000         1.635019755420573E-065
   103.540500000000         1.009832571511641E-065
   103.779900000000        -1.395214341750026E-066
   104.019300000000        -1.855712918569955E-065
   104.258700000000        -4.091678771917157E-065
   104.498100000000        -6.674670884951441E-065
   104.737500000000        -9.276939208912254E-065
   104.976900000000        -1.140202243830763E-064
   105.216300000000        -1.239696904456171E-064
   105.455700000000        -1.150081932741676E-064
   105.695100000000        -7.937705080836055E-065
   105.934500000000        -1.058404097448100E-065
   106.173900000000         9.473221029244563E-065
   106.413300000000         2.346272244956945E-064
   106.652700000000         3.996282237215202E-064
   106.892100000000         5.708617598702851E-064
   107.131500000000         7.190518516733995E-064
   107.370900000000         8.049922292365748E-064
   107.610300000000         7.821057410668760E-064
   107.849700000000         6.016038020166893E-064
   108.089100000000         2.205168061920616E-064
   108.328500000000        -3.875380737553805E-064
   108.567900000000        -1.219552788507586E-063
   108.807300000000        -2.229690516662720E-063
   109.046700000000        -3.317385099166289E-063
   109.286100000000        -4.319875638807154E-063
   109.525500000000        -5.012607939531493E-063
   109.764900000000        -5.121091022884158E-063
   110.004300000000        -4.347376419028411E-063
   110.243700000000        -2.413143826961718E-063
   110.483100000000         8.807048507730657E-064
   110.722500000000         5.581054311418050E-063
   110.961900000000         1.150312733091786E-062
   111.201300000000         1.815584966573669E-062
   111.440700000000         2.468758970904362E-062
   111.680100000000         2.987130558372041E-062
   111.919500000000         3.214980078955394E-062
   112.158900000000         2.976054787876039E-062
   112.398300000000         2.095429622475393E-062
   112.637700000000         4.311556573741271E-063
   112.877100000000        -2.085436408688696E-062
   113.116500000000        -5.403949298098998E-062
   113.355900000000        -9.309222028507164E-062
   113.595300000000        -1.338380265652934E-061
   113.834700000000        -1.698889094364362E-061
   114.074100000000        -1.927546698907463E-061
   114.313500000000        -1.923732503168088E-061
   114.552900000000        -1.581568680984195E-061
   114.792300000000        -8.060413658029989E-062
   115.031700000000         4.654788042207034E-062
   115.271100000000         2.237636890132861E-061
   115.510500000000         4.430039681738984E-061
   115.749900000000         6.852805412538888E-061
   115.989300000000         9.190142888470459E-061
   116.228700000000         1.099842101000583E-060
   116.468100000000         1.172556283137443E-060
   116.707500000000         1.075794816289604E-060
   116.946900000000         7.498991398563311E-061
   117.186300000000         1.479918236586316E-061
   117.425700000000        -7.502093342756000E-061
   117.665100000000        -1.923014557908136E-060
   117.904500000000        -3.291789584136442E-060
   118.143900000000        -4.709157567967670E-060
   118.383300000000        -5.953823435612709E-060
   118.622700000000        -6.735847390640098E-060
   118.862100000000        -6.716075410161169E-060
   119.101500000000        -5.542619208707050E-060
   119.340900000000        -2.905601451837994E-060
   119.580300000000         1.391242753998535E-060
   119.819700000000         7.347048871935090E-060
   120.059100000000         1.467755245922289E-059
   120.298500000000         2.273970456976685E-059
   120.537900000000         3.048487870571216E-059
   120.777300000000         3.646114449556346E-059
   121.016700000000         3.888551204161459E-059
   121.256100000000         3.580405128587854E-059
   121.495500000000         2.535040320083529E-059
   121.734900000000         6.100815726154547E-060
   121.974300000000        -2.249354277430945E-059
   122.213700000000        -5.963774709330450E-059
   122.453100000000        -1.027521876444343E-058
   122.692500000000        -1.471466639623792E-058
   122.931900000000        -1.859139569089532E-058
   123.171300000000        -2.101540994200662E-058
   123.410700000000        -2.096311139393608E-058
   123.650100000000        -1.739331240789116E-058
   123.889500000000        -9.415080218684721E-059
   124.128900000000         3.499280388741498E-059
   124.368300000000         2.127326975774330E-058
   124.607700000000         4.298632188204616E-058
   124.847100000000         6.667596453255144E-058
   125.086500000000         8.923279634292812E-058
   125.325900000000         1.064443410009839E-057
   125.565300000000         1.132417782452547E-057
   125.804700000000         1.041915063828379E-057
   126.044100000000         7.424943588818282E-058
   126.283500000000         1.975904469401640E-058
   126.522900000000        -6.037440877754097E-058
   126.762300000000        -1.634580533101944E-057
   127.001700000000        -2.819174639100010E-057
   127.241100000000        -4.025700196082062E-057
   127.480500000000        -5.065342350315073E-057
   127.719900000000        -5.700453688863760E-057
   127.959300000000        -5.664047555397309E-057
   128.198700000000        -4.691925108430827E-057
   128.438100000000        -2.567151674368351E-057
   128.677500000000         8.255598209084148E-058
   128.916900000000         5.440602350253125E-057
   129.156300000000         1.101519640986419E-056
   129.395700000000         1.702649345598249E-056
   129.635100000000         2.267434524083582E-056
   129.874500000000         2.690259595053315E-056
   130.113900000000         2.847043286253127E-056
   130.353300000000         2.608160338900182E-056
   130.592700000000         1.857285975790413E-056
   130.832100000000         5.153843645981603E-057
   131.071500000000        -1.432076107562942E-056
   131.310900000000        -3.907858701092236E-056
   131.550300000000        -6.720046821672737E-056
   131.789700000000        -9.548859093030265E-056
   132.029100000000        -1.194903282332999E-055
   132.268500000000        -1.337331440027206E-055
   132.507900000000        -1.322127966650306E-055
   132.747300000000        -1.091521294553552E-055
   132.986700000000        -6.001062555701534E-056
   133.226100000000         1.732290968696721E-056
   133.465500000000         1.212769696942621E-055
   133.704900000000         2.454612259230105E-055
   133.944300000000         3.778732056720439E-055
   134.183700000000         5.007023576871919E-055
   134.423100000000         5.909850916459507E-055
   134.662500000000         6.223224018928147E-055
   134.901900000000         5.677803886933027E-055
   135.141300000000         4.039498746866850E-055
   135.380700000000         1.159480652037386E-055
   135.620100000000        -2.970842906376597E-055
   135.859500000000        -8.166791383646905E-055
   136.098900000000        -1.400840950200052E-054
   136.338300000000        -1.982017694176528E-054
   136.577700000000        -2.468355662755415E-054
   136.817100000000        -2.749236080763773E-054
   137.056500000000        -2.705776996189095E-054
   137.295900000000        -2.226447723518627E-054
   137.535300000000        -1.227190071671056E-054
   137.774700000000         3.254880577245461E-055
   138.014100000000         2.391001578986406E-054
   138.253500000000         4.834298468703985E-054
   138.492900000000         7.412909206512393E-054
   138.732300000000         9.776131243528855E-054