  -1.79550000000000         0.000000000000000E+000
  -1.55610000000000         0.000000000000000E+000
  -1.31670000000000         0.000000000000000E+000
  -1.07730000000000         0.000000000000000E+000
 -0.837900000000000         0.000000000000000E+000
 -0.598500000000000         0.000000000000000E+000
 -0.359100000000000         0.000000000000000E+000
 -0.119700000000000         0.000000000000000E+000
  0.119700000000000         0.000000000000000E+000
  0.359100000000000         0.000000000000000E+000
  0.598500000000000         0.000000000000000E+000
  0.837900000000000         0.000000000000000E+000
   1.07730000000000         0.000000000000000E+000
   1.31670000000000         0.000000000000000E+000
   1.55610000000000         0.000000000000000E+000
   1.79550000000000         0.000000000000000E+000
   2.03490000000000         0.000000000000000E+000
   2.27430000000000         0.000000000000000E+000
   2.51370000000000         0.000000000000000E+000
   2.75310000000000         0.000000000000000E+000
   2.99250000000000         0.000000000000000E+000
   3.23190000000000         0.000000000000000E+000
   3.47130000000000         0.000000000000000E+000
   3.71070000000000         0.000000000000000E+000
   3.95010000000000         0.000000000000000E+000
   4.18950000000000         0.000000000000000E+000
   4.42890000000000         0.000000000000000E+000
   4.66830000000000         0.000000000000000E+000
   4.90770000000000         0.000000000000000E+000
   5.14710000000000         0.000000000000000E+000
   5.38650000000000         0.000000000000000E+000
   5.62590000000000         0.000000000000000E+000
   5.86530000000000         0.000000000000000E+000
   6.10470000000000         0.000000000000000E+000
   6.34410000000000         0.000000000000000E+000
   6.58350000000000         0.000000000000000E+000
   6.82290000000000         0.000000000000000E+000
   7.06230000000000         0.000000000000000E+000
   7.30170000000000         0.000000000000000E+000
   7.54110000000000         0.000000000000000E+000
   7.78050000000000         0.000000000000000E+000
   8.01990000000000         0.000000000000000E+000
   8.25930000000000         0.000000000000000E+000
   8.49870000000000         0.000000000000000E+000
   8.73810000000000         0.000000000000000E+000
   8.97750000000000         6.303653171249863E-187
   9.21690000000000         7.282354705541093E-185
   9.45630000000000        -8.260462696158158E-181
   9.69570000000000        -1.118724549992158E-169
   9.93510000000000         1.195046938495180E-167
   10.1745000000000         1.533761314388274E-165
   10.4139000000000         2.029731777892156E-164
   10.6533000000000        -2.076072004239742E-162
   10.8927000000000        -1.196872274501807E-160
   11.1321000000000        -3.417453223477356E-159
   11.3715000000000        -6.494741485108099E-158
   11.6109000000000        -8.790828758422179E-157
   11.8503000000000        -8.085388266408967E-156
   12.0897000000000        -3.047469471227105E-155
   12.3291000000000         5.677447036545093E-154
   12.5685000000000         1.565388173290140E-152
   12.8079000000000         2.392809979574694E-151
   13.0473000000000         2.842967010165163E-150
   13.2867000000000         2.866089524913648E-149
   13.5261000000000         2.549448534684567E-148
   13.7655000000000         2.046084424681986E-147
   14.0049000000000         1.503405366258372E-146
   14.2443000000000         1.021998361067131E-145
   14.4837000000000         6.478449510859531E-145
   14.7231000000000         3.852890924383810E-144
   14.9625000000000         2.159974762215113E-143
   15.2019000000000         1.145528646005361E-142
   15.4413000000000         5.761642634574878E-142
   15.6807000000000         2.752324174451950E-141
   15.9201000000000         1.249117975903122E-140
   16.1595000000000         5.380440148462358E-140
   16.3989000000000         2.193556525186524E-139
   16.6383000000000         8.419614475278517E-139
   16.8777000000000         3.013479381375734E-138
   17.1171000000000         9.876408219673493E-138
   17.3565000000000         2.851768675904789E-137
   17.5959000000000         6.524200978005974E-137
   17.8353000000000         6.522050600517146E-137
   18.0747000000000        -4.509154791986493E-136
   18.3141000000000        -4.131417864424559E-135
   18.5535000000000        -2.317007398652665E-134
   18.7929000000000        -1.078271673810067E-133
   19.0323000000000        -4.490394637708488E-133
   19.2717000000000        -1.725204291093921E-132
   19.5111000000000        -6.209160837861184E-132
   19.7505000000000        -2.111638290004722E-131
   19.9899000000000        -6.821771584198441E-131
   20.2293000000000        -2.100619437665819E-130
   20.4687000000000        -6.179895172766711E-130
   20.7081000000000        -1.740056237593066E-129
   20.9475000000000        -4.696853136785177E-129
   21.1869000000000        -1.217869037501541E-128
   21.4263000000000        -3.043194773450495E-128
   21.6657000000000        -7.368088213598715E-128
   21.9051000000000        -1.744447042752420E-127
   22.1445000000000        -4.097104384914139E-127
   22.3839000000000        -9.734076126277327E-127
   22.6233000000000        -2.388413548791095E-126
   22.8627000000000        -6.133766169291027E-126
   23.1021000000000        -1.646011896266283E-125
   23.3415000000000        -4.543130152691841E-125
   23.5809000000000        -1.262141480560911E-124
   23.8203000000000        -3.461115547647286E-124
   24.0597000000000        -9.235055463355352E-124
   24.2991000000000        -2.374372588296894E-123
   24.5385000000000        -5.842134073269137E-123
   24.7779000000000        -1.367797673641821E-122
   25.0173000000000        -3.028219437820625E-122
   25.2567000000000        -6.284929152634826E-122
   25.4961000000000        -1.205468322682608E-121
   25.7355000000000        -2.079210637981696E-121
   25.9749000000000        -3.025329843330302E-121
   26.2143000000000        -2.962516389830882E-121
   26.4537000000000         1.364312727303604E-121
   26.6931000000000         1.797143476915356E-120
   26.9325000000000         6.405604639697217E-120
   27.1719000000000         1.722647780468014E-119
   27.4113000000000         3.969703868777703E-119
   27.6507000000000         8.146998463499082E-119
   27.8901000000000         1.507061457631320E-118
   28.1295000000000         2.512695670786044E-118
   28.3689000000000         3.758188325425726E-118
   28.6083000000000         5.084146164140845E-118
   28.8477000000000         6.801603914550502E-118
   29.0871000000000         1.199577047414649E-117
   29.3265000000000         3.344116943857531E-117
   29.5659000000000         1.109829464660625E-116
   29.8053000000000         3.497215127989873E-116
   30.0447000000000         9.939427059450511E-116
   30.2841000000000         2.550843766162421E-115
   30.5235000000000         5.956517804191763E-115
   30.7629000000000         1.270078904190794E-114
   31.0023000000000         2.463377245520241E-114
   31.2417000000000         4.276313605322135E-114
   31.4811000000000         6.358674170950581E-114
   31.7205000000000         7.030135769545005E-114
   31.9599000000000         1.473588170964815E-114
   32.1993000000000        -2.150837840093942E-113
   32.4387000000000        -8.448524315130615E-113
   32.6781000000000        -2.274361058933126E-112
   32.9175000000000        -5.113191003948439E-112
   33.1569000000000        -1.009485046182149E-111
   33.3963000000000        -1.765705521517742E-111
   33.6357000000000        -2.679111392527373E-111
   33.8751000000000        -3.252285517162182E-111
   34.1145000000000        -2.118721754607486E-111
   34.3539000000000         3.722682866912304E-111
   34.5933000000000         1.993553487054179E-110
   34.8327000000000         5.580143899395098E-110
   35.0721000000000         1.240919051686480E-109
   35.3115000000000         2.375841019510509E-109
   35.5509000000000         3.979409398025376E-109
   35.7903000000000         5.700620681556548E-109
   36.0297000000000         6.327331394570336E-109
   36.2691000000000         2.970643770457113E-109
   36.5085000000000        -1.006674089162896E-108
   36.7479000000000        -4.245895437482920E-108
   36.9873000000000        -1.081823572229369E-107
   37.2267000000000        -2.230189771437834E-107
   37.4661000000000        -3.955509196466581E-107
   37.7055000000000        -6.057978153608216E-107
   37.9449000000000        -7.638535512229613E-107
   38.1843000000000        -6.415610422592790E-107
   38.4237000000000         2.223307184882414E-107
   38.6631000000000         2.621804738372351E-106
   38.9025000000000         7.721075045150185E-106
   39.1419000000000         1.688308869756033E-105
   39.3813000000000         3.102282013043460E-105
   39.6207000000000         4.907639294909501E-105
   39.8601000000000         6.507369253762305E-105
   40.0995000000000         6.338624945913339E-105
   40.3389000000000         1.227252421146346E-105
   40.5783000000000        -1.427002221253834E-104
   40.8177000000000        -4.808430739011351E-104
   41.0571000000000        -1.094690227536669E-103
   41.2965000000000        -2.048092407540793E-103
   41.5359000000000        -3.280049918415330E-103
   41.7753000000000        -4.426254449403245E-103
   42.0147000000000        -4.538859371681229E-103
   42.2541000000000        -1.721784694611264E-103
   42.4935000000000         7.213295042846425E-103
   42.7329000000000         2.679986913019431E-102
   42.9723000000000         6.214747113574361E-102
   43.2117000000000         1.164807090890248E-101
   43.4511000000000         1.857972295684029E-101
   43.6905000000000         2.494013861173536E-101
   43.9299000000000         2.557537087051167E-101
   44.1693000000000         1.052488932922238E-101
   44.4087000000000        -3.638149802773627E-101
   44.6481000000000        -1.371730601589311E-100
   44.8875000000000        -3.150230148837885E-100
   45.1269000000000        -5.811876360350796E-100
   45.3663000000000        -9.086281049087684E-100
   45.6057000000000        -1.187966188900616E-099
   45.8451000000000        -1.165792121990185E-099
   46.0845000000000        -3.765276957791003E-100
   46.3239000000000         1.899424139605283E-099
   46.5633000000000         6.584173849984746E-099
   46.8027000000000         1.454501032269557E-098
   47.0421000000000         2.597353481322623E-098
   47.2815000000000         3.922662684671946E-098
   47.5209000000000         4.901898462557636E-098
   47.7603000000000         4.408539290231976E-098
   47.9997000000000         4.929594393751976E-099
   48.2391000000000        -9.685375989957438E-098
   48.4785000000000        -2.949308311142065E-097
   48.7179000000000        -6.160084786678451E-097
   48.9573000000000        -1.053633774839173E-096
   49.1967000000000        -1.522933573951493E-096
   49.4361000000000        -1.794996893485782E-096
   49.6755000000000        -1.419595148268466E-096
   49.9149000000000         3.357782369017704E-097
   50.1543000000000         4.471886119800376E-096
   50.3937000000000         1.206946717493516E-095
   50.6331000000000         2.378603113237290E-095
   50.8725000000000         3.887724672592753E-095
   51.1119000000000         5.362535762364585E-095
   51.3513000000000         5.922551284405135E-095
   51.5907000000000         3.955395024493531E-095
   51.8301000000000        -3.010661335098827E-095
   52.0695000000000        -1.813584502367971E-094
   52.3089000000000        -4.448360825031583E-094
   52.5483000000000        -8.320973216068791E-094
   52.7877000000000        -1.303140884726007E-093
   53.0271000000000        -1.717639186379886E-093
   53.2665000000000        -1.774148186131814E-093
   53.5059000000000        -9.536561268372298E-094
   53.7453000000000         1.496747385752314E-093
   53.9847000000000         6.478197569936681E-093
   54.2241000000000         1.476265358627701E-092
   54.4635000000000         2.641669887432119E-092
   54.7029000000000         3.983509111493962E-092
   54.9423000000000         5.037544200163949E-092
   55.1817000000000         4.877887191876028E-092
   55.4211000000000         1.990774350760765E-092
   55.6605000000000        -5.715124436190194E-092
   55.8999000000000        -2.059270658227893E-091
   56.1393000000000        -4.440499856939885E-091
   56.3787000000000        -7.668636383758130E-091
   56.6181000000000        -1.121392068489816E-090
   56.8575000000000        -1.371434413292112E-090
   57.0969000000000        -1.259862230312635E-090
   57.3363000000000        -3.830492669641250E-091
   57.5757000000000         1.795183327475892E-090
   57.8151000000000         5.848288388571468E-090
   58.0545000000000         1.215663219962837E-089
   58.2939000000000         2.048750855382505E-089
   58.5333000000000         2.935493108944463E-089
   58.7727000000000         3.519536589357984E-089
   59.0121000000000         3.152450709543623E-089
   59.2515000000000         8.444609497827172E-090
   59.4909000000000        -4.685407220938469E-089
   59.7303000000000        -1.476547346548344E-088
   59.9697000000000        -3.021767679036578E-088
   60.2091000000000        -5.038314266193465E-088
   60.4485000000000        -7.167731583027004E-088
   60.6879000000000        -8.577792263817091E-088
   60.9273000000000        -7.782997408260444E-088
   61.1667000000000        -2.548120021286767E-088
   61.4061000000000         9.988300477158017E-088
   61.6455000000000         3.277542054766666E-087
   61.8849000000000         6.766278509798997E-087
   62.1243000000000         1.133494365586089E-086
   62.3637000000000         1.623858952423096E-086
   62.6031000000000         1.974556716077355E-086
   62.8425000000000         1.877151787607472E-086
   63.0819000000000         8.679472759860667E-087
   63.3213000000000        -1.648926780821441E-086
   63.5607000000000        -6.298200340645086E-086
   63.8001000000000        -1.350598089688774E-085
   64.0395000000000        -2.310809504393324E-085
   64.2789000000000        -3.377855696639171E-085
   64.5183000000000        -4.231856756961837E-085
   64.7577000000000        -4.294481296977094E-085
   64.9971000000000        -2.686087624959614E-085
   65.2365000000000         1.742219981487619E-085
   65.4759000000000         1.023644511574952E-084
   65.7153000000000         2.375026505838930E-084
   65.9547000000000         4.226689863251782E-084
   66.1941000000000         6.380008641169506E-084
   66.4335000000000         8.313293738389725E-084
   66.6729000000000         9.051268597245445E-084
   66.9123000000000         7.075408238180331E-084
   67.1517000000000         3.499742562829325E-085
   67.3911000000000        -1.343089850572598E-083
   67.6305000000000        -3.624865967191324E-083
   67.8699000000000        -6.869731855728033E-083
   68.1093000000000        -1.083861249392872E-082
   68.3487000000000        -1.478746126553105E-082
   68.5881000000000        -1.724416001381111E-082
   68.8275000000000        -1.583389813827859E-082
   69.0669000000000        -7.262644692400966E-083
   69.3063000000000         1.238449483490495E-082
   69.5457000000000         4.683776609323555E-082
   69.7851000000000         9.813746319527413E-082
   70.0245000000000         1.643034626690592E-081
   70.2639000000000         2.362275669898502E-081
   70.5033000000000         2.941524404661437E-081
   70.7427000000000         3.045790203834381E-081
   70.9821000000000         2.190663370014811E-081
   71.2215000000000        -2.293044785250740E-082
   71.4609000000000        -4.844756379657420E-081
   71.7003000000000        -1.211968797182929E-080
   71.9397000000000        -2.204197627742741E-080
   72.1791000000000        -3.369495211801235E-080
   72.4185000000000        -4.474735437811340E-080
   72.6579000000000        -5.095918547908493E-080
   72.8973000000000        -4.588143630616602E-080
   73.1367000000000        -2.101936476114927E-080
   73.3761000000000         3.318840002290361E-080
   73.6155000000000         1.251839740600151E-079
   73.8549000000000         2.585618083347315E-079
   74.0943000000000         4.266728776787396E-079
   74.3337000000000         6.058666758329327E-079
   74.5731000000000         7.483719408624420E-079
   74.8125000000000         7.767787512355734E-079
   75.0519000000000         5.832286265705751E-079
   75.2913000000000         3.753529167460916E-080
   75.5307000000000        -9.908270316717548E-079
   75.7701000000000        -2.592171814727604E-078
   76.0095000000000        -4.754690146496129E-078
   76.2489000000000        -7.282710139157268E-078
   76.4883000000000        -9.704023378048962E-078
   76.7277000000000        -1.118578450030138E-077
   76.9671000000000        -1.049169036750711E-077
   77.2065000000000        -6.026987343966346E-078
   77.4459000000000         3.971348156542840E-078
   77.6853000000000         2.103982972276611E-077
   77.9247000000000         4.584378441932930E-077
   78.1641000000000         7.727631089328719E-077
   78.4035000000000         1.113656532389874E-076
   78.6429000000000         1.401635139093843E-076
   78.8823000000000         1.509274810289538E-076
   79.1217000000000         1.260682882917110E-076
   79.3611000000000         4.447385402660644E-077
   79.6005000000000        -1.151067315883213E-076
   79.8399000000000        -3.680088739024629E-076
   80.0793000000000        -7.146222331278254E-076
   80.3187000000000        -1.128703158962310E-075
   80.5581000000000        -1.544352576968084E-075
   80.7975000000000        -1.844363536076201E-075
   81.0369000000000        -1.854288874118027E-075
   81.2763000000000        -1.348219888210258E-075
   81.5157000000000        -7.343351249641067E-077
   81.7551000000000         2.198918921764918E-075
   81.9945000000000         5.591891835419779E-075
   82.2339000000000         1.000929282492499E-074
   82.4733000000000         1.499893892114372E-074
   82.7127000000000         1.961333955333386E-074
   82.9521000000000         2.230432329523581E-074
   83.1915000000000         2.090528597070033E-074
   83.4309000000000         1.276952786440826E-074
   83.6703000000000        -4.860161901283780E-075
   83.9097000000000        -3.418449481991623E-074
   84.1491000000000        -7.585035706143921E-074
   84.3885000000000        -1.276560009336938E-073
   84.6279000000000        -1.830947908074659E-073
   84.8673000000000        -2.300127230121073E-073
   85.1067000000000        -2.498179270148762E-073
   85.3461000000000        -2.178402304298264E-073
   85.5855000000000        -1.055510440669147E-073
   85.8249000000000         1.146441866641640E-073
   86.0643000000000         4.615129270851561E-073
   86.3037000000000         9.339229582178250E-073
   86.5431000000000         1.497287818199216E-072
   86.7825000000000         2.069350945173849E-072
   87.0219000000000         2.508540664103496E-072
   87.2613000000000         2.609656095457517E-072
   87.5007000000000         2.112971814036483E-072
   87.7401000000000         7.335013303525497E-073
   87.9795000000000        -1.783480063711788E-072
   88.2189000000000        -5.577175588642880E-072
   88.4583000000000        -1.055803929947314E-071
   88.6977000000000        -1.627661022869318E-071
   88.9371000000000        -2.179559548118006E-071
   89.1765000000000        -2.559951652918522E-071
   89.4159000000000        -2.558930757141325E-071
   89.6553000000000        -1.921896441257873E-071
   89.8947000000000        -3.833089377928123E-072
   90.1341000000000         2.274759019237132E-071
   90.3735000000000         6.137666617484555E-071
   90.6129000000000         1.105072520458171E-070
   90.8523000000000         1.650110602043511E-070
   91.0917000000000         2.151126183521589E-070
   91.3311000000000         2.457725818356491E-070
   91.5705000000000         2.369564149039260E-070
   91.8099000000000         1.652852170705244E-070
   92.0493000000000         7.543367399779895E-072
   92.2887000000000        -2.536330599657436E-070
   92.5281000000000        -6.218857775474224E-070
   92.7675000000000        -1.077603302457996E-069
   93.0069000000000        -1.567972181648784E-069
   93.2463000000000        -1.998721051998956E-069
   93.4857000000000        -2.230565725376187E-069
   93.7251000000000        -2.084095235682852E-069
   93.9645000000000        -1.357130735427389E-069
   94.2039000000000         1.418933287013583E-070
   94.4433000000000         2.542585517570221E-069
   94.6827000000000         5.844384376426511E-069
   94.9221000000000         9.837167379437392E-069
   95.1615000000000         1.402239357124574E-068
   95.4009000000000         1.755337645658303E-068
   95.6403000000000         1.921994578271913E-068
   95.8797000000000         1.750752353737750E-068
   96.1191000000000         1.076129915041467E-068
   96.3585000000000        -2.519810844272436E-069
   96.5979000000000        -2.324989527488838E-068
   96.8373000000000        -5.120012397892327E-068
   97.0767000000000        -8.437440629739621E-068
   97.3161000000000        -1.184179087897607E-067
   97.5555000000000        -1.462109601096131E-067
   97.7949000000000        -1.578471715898168E-067
   98.0343000000000        -1.412227039414027E-067
   98.2737000000000        -8.345687166131160E-068
   98.5131000000000         2.669550388516093E-068
   98.7525000000000         1.954089605650618E-067
   98.9919000000000         4.195077272773901E-067
   99.2313000000000         6.818072350380950E-067
   99.4707000000000         9.468881989588388E-067
   99.7101000000000         1.158474678559084E-066
   99.9495000000000         1.239890685835873E-066
   100.188900000000         1.099218440121712E-066
   100.428300000000         6.406578629433380E-067
   100.667700000000        -2.169306530104295E-067
   100.907100000000        -1.514332333456936E-066
   101.146500000000        -3.220726237651782E-066
   101.385900000000        -5.200536267301539E-066
   101.625300000000        -7.184447711290631E-066
   101.864700000000        -8.753053612048117E-066
   102.104100000000        -9.343482609065719E-066
   102.343500000000        -8.290056589909071E-066
   102.582900000000        -4.908751508601438E-066
   102.822300000000         1.368786164738319E-066
   103.061700000000         1.081328198565457E-065
   103.301100000000         2.318047211514943E-065
   103.540500000000         3.748492420913166E-065
   103.779900000000         5.180749745168046E-065
   104.019300000000         6.319422997652991E-065
   104.258700000000         6.771576981902890E-065
   104.498100000000         6.075937741443160E-065
   104.737500000000         3.761509354295082E-065
   104.976900000000        -5.610806688745536E-066
   105.216300000000        -7.077183859465164E-065
   105.455700000000        -1.562355719256712E-064
   105.695100000000        -2.553955432902528E-064
   105.934500000000        -3.554205441129750E-064
   106.173900000000        -4.366155640426048E-064
   106.413300000000        -4.728354946818146E-064
   106.652700000000        -4.334045052190003E-064
   106.892100000000        -2.869210265336278E-064
   107.131500000000        -7.143024219466128E-066
   107.370900000000         4.191679512435478E-064
   107.610300000000         9.830143877297836E-064
   107.849700000000         1.643670695250769E-063
   108.089100000000         2.320670767017084E-063
   108.328500000000         2.889583943608364E-063
   108.567900000000         3.184284333609037E-063
   108.807300000000         3.008480489590382E-063
   109.046700000000         2.158826888290387E-063
   109.286100000000         4.608275004046862E-064
   109.525500000000        -2.183139933384081E-063
   109.764900000000        -5.737009083591273E-063
   110.004300000000        -9.972046648303450E-063
   110.243700000000        -1.441594582196412E-062
   110.483100000000        -1.832360797292108E-062
   110.722500000000        -2.068563358842285E-062
   110.961900000000        -2.029105763867374E-062
   111.201300000000        -1.585850315962276E-062
   111.440700000000        -6.243786565415685E-063
   111.680100000000         9.278527348730478E-063
   111.919500000000         3.067713661224495E-062
   112.158900000000         5.680587816029125E-062
   112.398300000000         8.508258670838016E-062
   112.637700000000         1.112820075261519E-061
   112.877100000000         1.295348489863490E-061
   113.116500000000         1.326301081815562E-061
   113.355900000000         1.127073795708491E-061
   113.595300000000         6.239476816169754E-062
   113.834700000000        -2.360753246711025E-062
   114.074100000000        -1.465790821635739E-061
   114.313500000000        -3.016512742213909E-061
   114.552900000000        -4.758023828253094E-061
   114.792300000000        -6.463956483900381E-061
   115.031700000000        -7.807759414887587E-061
   115.271100000000        -8.374871434071227E-061
   115.510500000000        -7.696396348960549E-061
   115.749900000000        -5.308150882227950E-061
   115.989300000000        -8.361984061471227E-062
   116.228700000000         5.894230673414915E-061
   116.468100000000         1.473510710101698E-060
   116.707500000000         2.509250627367104E-060
   116.946900000000         3.582615161926135E-060
   117.186300000000         4.519976839911160E-060
   117.425700000000         5.091426887088128E-060
   117.665100000000         5.025574867520289E-060
   117.904500000000         4.038459301094525E-060
   118.143900000000         1.877911990428700E-060
   118.383300000000        -1.617386491646080E-060
   118.622700000000        -6.447847149614605E-060
   118.862100000000        -1.237919793590822E-059
   119.101500000000        -1.887623994224950E-059
   119.340900000000        -2.505916036485371E-059
   119.580300000000        -2.970029237665181E-059
   119.819700000000        -3.128024676799561E-059
   120.059100000000        -2.812053873068725E-059
   120.298500000000        -1.860422882653255E-059
   120.537900000000        -1.485950318757433E-060
   120.777300000000         2.372227526451399E-059
   121.016700000000         5.632239170314822E-059
   121.256100000000         9.401413857958020E-059
   121.495500000000         1.325694557758891E-058
   121.734900000000         1.656950049609094E-058
   121.974300000000         1.851915479636832E-058
   122.213700000000         1.815161936945161E-058
   122.453100000000         1.448310739615411E-058
   122.692500000000         6.657487895439767E-059
   122.931900000000        -5.848098417858123E-059
   123.171300000000        -2.298313653035270E-058
   123.410700000000        -4.387538942913523E-058
   123.650100000000        -6.661372816240369E-058
   123.889500000000        -8.811376075609689E-058
   124.128900000000        -1.041265201712267E-057
   124.368300000000        -1.094524480624827E-057
   124.607700000000        -9.841490685928884E-058
   124.847100000000        -6.562642489778258E-058
   125.086500000000        -7.044721805539793E-059
   125.325900000000         7.873610593683278E-058
   125.565300000000         1.890788558220873E-057
   125.804700000000         3.159733978650703E-057
   126.044100000000         4.450475904041466E-057
   126.283500000000         5.552395501629398E-057
   126.522900000000         6.194777484523294E-057
   126.762300000000         6.066922573451546E-057
   127.001700000000         4.853909549092464E-057
   127.241100000000         2.288653338648970E-057
   127.480500000000        -1.781633390872431E-057
   127.719900000000        -7.319778209325985E-057
   127.959300000000        -1.402282792543830E-056
   128.198700000000        -2.125903495821685E-056
   128.438100000000        -2.803398259130377E-056
   128.677500000000        -3.300416067127982E-056
   128.916900000000        -3.455596203528022E-056
   129.156300000000        -3.096447740302712E-056
   129.395700000000        -2.063886457669886E-056
   129.635100000000        -2.449075829990313E-057
   129.874500000000         2.388743232513616E-056
   130.113900000000         5.739967014875503E-056
   130.353300000000         9.549882564243442E-056
   130.592700000000         1.337352245714394E-055
   130.832100000000         1.657685623081383E-055
   131.071500000000         1.836453877129081E-055
   131.310900000000         1.784645119261554E-055
   131.550300000000         1.414784249137801E-055
   131.789700000000         6.562458101388358E-056
   132.029100000000        -5.259503030177948E-056
   132.268500000000        -2.110600629289652E-055
   132.507900000000        -4.000783851560068E-055
   132.747300000000        -6.009026243772316E-055
   132.986700000000        -7.851570890367342E-055
   133.226100000000        -9.156404245206975E-055
   133.465500000000        -9.489257777430844E-055
   133.704900000000        -8.400480563594866E-055
   133.944300000000        -5.493340475539032E-055
   134.183700000000        -5.109473514792739E-056
   134.423100000000         6.565238785729266E-055
   134.662500000000         1.541707848502941E-054
   134.901900000000         2.530799237763699E-054
   135.141300000000         3.503786850900276E-054
   135.380700000000         4.295655022488753E-054
   135.620100000000         4.705669346297570E-054
   135.859500000000         4.516176698688778E-054
   136.098900000000         3.521539034307609E-054
   136.338300000000         1.566389258316952E-054
   136.577700000000        -1.409451662116020E-054
   136.817100000000        -5.324178371565766E-054
   137.056500000000        -9.912254225238473E-054
   137.295900000000        -1.469647005465185E-053
   137.535300000000        -1.898365138461868E-053
   137.774700000000        -2.189374339610705E-053
   138.014100000000        -2.243025547239143E-053
   138.253500000000        -1.959633771703099E-053
   138.492900000000        -1.255496164016192E-053
   138.732300000000        -8.239518257905886E-055