  -1.79550000000000         0.000000000000000E+000
  -1.55610000000000         0.000000000000000E+000
  -1.31670000000000         0.000000000000000E+000
  -1.07730000000000         0.000000000000000E+000
 -0.837900000000000         0.000000000000000E+000
 -0.598500000000000         0.000000000000000E+000
 -0.359100000000000         0.000000000000000E+000
 -0.119700000000000         0.000000000000000E+000
  0.119700000000000         0.000000000000000E+000
  0.359100000000000         0.000000000000000E+000
  0.598500000000000         0.000000000000000E+000
  0.837900000000000         0.000000000000000E+000
   1.07730000000000         0.000000000000000E+000
   1.31670000000000         0.000000000000000E+000
   1.55610000000000         0.000000000000000E+000
   1.79550000000000         0.000000000000000E+000
   2.03490000000000         0.000000000000000E+000
   2.27430000000000         0.000000000000000E+000
   2.51370000000000         0.000000000000000E+000
   2.75310000000000         0.000000000000000E+000
   2.99250000000000         0.000000000000000E+000
   3.23190000000000         0.000000000000000E+000
   3.47130000000000         0.000000000000000E+000
   3.71070000000000         0.000000000000000E+000
   3.95010000000000         0.000000000000000E+000
   4.18950000000000         0.000000000000000E+000
   4.42890000000000         0.000000000000000E+000
   4.66830000000000         0.000000000000000E+000
   4.90770000000000         0.000000000000000E+000
   5.14710000000000         0.000000000000000E+000
   5.38650000000000         0.000000000000000E+000
   5.62590000000000         0.000000000000000E+000
   5.86530000000000         0.000000000000000E+000
   6.10470000000000         0.000000000000000E+000
   6.34410000000000         0.000000000000000E+000
   6.58350000000000         0.000000000000000E+000
   6.82290000000000         0.000000000000000E+000
   7.06230000000000         0.000000000000000E+000
   7.30170000000000         0.000000000000000E+000
   7.54110000000000         0.000000000000000E+000
   7.78050000000000         0.000000000000000E+000
   8.01990000000000         0.000000000000000E+000
   8.25930000000000         0.000000000000000E+000
   8.49870000000000         0.000000000000000E+000
   8.73810000000000         0.000000000000000E+000
   8.97750000000000         7.027426685117850E-195
   9.21690000000000        -7.752297694706478E-188
   9.45630000000000        -1.406405733450022E-184
   9.69570000000000         8.233580631102872E-176
   9.93510000000000        -1.247879644175124E-169
   10.1745000000000        -7.527215993612901E-168
   10.4139000000000        -1.205917056883267E-166
   10.6533000000000         2.310912175974366E-164
   10.8927000000000         1.921323684143776E-162
   11.1321000000000         7.943221970891819E-161
   11.3715000000000         2.229778820156146E-159
   11.6109000000000         4.768148111901194E-158
   11.8503000000000         8.274264799436491E-157
   12.0897000000000         1.214096268527689E-155
   12.3291000000000         1.551036500943997E-154
   12.5685000000000         1.763398341055054E-153
   12.8079000000000         1.814471135054762E-152
   13.0473000000000         1.711894267148425E-151
   13.2867000000000         1.495826575963854E-150
   13.5261000000000         1.219768049422245E-149
   13.7655000000000         9.336513432689503E-149
   14.0049000000000         6.738361558404762E-148
   14.2443000000000         4.602242483387291E-147
   14.4837000000000         2.984097999885969E-146
   14.7231000000000         1.842425476856540E-145
   14.9625000000000         1.086435178420601E-144
   15.2019000000000         6.137481243344311E-144
   15.4413000000000         3.332026405876761E-143
   15.6807000000000         1.743809276967893E-142
   15.9201000000000         8.822923473642001E-142
   16.1595000000000         4.326374600893445E-141
   16.3989000000000         2.059916593472232E-140
   16.6383000000000         9.534178994477952E-140
   16.8777000000000         4.291128830024934E-139
   17.1171000000000         1.877271427714949E-138
   17.3565000000000         7.973969354794556E-138
   17.5959000000000         3.283299364171707E-137
   17.8353000000000         1.307843949366728E-136
   18.0747000000000         5.027874164097567E-136
   18.3141000000000         1.860413979802506E-135
   18.5535000000000         6.604163353209132E-135
   18.7929000000000         2.239850535302317E-134
   19.0323000000000         7.217045009476471E-134
   19.2717000000000         2.190555119871776E-133
   19.5111000000000         6.175315584006458E-133
   19.7505000000000         1.573826853905242E-132
   19.9899000000000         3.404167240564196E-132
   20.2293000000000         4.996481759115533E-132
   20.4687000000000        -3.382258890217701E-132
   20.7081000000000        -6.898031429319363E-131
   20.9475000000000        -3.792758913485462E-130
   21.1869000000000        -1.597021180688164E-129
   21.4263000000000        -5.880624664027912E-129
   21.6657000000000        -1.981315080286293E-128
   21.9051000000000        -6.237040201088826E-128
   22.1445000000000        -1.855308764756283E-127
   22.3839000000000        -5.250572507662869E-127
   22.6233000000000        -1.419808219285518E-126
   22.8627000000000        -3.679196434485887E-126
   23.1021000000000        -9.155518112537786E-126
   23.3415000000000        -2.191431199773494E-125
   23.5809000000000        -5.052724501124516E-125
   23.8203000000000        -1.123993113169620E-124
   24.0597000000000        -2.417154198900075E-124
   24.2991000000000        -5.038636063251397E-124
   24.5385000000000        -1.021770603920508E-123
   24.7779000000000        -2.024708664959824E-123
   25.0173000000000        -3.938578371423007E-123
   25.2567000000000        -7.542774004384754E-123
   25.4961000000000        -1.418801903131268E-122
   25.7355000000000        -2.587121458246367E-122
   25.9749000000000        -4.419408537740269E-122
   26.2143000000000        -6.481070502558199E-122
   26.4537000000000        -5.731171041819342E-122
   26.6931000000000         9.591318726462486E-122
   26.9325000000000         7.648058748856899E-121
   27.1719000000000         2.976639337378285E-120
   27.4113000000000         9.323912975430280E-120
   27.6507000000000         2.581720287451555E-119
   27.8901000000000         6.526798064753910E-119
   28.1295000000000         1.525624431944903E-118
   28.3689000000000         3.307004846297582E-118
   28.6083000000000         6.617013886356460E-118
   28.8477000000000         1.204489722952085E-117
   29.0871000000000         1.926204954877653E-117
   29.3265000000000         2.455816655514172E-117
   29.5659000000000         1.514901975322941E-117
   29.8053000000000        -4.224487396938040E-117
   30.0447000000000        -2.212614816584978E-116
   30.2841000000000        -6.643807512823988E-116
   30.5235000000000        -1.610157906332193E-115
   30.7629000000000        -3.382614602941827E-115
   31.0023000000000        -6.247900660446912E-115
   31.2417000000000        -9.934371462321256E-115
   31.4811000000000        -1.243955771938753E-114
   31.7205000000000        -7.534340832367335E-115
   31.9599000000000         1.975151065056526E-114
   32.1993000000000         1.000568938774391E-113
   32.4387000000000         2.878566573520169E-113
   32.6781000000000         6.653857354194736E-113
   32.9175000000000         1.327415653841988E-112
   33.1569000000000         2.314464626900336E-112
   33.3963000000000         3.434306731483404E-112
   33.6357000000000         3.876567510602423E-112
   33.8751000000000         1.499240757108224E-112
   34.1145000000000        -8.305150728002254E-112
   34.3539000000000        -3.407401071177023E-111
   34.5933000000000        -8.946710186571285E-111
   34.8327000000000        -1.924693624611908E-110
   35.0721000000000        -3.588440627695755E-110
   35.3115000000000        -5.828970595234423E-110
   35.5509000000000        -7.946333999383852E-110
   35.7903000000000        -7.793475075132889E-110
   36.0297000000000        -4.816837257016221E-111
   36.2691000000000         2.334508167401403E-109
   36.5085000000000         7.912193933523859E-109
   36.7479000000000         1.882843306574445E-108
   36.9873000000000         3.730871985214341E-108
   37.2267000000000         6.401534460164508E-108
   37.4661000000000         9.432942949933138E-108
   37.7055000000000         1.113905637865622E-107
   37.9449000000000         7.498836758112665E-108
   38.1843000000000        -9.311017869786209E-108
   38.4237000000000        -5.229048718503075E-107
   38.6631000000000        -1.396569531842960E-106
   38.9025000000000        -2.909694615001714E-106
   39.1419000000000        -5.148522038789781E-106
   39.3813000000000        -7.817707168162701E-106
   39.6207000000000        -9.743493147013823E-106
   39.8601000000000        -8.105950228034288E-106
   40.0995000000000         2.530016412102582E-106
   40.3389000000000         3.103910801557020E-105
   40.5783000000000         8.954778295472124E-105
   40.8177000000000         1.905391599439780E-104
   41.0571000000000         3.384806246519690E-104
   41.2965000000000         5.122196825172849E-104
   41.5359000000000         6.343686426730725E-104
   41.7753000000000         5.265337099156233E-104
   42.0147000000000        -1.426995863005129E-104
   42.2541000000000        -1.892942575124169E-103
   42.4935000000000        -5.396360971389446E-103
   42.7329000000000        -1.127373987069476E-102
   42.9723000000000        -1.957483364882343E-102
   43.2117000000000        -2.876286089832004E-102
   43.4511000000000        -3.405912785641237E-102
   43.6905000000000        -2.519935700722133E-102
   43.9299000000000         1.585921674003637E-102
   44.1693000000000         1.158083942988076E-101
   44.4087000000000         3.064836745177835E-101
   44.6481000000000         6.120921532947370E-101
   44.8875000000000         1.020441158976681E-100
   45.1269000000000         1.431067919707333E-100
   45.3663000000000         1.576899083949694E-100
   45.6057000000000         9.280141401266141E-101
   45.8451000000000        -1.388448882829434E-100
   46.0845000000000        -6.574327624052387E-100
   46.3239000000000        -1.591151569967065E-099
   46.5633000000000        -3.006567244726922E-099
   46.8027000000000        -4.768253233685650E-099
   47.0421000000000        -6.306058423819964E-099
   47.2815000000000        -6.293268145087628E-099
   47.5209000000000        -2.300132447922466E-099
   47.7603000000000         9.398014515418982E-099
   47.9997000000000         3.350068819147252E-098
   48.2391000000000         7.426603663614675E-098
   48.4785000000000         1.322055436465648E-097
   48.7179000000000         1.980617657811055E-097
   48.9573000000000         2.436609048915609E-097
   49.1967000000000         2.105261852492926E-097
   49.4361000000000        -1.849349784460560E-100
   49.6755000000000        -5.283769018651989E-097
   49.9149000000000        -1.532069810754302E-096
   50.1543000000000        -3.119718088009890E-096
   50.3937000000000        -5.212508170434312E-096
   50.6331000000000        -7.316054050432326E-096
   50.8725000000000        -8.204542537293455E-096
   51.1119000000000        -5.576196379294555E-096
   51.3513000000000         4.159749406039908E-096
   51.5907000000000         2.565173835957873E-095
   51.8301000000000         6.342916500061641E-095
   52.0695000000000         1.191132718431518E-094
   52.3089000000000         1.863314256724641E-094
   52.5483000000000         2.429988341412109E-094
   52.7877000000000         2.416561218930048E-094
   53.0271000000000         1.006094410508441E-094
   53.2665000000000        -2.980176434525117E-094
   53.5059000000000        -1.092629719992768E-093
   53.7453000000000        -2.393285295613806E-093
   53.9847000000000        -4.180957006576925E-093
   54.2241000000000        -6.139369681203466E-093
   54.4635000000000        -7.419607545412565E-093
   54.7029000000000        -6.374503595893854E-093
   54.9423000000000        -3.659773459371370E-094
   55.1817000000000         1.415252082598838E-092
   55.4211000000000         4.095375134130184E-092
   55.6605000000000         8.231757354371501E-092
   55.8999000000000         1.358080584917459E-091
   56.1393000000000         1.892550649745240E-091
   56.3787000000000         2.142028122528948E-091
   56.6181000000000         1.592233168290611E-091
   56.8575000000000        -5.362883726919622E-092
   57.0969000000000        -5.233311911338050E-091
   57.3363000000000        -1.346531341523995E-090
   57.5757000000000        -2.565209547147611E-090
   57.8151000000000        -4.074722486688737E-090
   58.0545000000000        -5.487889687781275E-090
   58.2939000000000        -5.967078406846376E-090
   58.5333000000000        -4.066863169510063E-090
   58.7727000000000         2.322535007314004E-090
   59.0121000000000         1.577843200556506E-089
   59.2515000000000         3.867771840758897E-089
   59.4909000000000         7.179966271901693E-089
   59.7303000000000         1.119746791790695E-088
   59.9697000000000         1.487331015591273E-088
   60.2091000000000         1.603212403605891E-088
   60.4485000000000         1.101840493714512E-088
   60.6879000000000        -5.389915749205880E-089
   60.9273000000000        -3.944809979290613E-088
   61.1667000000000        -9.680421751683598E-088
   61.4061000000000        -1.791983730834772E-087
   61.6455000000000        -2.790542695744175E-087
   61.8849000000000        -3.719427769314379E-087
   62.1243000000000        -4.078186872160436E-087
   62.3637000000000        -3.034987902523751E-087
   62.6031000000000         5.890123324241766E-088
   62.8425000000000         8.201395846591017E-087
   63.0819000000000         2.108677412101936E-086
   63.3213000000000         3.971172659697898E-086
   63.5607000000000         6.260155405726910E-086
   63.8001000000000         8.479246186318272E-086
   64.0395000000000         9.604583591156073E-086
   64.2789000000000         7.931399557037506E-086
   64.5183000000000         1.037121927433994E-086
   64.7577000000000        -1.399761261305074E-085
   64.9971000000000        -3.992363108227217E-085
   65.2365000000000        -7.801075063435660E-085
   65.4759000000000        -1.259340291047696E-084
   65.7153000000000        -1.748664542550700E-084
   65.9547000000000        -2.061127547045145E-084
   66.1941000000000        -1.881503860968156E-084
   66.4335000000000        -7.567770575706850E-085
   66.6729000000000         1.868775799950237E-084
   66.9123000000000         6.541784969680096E-084
   67.1517000000000         1.357644154728663E-083
   67.3911000000000         2.269282795830738E-083
   67.6305000000000         3.251660015583106E-083
   67.8699000000000         3.999259981708052E-083
   68.1093000000000         3.985019366711048E-083
   68.3487000000000         2.437498536774071E-083
   68.5881000000000        -1.612325997314217E-083
   68.8275000000000        -9.163606757819466E-083
   69.0669000000000        -2.090178435683320E-082
   69.3063000000000        -3.663414105152401E-082
   69.5457000000000        -5.449941547121380E-082
   69.7851000000000        -7.002411187563890E-082
   70.0245000000000        -7.522358072750251E-082
   70.2639000000000        -5.811783575294089E-082
   70.5033000000000        -3.231600398941518E-083
   70.7427000000000         1.061709175791192E-081
   70.9821000000000         2.832855592556591E-081
   71.2215000000000         5.297124562951567E-081
   71.4609000000000         8.239716904572951E-081
   71.7003000000000         1.107467890290489E-080
   71.9397000000000         1.270482297643994E-080
   72.1791000000000         1.143114235625962E-080
   72.4185000000000         4.988412722960828E-081
   72.6579000000000        -9.190717211313502E-081
   72.8973000000000        -3.336758664645374E-080
   73.1367000000000        -6.844435448239855E-080
   73.3761000000000        -1.124267864711160E-079
   73.6155000000000        -1.584938274893005E-079
   73.8549000000000        -1.929778284752576E-079
   74.0943000000000        -1.938560544377345E-079
   74.3337000000000        -1.307074742232745E-079
   74.5731000000000         3.257036807636477E-080
   74.8125000000000         3.307853334405446E-079
   75.0519000000000         7.848326151730879E-079
   75.2913000000000         1.382721872314973E-078
   75.5307000000000         2.055009150671028E-078
   75.7701000000000         2.647861490145112E-078
   76.0095000000000         2.900477958143548E-078
   76.2489000000000         2.437839468057365E-078
   76.4883000000000         7.940174117446167E-079
   76.7277000000000        -2.515819178614683E-078
   76.9671000000000        -7.857031845351020E-078
   77.2065000000000        -1.525958214288527E-077
   77.4459000000000        -2.412865175043555E-077
   77.6853000000000        -3.291239115463112E-077
   77.9247000000000        -3.879570914692701E-077
   78.1641000000000        -3.753676859986740E-077
   78.4035000000000        -2.361270284843921E-077
   78.6429000000000         9.120756684611344E-078
   78.8823000000000         6.604556106247553E-077
   79.1217000000000         1.495180006143599E-076
   79.3611000000000         2.557154786461301E-076
   79.6005000000000         3.708456083241750E-076
   79.8399000000000         4.673610638311726E-076
   80.0793000000000         5.013251667596038E-076
   80.3187000000000         4.126192848978066E-076
   80.5581000000000         1.301444003027808E-076
   80.7975000000000        -4.156567283361663E-076
   81.0369000000000        -1.271013731452336E-075
   81.2763000000000        -2.427085583967598E-075
   81.5157000000000        -3.779967540563389E-075
   81.7551000000000        -5.087866915012003E-075
   81.9945000000000        -5.935784234317859E-075
   82.2339000000000        -5.723625872472618E-075
   82.4733000000000        -3.698812883948591E-075
   82.7127000000000         9.426783562455190E-076
   82.9521000000000         8.864796591100936E-075
   83.1915000000000         2.029695779203035E-074
   83.4309000000000         3.464434686557330E-074
   83.6703000000000         5.004333729039828E-074
   83.9097000000000         6.294732871170355E-074
   84.1491000000000         6.788167737579223E-074
   84.3885000000000         5.755924184167016E-074
   84.6279000000000         2.358522023103465E-074
   84.8673000000000        -4.202007904490238E-074
   85.1067000000000        -1.443153795720087E-073
   85.3461000000000        -2.819383590768450E-073
   85.5855000000000        -4.428657437423951E-073
   85.8249000000000        -6.000698794491793E-073
   86.0643000000000        -7.081827722592663E-073
   86.3037000000000        -7.027808879888073E-073
   86.5431000000000        -5.043165914393525E-073
   86.7825000000000        -2.887191863816910E-074
   87.0219000000000         7.924223660326803E-073
   87.2613000000000         1.984513562887457E-072
   87.5007000000000         3.491292796496602E-072
   87.7401000000000         5.134400370609953E-072
   87.9795000000000         6.576094770434066E-072
   88.2189000000000         7.298723737847959E-072
   88.4583000000000         6.617405321990513E-072
   88.6977000000000         3.744954989591693E-072
   88.9371000000000        -2.072836235313829E-072
   89.1765000000000        -1.133972323155284E-071
   89.4159000000000        -2.401091969072335E-071
   89.6553000000000        -3.913782863556830E-071
   89.8947000000000        -5.450906615720354E-071
   90.1341000000000        -6.637711495176887E-071
   90.3735000000000        -6.939618633578617E-071
   90.6129000000000        -5.692450347365800E-071
   90.8523000000000        -2.185073768001002E-071
   91.0917000000000         4.192533033336709E-071
   91.3311000000000         1.373091070816784E-070
   91.5705000000000         2.612205770702622E-070
   91.8099000000000         4.015052757005019E-070
   92.0493000000000         5.341242563390694E-070
   92.2887000000000         6.214943628934020E-070
   92.5281000000000         6.131117356348095E-070
   92.7675000000000         4.497363888725504E-070
   93.0069000000000         7.233661037733102E-071
   93.2463000000000        -5.634288184120370E-070
   93.4857000000000        -1.467280486884872E-069
   93.7251000000000        -2.590405565271344E-069
   93.9645000000000        -3.800883873145505E-069
   94.2039000000000        -4.863952806818101E-069
   94.4433000000000        -5.434781065101207E-069
   94.6827000000000        -5.073057534335242E-069
   94.9221000000000        -3.289097063973472E-069
   95.1615000000000         3.705088948234175E-070
   95.4009000000000         6.194233664935371E-069
   95.6403000000000         1.413855911339432E-068
   95.8797000000000         2.363886365871267E-068
   96.1191000000000         3.342936238452896E-068
   96.3585000000000         4.141931518159873E-068
   96.5979000000000         4.468719280530936E-068
   96.8373000000000         3.966303459238655E-068
   97.0767000000000         2.256647920536875E-068
   97.3161000000000        -9.851897762237647E-069
   97.5555000000000        -5.926038758784022E-068
   97.7949000000000        -1.244487913943613E-067
   98.0343000000000        -1.999368464088757E-067
   98.2737000000000        -2.747493443907408E-067
   98.5131000000000        -3.317284335647195E-067
   98.7525000000000        -3.478409941437138E-067
   98.9919000000000        -2.959722983507581E-067
   99.2313000000000        -1.486391773872948E-067
   99.4707000000000         1.161305136941275E-067
   99.7101000000000         5.068489265763157E-067
   99.9495000000000         1.009156664810165E-066
   100.188900000000         1.576209888843064E-066
   100.428300000000         2.120859812083971E-066
   100.667700000000         2.512310555082823E-066
   100.907100000000         2.580420789858453E-066
   101.146500000000         2.130863822149808E-066
   101.385900000000         9.737409779357383E-067
   101.625300000000        -1.033265081571957E-066
   101.864700000000        -3.928650082612756E-066
   102.104100000000        -7.582780888380781E-066
   102.343500000000        -1.163491033299147E-065
   102.582900000000        -1.544556204504052E-065
   102.822300000000        -1.808244506651561E-065
   103.061700000000        -1.836047397664104E-065
   103.301100000000        -1.495581281909092E-065
   103.540500000000        -6.608698796761155E-066
   103.779900000000         7.581079578895765E-066
   104.019300000000         2.777941063112121E-065
   104.258700000000         5.300038142272719E-065
   104.498100000000         8.071011901419060E-065
   104.737500000000         1.065440971059507E-064
   104.976900000000         1.242534431209042E-064
   105.216300000000         1.260073234705439E-064
   105.455700000000         1.031699826067839E-064
   105.695100000000         4.763431599179677E-065
   105.934500000000        -4.627746448511087E-065
   106.173900000000        -1.794440640864296E-064
   106.413300000000        -3.453464264799101E-064
   106.652700000000        -5.276441771954834E-064
   106.892100000000        -6.984946838550630E-064
   107.131500000000        -8.183128340511231E-064
   107.370900000000        -8.377259473984916E-064
   107.610300000000        -7.024137547418570E-064
   107.849700000000        -3.612932021061850E-064
   108.089100000000         2.219218498003815E-064
   108.328500000000         1.054396238697588E-063
   108.567900000000         2.098521208717507E-063
   108.807300000000         3.257312546949988E-063
   109.046700000000         4.364167681914230E-063
   109.286100000000         5.181026589201018E-063
   109.525500000000         5.409293884968985E-063
   109.764900000000         4.717512722497385E-063
   110.004300000000         2.788490119440304E-063
   110.243700000000        -6.138257145634987E-064
   110.483100000000        -5.560983711938192E-063
   110.722500000000        -1.186806087609116E-062
   110.961900000000        -1.900623438317143E-062
   111.201300000000        -2.603830556131575E-062
   111.440700000000        -3.159986568614559E-062
   111.680100000000        -3.395085768795302E-062
   111.919500000000        -3.112075407412616E-062
   112.158900000000        -2.116408881925439E-062
   112.398300000000        -2.530588243435927E-063
   112.637700000000         2.546481027391028E-062
   112.877100000000         6.211167690116543E-062
   113.116500000000         1.047822428672977E-061
   113.355900000000         1.485165704702423E-061
   113.595300000000         1.858390297175465E-061
   113.834700000000         2.069454319756036E-061
   114.074100000000         2.003971067608665E-061
   114.313500000000         1.544294099654463E-061
   114.552900000000         5.892115592342864E-062
   114.792300000000        -9.202540509956594E-062
   115.031700000000        -2.970761921374438E-061
   115.271100000000        -5.445696596763089E-061
   115.510500000000        -8.098456771361901E-061
   115.749900000000        -1.053667887843657E-060
   115.989300000000        -1.222518638915972E-060
   116.228700000000        -1.251567960152502E-060
   116.468100000000        -1.071009135426459E-060
   116.707500000000        -6.161729370389615E-061
   116.946900000000         1.586477124199972E-061
   117.186300000000         1.263417045133103E-060
   117.425700000000         2.654238716016264E-060
   117.665100000000         4.216491856242267E-060
   117.904500000000         5.752768344488384E-060
   118.143900000000         6.979924657742037E-060
   118.383300000000         7.539915162825265E-060
   118.622700000000         7.028764742688549E-060
   118.862100000000         5.046820180419949E-060
   119.101500000000         1.271092852095119E-060
   119.340900000000        -4.453023387914836E-060
   119.580300000000        -1.200802862645843E-059
   119.819700000000        -2.090142318834278E-059
   120.059100000000        -3.018215909040817E-059
   120.298500000000        -3.839993454614120E-059
   120.537900000000        -4.363391259264747E-059
   120.777300000000        -4.361721650058698E-059
   121.016700000000        -3.597854993419567E-059
   121.256100000000        -1.861123068983519E-059
   121.495500000000         9.837963288513182E-060
   121.734900000000         4.939236426914805E-059
   121.974300000000         9.814365092863457E-059
   122.213700000000         1.517194940385388E-058
   122.453100000000         2.029456376517709E-058
   122.692500000000         2.418491079244763E-058
   122.931900000000         2.561545474719525E-058
   123.171300000000         2.324063295087506E-058
   123.410700000000         1.577975318734735E-058
   123.650100000000         2.269786146338727E-059
   123.889500000000        -1.762545639065922E-058
   124.128900000000        -4.327923102138379E-058
   124.368300000000        -7.278613150489331E-058
   124.607700000000        -1.027312543266617E-057
   124.847100000000        -1.281222149431801E-057
   125.086500000000        -1.425674476428249E-057
   125.325900000000        -1.387773029077278E-057
   125.565300000000        -1.094409464081202E-057
   125.804700000000        -4.848891136743250E-058
   126.044100000000         4.731250390261028E-058
   126.283500000000         1.765705417299712E-057
   126.522900000000         3.315076553338600E-057
   126.762300000000         4.965570606658739E-057
   127.001700000000         6.477097049228393E-057
   127.241100000000         7.530486854604870E-057
   127.480500000000         7.748853006856603E-057
   127.719900000000         6.738068965906080E-057
   127.959300000000         4.147440146473652E-057
   128.198700000000        -2.514289411402851E-058
   128.438100000000        -6.473586728033533E-057
   128.677500000000        -1.422817307195052E-056
   128.916900000000        -2.283974695277066E-056
   129.156300000000        -3.120292832632577E-056
   129.395700000000        -3.779208673105160E-056
   129.635100000000        -4.074728856804394E-056
   129.874500000000        -3.805328983691956E-056
   130.113900000000        -2.781919795589021E-056
   130.353300000000        -8.652179781980528E-057
   130.592700000000         1.990033483242527E-056
   130.832100000000         5.688773165622536E-056
   131.071500000000         9.954336104098642E-056
   131.310900000000         1.430126727419406E-055
   131.550300000000         1.803258570134386E-055
   131.789700000000         2.027184014938128E-055
   132.029100000000         2.003850808783603E-055
   132.268500000000         1.637132127941569E-055
   132.507900000000         8.497769665223976E-056
   132.747300000000        -3.960510074490213E-056
   132.986700000000        -2.076692518396249E-055
   133.226100000000        -4.086485799792523E-055
   133.465500000000        -6.222910657766296E-055
   133.704900000000        -8.182106193477452E-055
   133.944300000000        -9.569583581159933E-055
   134.183700000000        -9.930278045077854E-055
   134.423100000000        -8.800445831257270E-055
   134.662500000000        -5.781219216778439E-055
   134.901900000000        -6.299348153018450E-056
   135.141300000000         6.639114490082613E-055
   135.380700000000         1.565762820177460E-054
   135.620100000000         2.562747303426873E-054
   135.859500000000         3.528675993873556E-054
   136.098900000000         4.293940066772659E-054
   136.338300000000         4.656737723551633E-054
   136.577700000000         4.403854171396495E-054
   136.817100000000         3.341181987277278E-054
   137.056500000000         1.332634769628510E-054
   137.295900000000        -1.655777040046616E-054
   137.535300000000        -5.511991142235756E-054
   137.774700000000        -9.941285573261532E-054
   138.014100000000        -1.444571990006478E-053
   138.253500000000        -1.832892068485948E-053
   138.492900000000        -2.073479840879342E-053
   138.732300000000        -2.072641491754749E-053