  -1.79550000000000         0.000000000000000E+000
  -1.55610000000000         0.000000000000000E+000
  -1.31670000000000         0.000000000000000E+000
  -1.07730000000000         0.000000000000000E+000
 -0.837900000000000         0.000000000000000E+000
 -0.598500000000000         0.000000000000000E+000
 -0.359100000000000         0.000000000000000E+000
 -0.119700000000000         0.000000000000000E+000
  0.119700000000000         0.000000000000000E+000
  0.359100000000000         0.000000000000000E+000
  0.598500000000000         0.000000000000000E+000
  0.837900000000000         0.000000000000000E+000
   1.07730000000000         0.000000000000000E+000
   1.31670000000000         0.000000000000000E+000
   1.55610000000000         0.000000000000000E+000
   1.79550000000000         0.000000000000000E+000
   2.03490000000000         0.000000000000000E+000
   2.27430000000000         0.000000000000000E+000
   2.51370000000000         0.000000000000000E+000
   2.75310000000000         0.000000000000000E+000
   2.99250000000000         0.000000000000000E+000
   3.23190000000000         0.000000000000000E+000
   3.47130000000000         0.000000000000000E+000
   3.71070000000000         0.000000000000000E+000
   3.95010000000000         0.000000000000000E+000
   4.18950000000000         0.000000000000000E+000
   4.42890000000000         0.000000000000000E+000
   4.66830000000000         0.000000000000000E+000
   4.90770000000000         0.000000000000000E+000
   5.14710000000000         0.000000000000000E+000
   5.38650000000000         0.000000000000000E+000
   5.62590000000000         0.000000000000000E+000
   5.86530000000000         0.000000000000000E+000
   6.10470000000000         0.000000000000000E+000
   6.34410000000000         0.000000000000000E+000
   6.58350000000000         0.000000000000000E+000
   6.82290000000000         0.000000000000000E+000
   7.06230000000000         0.000000000000000E+000
   7.30170000000000         0.000000000000000E+000
   7.54110000000000         0.000000000000000E+000
   7.78050000000000         0.000000000000000E+000
   8.01990000000000         0.000000000000000E+000
   8.25930000000000         0.000000000000000E+000
   8.49870000000000         0.000000000000000E+000
   8.73810000000000         0.000000000000000E+000
   8.97750000000000         0.000000000000000E+000
   9.21690000000000         5.038498808420117E-189
   9.45630000000000         4.769654554727636E-187
   9.69570000000000        -6.054020969515870E-183
   9.93510000000000        -8.883775851948635E-172
   10.1745000000000        -7.490647465700948E-170
   10.4139000000000         1.400398147088414E-167
   10.6533000000000         1.191540856219734E-165
   10.8927000000000         2.917367482877038E-164
   11.1321000000000        -3.496286158412034E-163
   11.3715000000000        -4.629114965334379E-161
   11.6109000000000        -1.727298223432715E-159
   11.8503000000000        -4.253477374310451E-158
   12.0897000000000        -8.051568785819077E-157
   12.3291000000000        -1.251332797829709E-155
   12.5685000000000        -1.658471995546623E-154
   12.8079000000000        -1.922790753793155E-153
   13.0473000000000        -1.986876458247300E-152
   13.2867000000000        -1.856998908267347E-151
   13.5261000000000        -1.589027516983911E-150
   13.7655000000000        -1.257930818129211E-149
   14.0049000000000        -9.297520170939129E-149
   14.2443000000000        -6.468348008042303E-148
   14.4837000000000        -4.266188364849654E-147
   14.7231000000000        -2.683836898278538E-146
   14.9625000000000        -1.618392517418839E-145
   15.2019000000000        -9.388977810824608E-145
   15.4413000000000        -5.252993888017759E-144
   15.6807000000000        -2.837934017288883E-143
   15.9201000000000        -1.481023397878632E-142
   16.1595000000000        -7.463999955678539E-142
   16.3989000000000        -3.630507750589893E-141
   16.6383000000000        -1.703080374691362E-140
   16.8777000000000        -7.699825717870764E-140
   17.1171000000000        -3.353294508355669E-139
   17.3565000000000        -1.406226564755019E-138
   17.5959000000000        -5.677624145056530E-138
   17.8353000000000        -2.207137653181650E-137
   18.0747000000000        -8.263410098331254E-137
   18.3141000000000        -2.981083946567182E-136
   18.5535000000000        -1.037089545646571E-135
   18.7929000000000        -3.483291060218494E-135
   19.0323000000000        -1.131405844370108E-134
   19.2717000000000        -3.562232354186307E-134
   19.5111000000000        -1.090705185308257E-133
   19.7505000000000        -3.261716114169194E-133
   19.9899000000000        -9.578551675670207E-133
   20.2293000000000        -2.779769218913765E-132
   20.4687000000000        -8.023658655151321E-132
   20.7081000000000        -2.315849493504826E-131
   20.9475000000000        -6.702555957754188E-131
   21.1869000000000        -1.943787381128565E-130
   21.4263000000000        -5.624408267823680E-130
   21.6657000000000        -1.612544383140198E-129
   21.9051000000000        -4.542811294152059E-129
   22.1445000000000        -1.246445637392796E-128
   22.3839000000000        -3.300664839557781E-128
   22.6233000000000        -8.351701868167185E-128
   22.8627000000000        -1.994054429549728E-127
   23.1021000000000        -4.407685505399911E-127
   23.3415000000000        -8.702355250047735E-127
   23.5809000000000        -1.403189046877765E-126
   23.8203000000000        -1.229371057913256E-126
   24.0597000000000         3.007391143883197E-126
   24.2991000000000         2.226530464761601E-125
   24.5385000000000         8.785884985231937E-125
   24.7779000000000         2.809732131959434E-124
   25.0173000000000         7.952923340826271E-124
   25.2567000000000         2.057561274540454E-123
   25.4961000000000         4.932386329917352E-123
   25.7355000000000         1.100793939737749E-122
   25.9749000000000         2.284368816462996E-122
   26.2143000000000         4.376174164449100E-122
   26.4537000000000         7.616054413080209E-122
   26.6931000000000         1.164348973894824E-121
   26.9325000000000         1.440497152834825E-121
   27.1719000000000         1.047410420640757E-121
   27.4113000000000        -9.936217280499660E-122
   27.6507000000000        -5.591004278812813E-121
   27.8901000000000        -1.088996012074443E-120
   28.1295000000000        -3.512390462879575E-121
   28.3689000000000         6.453608446881051E-120
   28.6083000000000         3.285878683312178E-119
   28.8477000000000         1.117308394339283E-118
   29.0871000000000         3.138084433485894E-118
   29.3265000000000         7.743447659960678E-118
   29.5659000000000         1.718052111460558E-117
   29.8053000000000         3.445945455970854E-117
   30.0447000000000         6.190662848224198E-117
   30.2841000000000         9.646233525678600E-117
   30.5235000000000         1.184281334991555E-116
   30.7629000000000         6.955473380818491E-117
   31.0023000000000        -1.809148313885691E-116
   31.2417000000000        -8.697284784635159E-116
   31.4811000000000        -2.318533787873782E-115
   31.7205000000000        -4.703812842283591E-115
   31.9599000000000        -7.254132663908605E-115
   32.1993000000000        -6.127058860047929E-115
   32.4387000000000         1.039049215935394E-114
   32.6781000000000         7.148772578023104E-114
   32.9175000000000         2.409167410434688E-113
   33.1569000000000         6.433955059897686E-113
   33.3963000000000         1.497257090340697E-112
   33.6357000000000         3.136031157987570E-112
   33.8751000000000         5.969025174580020E-112
   34.1145000000000         1.026683412400284E-111
   34.3539000000000         1.554744057860498E-111
   34.5933000000000         1.917611490867901E-111
   34.8327000000000         1.360502176149872E-111
   35.0721000000000        -1.842263303976213E-111
   35.3115000000000        -1.111116400214701E-110
   35.5509000000000        -3.244864497047171E-110
   35.7903000000000        -7.508850965296182E-110
   36.0297000000000        -1.508321412652884E-109
   36.2691000000000        -2.697767944293747E-109
   36.5085000000000        -4.282381701530239E-109
   36.7479000000000        -5.822175732980644E-109
   36.9873000000000        -5.976219723757980E-109
   37.2267000000000        -1.689728006800890E-109
   37.4661000000000         1.293472514156795E-108
   37.7055000000000         4.783505072461306E-108
   37.9449000000000         1.174609322199457E-107
   38.1843000000000         2.387057662497269E-107
   38.4237000000000         4.228705297299593E-107
   38.6631000000000         6.560939397510473E-107
   38.9025000000000         8.606508086304713E-107
   39.1419000000000         8.293311925076017E-107
   39.3813000000000         1.304062835477699E-107
   39.6207000000000        -2.002168205984386E-106
   39.8601000000000        -6.740242305318439E-106
   40.0995000000000        -1.557077193904361E-105
   40.3389000000000        -2.980809523019862E-105
   40.5783000000000        -4.933076559593553E-105
   40.8177000000000        -7.003316765222829E-105
   41.0571000000000        -7.947993037102131E-105
   41.2965000000000        -5.061144453654637E-105
   41.5359000000000         6.553933455291023E-105
   41.7753000000000         3.447535177010683E-104
   42.0147000000000         8.845160676395454E-104
   42.2541000000000         1.774839163494699E-103
   42.4935000000000         3.023202196991209E-103
   42.7329000000000         4.405734100322083E-103
   42.9723000000000         5.219566259072598E-103
   43.2117000000000         3.936172357942218E-103
   43.4511000000000        -2.177058334477616E-103
   43.6905000000000        -1.726400554243792E-102
   43.9299000000000        -4.648629103087186E-102
   44.1693000000000        -9.428450777218691E-102
   44.4087000000000        -1.602118773624551E-101
   44.6481000000000        -2.310881050938575E-101
   44.8875000000000        -2.686114917376303E-101
   45.1269000000000        -1.931788125292054E-101
   45.3663000000000         1.315793806770598E-101
   45.6057000000000         9.021331210728898E-101
   45.8451000000000         2.344248818040943E-100
   46.0845000000000         4.612794335391042E-100
   46.3239000000000         7.575458326520410E-100
   46.5633000000000         1.043445688986628E-099
   46.8027000000000         1.117233470681955E-099
   47.0421000000000         5.900282198078515E-100
   47.2815000000000        -1.162409960312666E-099
   47.5209000000000        -4.972741589633048E-099
   47.7603000000000        -1.167781664230663E-098
   47.9997000000000        -2.158734743669582E-098
   48.2391000000000        -3.344869874873646E-098
   48.4785000000000        -4.277395103987718E-098
   48.7179000000000        -3.958947661524695E-098
   48.9573000000000        -6.124907935286235E-099
   49.1967000000000         8.420394066638531E-098
   49.4361000000000         2.638816053141870E-097
   49.6755000000000         5.601995622046938E-097
   49.9149000000000         9.702758571741462E-097
   50.1543000000000         1.416297010335872E-096
   50.3937000000000         1.678197525745910E-096
   50.6331000000000         1.310419202010951E-096
   50.8725000000000        -4.311255027713930E-097
   51.1119000000000        -4.592962956807874E-096
   51.3513000000000        -1.235360817598066E-095
   51.5907000000000        -2.452110913164918E-095
   51.8301000000000        -4.050403805183507E-095
   52.0695000000000        -5.658364849564421E-095
   52.3089000000000        -6.346836797606539E-095
   52.5483000000000        -4.349594142837719E-095
   52.7877000000000         3.142715138720509E-095
   53.0271000000000         1.989228998839138E-094
   53.2665000000000         4.985582859971306E-094
   53.5059000000000         9.523516501221212E-094
   53.7453000000000         1.527411960185769E-093
   53.9847000000000         2.076293075220369E-093
   54.2241000000000         2.256722273245862E-093
   54.4635000000000         1.445880984128350E-093
   54.7029000000000        -1.311795889341612E-093
   54.9423000000000        -7.249129351771480E-093
   55.1817000000000        -1.759558763614459E-092
   55.4211000000000        -3.291491640011813E-092
   55.6605000000000        -5.189512715581329E-092
   55.8999000000000        -6.949014931264611E-092
   56.1393000000000        -7.451615098047890E-092
   56.3787000000000        -4.722405682691485E-092
   56.6181000000000         4.193144798894265E-092
   56.8575000000000         2.301196169377066E-091
   57.0969000000000         5.532047064144795E-091
   57.3363000000000         1.025770898925264E-090
   57.5757000000000         1.605820260024262E-090
   57.8151000000000         2.142008738241130E-090
   58.0545000000000         2.307204354863630E-090
   58.2939000000000         1.533677768492447E-090
   58.5333000000000        -1.016243441745580E-090
   58.7727000000000        -6.384977585356267E-090
   59.0121000000000        -1.557270821009934E-089
   59.2515000000000        -2.900014600020379E-089
   59.4909000000000        -4.557674676835231E-089
   59.7303000000000        -6.132855980842278E-089
   59.9697000000000        -6.769075226145241E-089
   60.2091000000000        -4.985394791193825E-089
   60.4485000000000         1.400125031699860E-089
   60.6879000000000         1.511536030085280E-088
   60.9273000000000         3.883996359081535E-088
   61.1667000000000         7.391760211807929E-088
   61.4061000000000         1.181324216146284E-087
   61.6455000000000         1.624425969301973E-087
   61.8849000000000         1.869032059655779E-087
   62.1243000000000         1.566392795049170E-087
   62.3637000000000         1.970258199792715E-088
   62.6031000000000        -2.900700910974778E-087
   62.8425000000000        -8.406867695600966E-087
   63.0819000000000        -1.674583004737869E-086
   63.3213000000000        -2.760811184263265E-086
   63.5607000000000        -3.924158995991918E-086
   63.8001000000000        -4.755278079119540E-086
   64.0395000000000        -4.518408828206556E-086
   64.2789000000000        -2.092606327128223E-086
   64.5183000000000         3.992084953230081E-086
   64.7577000000000         1.533406436778573E-085
   64.9971000000000         3.314410633737593E-085
   65.2365000000000         5.732286042437430E-085
   65.4759000000000         8.506608969045792E-085
   65.7153000000000         1.090511084596302E-084
   65.9547000000000         1.154816543820405E-084
   66.1941000000000         8.261709498188051E-085
   66.4335000000000        -1.912214268298278E-085
   66.6729000000000        -2.238587702927746E-084
   66.9123000000000        -5.617247734553709E-084
   67.1517000000000        -1.042954523322646E-083
   67.3911000000000        -1.633113078585000E-083
   67.6305000000000        -2.219832124760010E-083
   67.8699000000000        -2.575028119401216E-083
   68.1093000000000        -2.322291746730014E-083
   68.3487000000000        -9.269177139612066E-084
   68.5881000000000         2.264972034376201E-083
   68.8275000000000         7.903715684420337E-083
   69.0669000000000         1.639208832137677E-082
   69.3063000000000         2.748968818891900E-082
   69.5457000000000         3.976113315008173E-082
   69.7851000000000         4.991558086590718E-082
   70.0245000000000         5.217008306673486E-082
   70.2639000000000         3.788793861365333E-082
   70.5033000000000        -4.114949727471442E-083
   70.7427000000000        -8.606612018375540E-082
   70.9821000000000        -2.179270271714246E-081
   71.2215000000000        -4.017312630785736E-081
   71.4609000000000        -6.233323789642592E-081
   71.7003000000000        -8.419991283543246E-081
   71.9397000000000        -9.794421461427076E-081
   72.1791000000000        -9.115070122955253E-081
   72.4185000000000        -4.678178972036795E-081
   72.6579000000000         5.532330502391350E-081
   72.8973000000000         2.345239382054936E-080
   73.1367000000000         5.021482612433525E-080
   73.3761000000000         8.503943874188643E-080
   73.6155000000000         1.237580688794603E-079
   73.8549000000000         1.571362340006637E-079
   74.0943000000000         1.693624536163035E-079
   74.3337000000000         1.373467770369588E-079
   74.5731000000000         3.176643626676083E-080
   74.8125000000000        -1.789549519880882E-079
   75.0519000000000        -5.204685123629813E-079
   75.2913000000000        -9.991134451182394E-079
   75.5307000000000        -1.583113143210586E-078
   75.7701000000000        -2.179684949609558E-078
   76.0095000000000        -2.611809799423990E-078
   76.2489000000000        -2.601667121490293E-078
   76.4883000000000        -1.771521823046103E-078
   76.7277000000000         3.235936207979946E-079
   76.9671000000000         4.115015116879222E-078
   77.2065000000000         9.876346776140973E-078
   77.4459000000000         1.750811063906415E-077
   77.6853000000000         2.625833698665829E-077
   77.9247000000000         3.441158913136990E-077
   78.1641000000000         3.901472918070320E-077
   78.4035000000000         3.575161766176221E-077
   78.6429000000000         1.912412088296913E-077
   78.8823000000000        -1.686920368258879E-077
   79.1217000000000        -7.736144331245729E-077
   79.3611000000000        -1.644081457005664E-076
   79.6005000000000        -2.739290242460076E-076
   79.8399000000000        -3.920286007730939E-076
   80.0793000000000        -4.912821817551595E-076
   80.3187000000000        -5.280372275987956E-076
   80.5581000000000        -4.422950723509979E-076
   80.7975000000000        -1.621944348368073E-076
   81.0369000000000         3.846589025369983E-076
   81.2763000000000         1.251021560285779E-075
   81.5157000000000         2.440010867481454E-075
   81.7551000000000         3.866317311922493E-075
   81.9945000000000         5.312931991878638E-075
   82.2339000000000         6.392149100210419E-075
   82.4733000000000         6.524900753922010E-075
   82.7127000000000         4.957752151770838E-075
   82.9521000000000         8.406470251481248E-076
   83.1915000000000        -6.611383666844203E-075
   83.4309000000000        -1.785550498729920E-074
   83.6703000000000        -3.265558243474695E-074
   83.9097000000000        -4.963883823253125E-074
   84.1491000000000        -6.583856832843467E-074
   84.3885000000000        -7.633620083790855E-074
   84.6279000000000        -7.416973621034676E-074
   84.8673000000000        -5.072238992163286E-074
   85.1067000000000         3.172312421505311E-075
   85.3461000000000         9.519751646197812E-074
   85.5855000000000         2.284786148886121E-073
   85.8249000000000         3.975495288626309E-073
   86.0643000000000         5.837502602158602E-073
   86.3037000000000         7.508635460255002E-073
   86.5431000000000         8.422892911603737E-073
   86.7825000000000         7.815418341012701E-073
   87.0219000000000         4.782080138088618E-073
   87.2613000000000        -1.584568158657786E-073
   87.5007000000000        -1.196611019959557E-072
   87.7401000000000        -2.649155568465388E-072
   87.9795000000000        -4.433069963927356E-072
   88.2189000000000        -6.325707215580751E-072
   88.4583000000000        -7.927036452768619E-072
   88.6977000000000        -8.641235238468225E-072
   88.9371000000000        -7.694959635861279E-072
   89.1765000000000        -4.211762251352506E-072
   89.4159000000000         2.639191570298770E-072
   89.6553000000000         1.340862525896934E-071
   89.8947000000000         2.804914897008475E-071
   90.1341000000000         4.553799421032708E-071
   90.3735000000000         6.349466224732151E-071
   90.6129000000000         7.788325964187375E-071
   90.8523000000000         8.292541412978642E-071
   91.0917000000000         7.137786843854597E-071
   91.3311000000000         3.533742020925220E-071
   91.5705000000000        -3.228935108353158E-071
   91.8099000000000        -1.355878383151491E-070
   92.0493000000000        -2.727790961610328E-070
   92.2887000000000        -4.329754063603428E-070
   92.5281000000000        -5.930746544816596E-070
   92.7675000000000        -7.156088799350696E-070
   93.0069000000000        -7.486331644809979E-070
   93.2463000000000        -6.289201508991213E-070
   93.4857000000000        -2.897165414558731E-070
   93.7251000000000         3.259883687970520E-070
   93.9645000000000         1.246439968833404E-069
   94.2039000000000         2.447280893313260E-069
   94.4433000000000         3.825498475017937E-069
   94.6827000000000         5.175792910023732E-069
   94.9221000000000         6.176166766835490E-069
   95.1615000000000         6.391411151590253E-069
   95.4009000000000         5.304156573166526E-069
   95.6403000000000         2.382538813441221E-069
   95.8797000000000        -2.809475640602290E-069
   96.1191000000000        -1.045913282955051E-068
   96.3585000000000        -2.031884462075989E-068
   96.5979000000000        -3.150936170199646E-068
   96.8373000000000        -4.234948768637939E-068
   97.0767000000000        -5.026484324018103E-068
   97.3161000000000        -5.184030626530848E-068
   97.5555000000000        -4.308544835058892E-068
   97.7949000000000        -1.997445320406483E-068
   98.0343000000000         2.070351165606943E-068
   98.2737000000000         8.019479393605547E-068
   98.5131000000000         1.564146258531097E-067
   98.7525000000000         2.425368378876712E-067
   98.9919000000000         3.258172386890025E-067
   99.2313000000000         3.870286464384010E-067
   99.4707000000000         4.009599162274686E-067
   99.7101000000000         3.384496288016077E-067
   99.9495000000000         1.703538849629677E-067
   100.188900000000        -1.263452786374457E-067
   100.428300000000        -5.604223525123381E-067
   100.667700000000        -1.116901478124649E-066
   100.907100000000        -1.747395128340868E-066
   101.146500000000        -2.362203399031034E-066
   101.385900000000        -2.826727308672471E-066
   101.625300000000        -2.965193289425431E-066
   101.864700000000        -2.574744875140015E-066
   102.104100000000        -1.452423369449061E-066
   102.343500000000         5.637602274408008E-067
   102.582900000000         3.540694090918224E-066
   102.822300000000         7.387166110238183E-066
   103.061700000000         1.179009885740758E-065
   103.301100000000         1.616237966301856E-065
   103.540500000000         1.961857344636128E-065
   103.779900000000         2.099745801541630E-065
   104.019300000000         1.895054481953137E-065
   104.258700000000         1.211230456130336E-065
   104.498100000000        -6.404131404079766E-067
   104.737500000000        -1.984601963584413E-065
   104.976900000000        -4.505839807267984E-065
   105.216300000000        -7.443890307046105E-065
   105.455700000000        -1.044150858580413E-064
   105.695100000000        -1.295048260101325E-064
   105.934500000000        -1.424208177850843E-064
   106.173900000000        -1.345724648287140E-064
   106.413300000000        -9.706303549706140E-065
   106.652700000000        -2.223294974017554E-065
   106.892100000000         9.427895802080251E-065
   107.131500000000         2.510956608857170E-064
   107.370900000000         4.385609846020261E-064
   107.610300000000         6.365259402441889E-064
   107.849700000000         8.130332134248463E-064
   108.089100000000         9.245738406497798E-064
   108.328500000000         9.186166602296053E-064
   108.567900000000         7.390206109357034E-064
   108.807300000000         3.346947850921732E-064
   109.046700000000        -3.285552084424070E-064
   109.286100000000        -1.253669200388646E-063
   109.525500000000        -2.396911664303272E-063
   109.764900000000        -3.653705881836324E-063
   110.004300000000        -4.848890046060207E-063
   110.243700000000        -5.735229711267127E-063
   110.483100000000        -6.004303310409475E-063
   110.722500000000        -5.313548228716983E-063
   110.961900000000        -3.332094506102515E-063
   111.201300000000         1.941491373264890E-064
   111.440700000000         5.360926313852211E-063
   111.680100000000         1.201456709001657E-062
   111.919500000000         1.966330742733754E-062
   112.158900000000         2.740789170805500E-062
   112.398300000000         3.391265775168802E-062
   112.637700000000         3.744080874046717E-062
   112.877100000000         3.597703103919535E-062
   113.116500000000         2.745573921566570E-062
   113.355900000000         1.010292179989734E-062
   113.595300000000        -1.711681585682660E-062
   113.834700000000        -5.397872531956515E-062
   114.074100000000        -9.845962569499226E-062
   114.313500000000        -1.462696612632545E-061
   114.552900000000        -1.905679379466803E-061
   114.792300000000        -2.219951697087778E-061
   115.031700000000        -2.291611985413279E-061
   115.271100000000        -1.997080445626904E-061
   115.510500000000        -1.220231442417666E-061
   115.749900000000         1.240225539897204E-062
   115.989300000000         2.060891789105955E-061
   116.228700000000         4.524262968989376E-061
   116.468100000000         7.326935768696745E-061
   116.707500000000         1.013846245265146E-060
   116.946900000000         1.247784134909137E-060
   117.186300000000         1.372897953428357E-060
   117.425700000000         1.318642620076890E-060
   117.665100000000         1.013697724177200E-060
   117.904500000000         3.979032497504749E-061
   118.143900000000        -5.624111287073284E-061
   118.383300000000        -1.856841393792446E-060
   118.622700000000        -3.413101789678694E-060
   118.862100000000        -5.081965124430926E-060
   119.101500000000        -6.628758696063862E-060
   119.340900000000        -7.735771201559860E-060
   119.580300000000        -8.019960671203894E-060
   119.819700000000        -7.069644170945362E-060
   120.059100000000        -4.502193671321374E-060
   120.298500000000        -4.203205346944410E-062
   120.537900000000         6.385576876682994E-060
   120.777300000000         1.455412787082554E-059
   121.016700000000         2.384317286115878E-059
   121.256100000000         3.317251103635059E-059
   121.495500000000         4.098615261683742E-059
   121.734900000000         4.531028408891054E-059
   121.974300000000         4.390722318652021E-059
   122.213700000000         3.454037580857115E-059
   122.453100000000         1.535266987824603E-059
   122.692500000000        -1.465737163558400E-059
   122.931900000000        -5.510115282694116E-059
   123.171300000000        -1.036729742035908E-058
   123.410700000000        -1.557229356292689E-058
   123.650100000000        -2.040443515577568E-058
   123.889500000000        -2.390021154382518E-058
   124.128900000000        -2.491237556448192E-058
   124.368300000000        -2.222475609369575E-058
   124.607700000000        -1.472673400447444E-058
   124.847100000000        -1.642905176572046E-059
   125.086500000000         1.719771781371121E-058
   125.325900000000         4.108175771242194E-058
   125.565300000000         6.816326828498232E-058
   125.804700000000         9.530192113624990E-058
   126.044100000000         1.180501615410851E-057
   126.283500000000         1.308525510395118E-057
   126.522900000000         1.275107921405802E-057
   126.762300000000         1.019452841168252E-057
   127.001700000000         4.924707621565905E-058
   127.241100000000        -3.303679760328331E-058
   127.480500000000        -1.435034491727502E-057
   127.719900000000        -2.755653893363691E-057
   127.959300000000        -4.164411717955471E-057
   128.198700000000        -5.467599862887922E-057
   128.438100000000        -6.410905459872149E-057
   128.677500000000        -6.696752084575487E-057
   128.916900000000        -6.015627417621202E-057
   129.156300000000        -4.091791679274290E-057
   129.395700000000        -7.415513765782269E-058
   129.635100000000         4.060493387450127E-057
   129.874500000000         1.011492512473396E-056
   130.113900000000         1.694145632856540E-056
   130.353300000000         2.374656837931394E-056
   130.592700000000         2.942932803121949E-056
   130.832100000000         3.263925363139843E-056
   131.071500000000         3.189698836891547E-056
   131.310900000000         2.578247322838707E-056
   131.550300000000         1.318616090808587E-056
   131.789700000000        -6.393110953781977E-057
   132.029100000000        -3.253377642934303E-056
   132.268500000000        -6.360508011188595E-056
   132.507900000000        -9.656520577784565E-056
   132.747300000000        -1.269085671551027E-055
   132.986700000000        -1.488272453610698E-055
   133.226100000000        -1.556416546718016E-055
   133.465500000000        -1.405330362029498E-055
   133.704900000000        -9.757424158218889E-056
   133.944300000000        -2.300620123101243E-056
   134.183700000000         8.335144929358570E-056
   134.423100000000         2.167300876296150E-055
   134.662500000000         3.663151111736668E-055
   134.901900000000         5.146980536558947E-055
   135.141300000000         6.381683612800203E-055
   135.380700000000         7.081092536558796E-055
   135.620100000000         6.936842948995704E-055
   135.859500000000         5.658652952985684E-055
   136.098900000000         3.026583234505572E-055
   136.338300000000        -1.048573516572165E-055
   136.577700000000        -6.463317485211649E-055
   136.817100000000        -1.286706042984510E-054
   137.056500000000        -1.962665983990859E-054
   137.295900000000        -2.582232068759848E-054
   137.535300000000        -3.028689154011578E-054
   137.774700000000        -3.169810675075949E-054
   138.014100000000        -2.872845471973065E-054
   138.253500000000        -2.024999119057257E-054
   138.492900000000        -5.581833651575951E-055
   138.732300000000         1.524301809020876E-054