  -1.79550000000000         0.000000000000000E+000
  -1.55610000000000         0.000000000000000E+000
  -1.31670000000000         0.000000000000000E+000
  -1.07730000000000         0.000000000000000E+000
 -0.837900000000000         0.000000000000000E+000
 -0.598500000000000         0.000000000000000E+000
 -0.359100000000000         0.000000000000000E+000
 -0.119700000000000         0.000000000000000E+000
  0.119700000000000         0.000000000000000E+000
  0.359100000000000         0.000000000000000E+000
  0.598500000000000         0.000000000000000E+000
  0.837900000000000         0.000000000000000E+000
   1.07730000000000         0.000000000000000E+000
   1.31670000000000         0.000000000000000E+000
   1.55610000000000         0.000000000000000E+000
   1.79550000000000         0.000000000000000E+000
   2.03490000000000         0.000000000000000E+000
   2.27430000000000         0.000000000000000E+000
   2.51370000000000         0.000000000000000E+000
   2.75310000000000         0.000000000000000E+000
   2.99250000000000         0.000000000000000E+000
   3.23190000000000         0.000000000000000E+000
   3.47130000000000         0.000000000000000E+000
   3.71070000000000         0.000000000000000E+000
   3.95010000000000         0.000000000000000E+000
   4.18950000000000         0.000000000000000E+000
   4.42890000000000         0.000000000000000E+000
   4.66830000000000         0.000000000000000E+000
   4.90770000000000         0.000000000000000E+000
   5.14710000000000         0.000000000000000E+000
   5.38650000000000         0.000000000000000E+000
   5.62590000000000         0.000000000000000E+000
   5.86530000000000         0.000000000000000E+000
   6.10470000000000         0.000000000000000E+000
   6.34410000000000         0.000000000000000E+000
   6.58350000000000         0.000000000000000E+000
   6.82290000000000         0.000000000000000E+000
   7.06230000000000         0.000000000000000E+000
   7.30170000000000         0.000000000000000E+000
   7.54110000000000         0.000000000000000E+000
   7.78050000000000         0.000000000000000E+000
   8.01990000000000         0.000000000000000E+000
   8.25930000000000         0.000000000000000E+000
   8.49870000000000         7.697362366903292E-188
   8.73810000000000        -9.800054278449387E-181
   8.97750000000000         6.939304390705656E-175
   9.21690000000000         4.861393655147101E-173
   9.45630000000000         4.986443792913797E-169
   9.69570000000000         3.918775209954258E-167
   9.93510000000000         1.469058368830937E-165
   10.1745000000000         3.467386351730151E-164
   10.4139000000000         5.556800750526390E-163
   10.6533000000000         5.457799398749889E-162
   10.8927000000000        -1.940595564299398E-162
   11.1321000000000        -1.461410200276866E-159
   11.3715000000000        -3.904828511191085E-158
   11.6109000000000        -7.116947917070355E-157
   11.8503000000000        -1.048793950030503E-155
   12.0897000000000        -1.321693396547699E-154
   12.3291000000000        -1.462953638550360E-153
   12.5685000000000        -1.444767185072375E-152
   12.8079000000000        -1.286312715999286E-151
   13.0473000000000        -1.040032357178304E-150
   13.2867000000000        -7.675345882922457E-150
   13.5261000000000        -5.185938247302606E-149
   13.7655000000000        -3.210654931508380E-148
   14.0049000000000        -1.817360085590901E-147
   14.2443000000000        -9.338304020336169E-147
   14.4837000000000        -4.283105702700438E-146
   14.7231000000000        -1.683654758179396E-145
   14.9625000000000        -5.011320845805561E-145
   15.2019000000000        -4.524628517994974E-145
   15.4413000000000         8.416756080987965E-144
   15.6807000000000         9.088478767559677E-143
   15.9201000000000         6.488129824489797E-142
   16.1595000000000         3.888676436124725E-141
   16.3989000000000         2.093030817936526E-140
   16.6383000000000         1.041897453837692E-139
   16.8777000000000         4.874179990588253E-139
   17.1171000000000         2.164409516886115E-138
   17.3565000000000         9.185600369357787E-138
   17.5959000000000         3.744387713757516E-137
   17.8353000000000         1.471736048718548E-136
   18.0747000000000         5.594745136532302E-136
   18.3141000000000         2.062075619043488E-135
   18.5535000000000         7.383790736328960E-135
   18.7929000000000         2.572895108518913E-134
   19.0323000000000         8.736076121445684E-134
   19.2717000000000         2.893553989810748E-133
   19.5111000000000         9.357028784307265E-133
   19.7505000000000         2.956109324021338E-132
   19.9899000000000         9.128317788005289E-132
   20.2293000000000         2.756116704192039E-131
   20.4687000000000         8.138348407908112E-131
   20.7081000000000         2.350474756293252E-130
   20.9475000000000         6.639920691188488E-130
   21.1869000000000         1.834536527950511E-129
   21.4263000000000         4.956490403871965E-129
   21.6657000000000         1.309153887311430E-128
   21.9051000000000         3.379147925829438E-128
   22.1445000000000         8.519015756907928E-128
   22.3839000000000         2.096125351204651E-127
   22.6233000000000         5.028704857915617E-127
   22.8627000000000         1.174668715370122E-126
   23.1021000000000         2.666772869051966E-126
   23.3415000000000         5.868736440685588E-126
   23.5809000000000         1.247373395244161E-125
   23.8203000000000         2.546844987434406E-125
   24.0597000000000         4.954064530410152E-125
   24.2991000000000         9.055620290603592E-125
   24.5385000000000         1.516621385030712E-124
   24.7779000000000         2.200303228985070E-124
   25.0173000000000         2.313444112926089E-124
   25.2567000000000        -1.221053145409774E-125
   25.4961000000000        -1.007740954126136E-123
   25.7355000000000        -3.836228724929467E-123
   25.9749000000000        -1.052455882402571E-122
   26.2143000000000        -2.412863332067224E-122
   26.4537000000000        -4.722119308963000E-122
   26.6931000000000        -7.495296230014685E-122
   26.9325000000000        -7.292252628436055E-122
   27.1719000000000         8.273055669568322E-122
   27.4113000000000         7.510455548670143E-121
   27.6507000000000         2.851806561832160E-120
   27.8901000000000         8.538610084329650E-120
   28.1295000000000         2.248369686240424E-119
   28.3689000000000         5.411332802704943E-119
   28.6083000000000         1.210351617372804E-118
   28.8477000000000         2.532487816402425E-118
   29.0871000000000         4.956936093707120E-118
   29.3265000000000         9.016469046639417E-118
   29.5659000000000         1.498649426287107E-117
   29.8053000000000         2.187860522326386E-117
   30.0447000000000         2.502227647317342E-117
   30.2841000000000         1.096265946553511E-117
   30.5235000000000        -5.220844630371375E-117
   30.7629000000000        -2.312870514837813E-116
   31.0023000000000        -6.523484251595972E-116
   31.2417000000000        -1.529695248629158E-115
   31.4811000000000        -3.183459650658664E-115
   31.7205000000000        -6.002274076102700E-115
   31.9599000000000        -1.025409040372512E-114
   32.1993000000000        -1.555752746507621E-114
   32.4387000000000        -1.969254361996044E-114
   32.6781000000000        -1.627191634730598E-114
   32.9175000000000         9.304335762641236E-115
   33.1569000000000         8.601938087567559E-114
   33.3963000000000         2.650586326952074E-113
   33.6357000000000         6.263947002722292E-113
   33.8751000000000         1.276043426085385E-112
   34.1145000000000         2.316162154476341E-112
   34.3539000000000         3.754225723078614E-112
   34.5933000000000         5.295138045477313E-112
   34.8327000000000         5.935638323307643E-112
   35.0721000000000         3.268494395870479E-112
   35.3115000000000        -7.560487999670631E-112
   35.5509000000000        -3.514855605259843E-111
   35.7903000000000        -9.290874758977904E-111
   36.0297000000000        -1.986591563028490E-110
   36.2691000000000        -3.700808472442727E-110
   36.5085000000000        -6.112562773987557E-110
   36.7479000000000        -8.827280684729337E-110
   36.9873000000000        -1.044932126888663E-109
   37.2267000000000        -7.647066709382332E-110
   37.4661000000000         6.183862537750923E-110
   37.7055000000000         4.246417733933056E-109
   37.9449000000000         1.184679720165042E-108
   38.1843000000000         2.561570742981641E-108
   38.4237000000000         4.755016947141037E-108
   38.6631000000000         7.767007385199792E-108
   38.9025000000000         1.103162375327983E-107
   39.1419000000000         1.275554810956516E-107
   39.3813000000000         8.895931567743471E-108
   39.6207000000000        -8.180697416156151E-108
   39.8601000000000        -5.101679573734742E-107
   40.0995000000000        -1.374193066496530E-106
   40.3389000000000        -2.878872178804880E-106
   40.5783000000000        -5.166360864558254E-106
   40.8177000000000        -8.109159211638323E-106
   41.0571000000000        -1.091842073941184E-105
   41.2965000000000        -1.150427951093022E-105
   41.5359000000000        -5.579633424479860E-106
   41.7753000000000         1.434741585953006E-105
   42.0147000000000         5.962638894452611E-105
   42.2541000000000         1.447352295412716E-104
   42.4935000000000         2.833003602555500E-104
   42.7329000000000         4.779500023780457E-104
   42.9723000000000         7.001603640651910E-104
   43.2117000000000         8.562414852773986E-104
   43.4511000000000         7.380032915869017E-104
   43.6905000000000        -3.615963889117071E-105
   43.9299000000000        -2.068779481980122E-103
   44.1693000000000        -6.171721235470704E-103
   44.4087000000000        -1.320782887386956E-102
   44.6481000000000        -2.364852342597627E-102
   44.8875000000000        -3.666573013143803E-102
   45.1269000000000        -4.857243328318225E-102
   45.3663000000000        -5.052685573804299E-102
   45.6057000000000        -2.572125795190812E-102
   45.8451000000000         5.308107708696522E-102
   46.0845000000000         2.236871587731278E-101
   46.3239000000000         5.286899743292548E-101
   46.5633000000000         9.981740898321290E-101
   46.8027000000000         1.613619491809388E-100
   47.0421000000000         2.245657277811256E-100
   47.2815000000000         2.562371389856616E-100
   47.5209000000000         1.916628199135529E-100
   47.7603000000000        -7.550185123138735E-101
   47.9997000000000        -6.948833679290229E-100
   48.2391000000000        -1.839509587955160E-099
   48.4785000000000        -3.644580510630107E-099
   48.7179000000000        -6.079685880838989E-099
   48.9573000000000        -8.730068557613858E-099
   49.1967000000000        -1.047766789374526E-098
   49.4361000000000        -9.113722789174987E-099
   49.6755000000000        -9.951367604877886E-100
   49.9149000000000         1.901267244334562E-098
   50.1543000000000         5.688449612868401E-098
   50.3937000000000         1.174547056458798E-097
   50.6331000000000         2.003454121568424E-097
   50.8725000000000         2.931092067682138E-097
   51.1119000000000         3.614090356452758E-097
   51.3513000000000         3.373474594227661E-097
   51.5907000000000         1.094692742224188E-097
   51.8301000000000        -4.782756402716579E-097
   52.0695000000000        -1.606368884736060E-096
   52.3089000000000        -3.420940779485674E-096
   52.5483000000000        -5.915853621030894E-096
   52.7877000000000        -8.738313408723665E-096
   53.0271000000000        -1.091648219418209E-095
   53.2665000000000        -1.054410790644035E-095
   53.5059000000000        -4.522510205283193E-096
   53.7453000000000         1.144164457558052E-095
   53.9847000000000         4.226042412206068E-095
   54.2241000000000         9.186635752740457E-095
   54.4635000000000         1.600887604977837E-094
   54.7029000000000         2.376107293362336E-094
   54.9423000000000         2.990421960388988E-094
   55.1817000000000         2.950785540742075E-094
   55.4211000000000         1.463225638785562E-094
   55.6605000000000        -2.563130941187044E-094
   55.8999000000000        -1.036846773665561E-093
   56.1393000000000        -2.294660500131745E-093
   56.3787000000000        -4.028618806058789E-093
   56.6181000000000        -6.016319505004974E-093
   56.8575000000000        -7.650219125544127E-093
   57.0969000000000        -7.753924065509102E-093
   57.3363000000000        -4.438118987332713E-093
   57.5757000000000         4.892814849968522E-093
   57.8151000000000         2.321058798661481E-092
   58.0545000000000         5.297960149406713E-092
   58.2939000000000         9.446978399007255E-092
   58.5333000000000         1.430792258394620E-091
   58.7727000000000         1.856973698947262E-091
   59.0121000000000         1.965879332694547E-091
   59.2515000000000         1.340168895178276E-091
   59.4909000000000        -6.009092120528775E-092
   59.7303000000000        -4.539131277965905E-091
   59.9697000000000        -1.108171938397099E-090
   60.2091000000000        -2.042006913621641E-090
   60.4485000000000        -3.178125983868851E-090
   60.6879000000000        -4.267082245539121E-090
   60.9273000000000        -4.798921532289399E-090
   61.1667000000000        -3.924554942499194E-090
   61.4061000000000        -4.294508284203268E-091
   61.6455000000000         7.172964756269191E-090
   61.8849000000000         2.033649200077496E-089
   62.1243000000000         3.986047121091130E-089
   62.3637000000000         6.485905286439683E-089
   62.6031000000000         9.129255231459640E-089
   62.8425000000000         1.101727195223899E-088
   63.0819000000000         1.057976234146140E-088
   63.3213000000000         5.473162131710475E-089
   63.5607000000000        -7.329671661589391E-089
   63.8001000000000        -3.109244348256704E-088
   64.0395000000000        -6.831088998585683E-088
   64.2789000000000        -1.189553700955885E-087
   64.5183000000000        -1.778481434246681E-087
   64.7577000000000        -2.312714269308373E-087
   64.9971000000000        -2.532850967559097E-087
   65.2365000000000        -2.028230847176649E-087
   65.4759000000000        -2.342552066564617E-088
   65.7153000000000         3.516410600617101E-087
   65.9547000000000         9.853383019972862E-087
   66.1941000000000         1.910064115222071E-086
   66.4335000000000         3.085099905759465E-086
   66.6729000000000         4.337954630500365E-086
   66.9123000000000         5.294661101706966E-086
   67.1517000000000         5.312931172433359E-086
   67.3911000000000         3.444595181964570E-086
   67.6305000000000        -1.530923715215676E-086
   67.8699000000000        -1.094487110041921E-085
   68.1093000000000        -2.588151315436066E-085
   68.3487000000000        -4.655996651455987E-085
   68.5881000000000        -7.141902561368545E-085
   68.8275000000000        -9.593570918111686E-085
   69.0669000000000        -1.113282198443369E-084
   69.3063000000000        -1.034752900278271E-084
   69.5457000000000        -5.262221528627749E-085
   69.7851000000000         6.528810440497632E-085
   70.0245000000000         2.745854848745458E-084
   70.2639000000000         5.919764341546917E-084
   70.5033000000000         1.013821648363322E-083
   70.7427000000000         1.498342151653133E-083
   70.9821000000000         1.943956966469130E-083
   71.2215000000000         2.167322012592280E-083
   71.4609000000000         1.887978966374317E-083
   71.7003000000000         7.306181130082764E-084
   71.9397000000000        -1.739842124736022E-083
   72.1791000000000        -5.932117797119022E-083
   72.4185000000000        -1.207324710644687E-082
   72.6579000000000        -1.997201702262284E-082
   72.8973000000000        -2.870423456026207E-082
   73.1367000000000        -3.625047145885488E-082
   73.3761000000000        -3.915877574704995E-082
   73.6155000000000        -3.236027384310770E-082
   73.8549000000000        -9.328887061029909E-083
   74.0943000000000         3.716545158530042E-082
   74.3337000000000         1.134301188999398E-081
   74.5731000000000         2.220995775634569E-081
   74.8125000000000         3.581437131322686E-081
   75.0519000000000         5.037968230745687E-081
   75.2913000000000         6.230353276883400E-081
   75.5307000000000         6.568975351867185E-081
   75.7701000000000         5.217672648333631E-081
   76.0095000000000         1.136199708865029E-081
   76.2489000000000        -6.780678767820685E-081
   76.4883000000000        -1.942870159477386E-080
   76.7277000000000        -3.705379085735755E-080
   76.9671000000000        -5.863953202478337E-080
   77.2065000000000        -8.116151964089626E-080
   77.4459000000000        -9.881821958601129E-080
   77.6853000000000        -1.024432138851934E-079
   77.9247000000000        -7.941544894448662E-080
   78.1641000000000        -1.449318651724976E-080
   78.4035000000000         1.079296961655968E-079
   78.6429000000000         2.996587109095943E-079
   78.8823000000000         5.622990933211852E-079
   79.1217000000000         8.786731429139943E-079
   79.3611000000000         1.202762087740212E-078
   79.6005000000000         1.449843267715926E-078
   79.8399000000000         1.489729624681443E-078
   80.0793000000000         1.147391084352032E-078
   80.3187000000000         2.164694770517754E-079
   80.5581000000000        -1.508155312382510E-078
   80.7975000000000        -4.173146863477750E-078
   81.0369000000000        -7.781745033160821E-078
   81.2763000000000        -1.208317288641639E-077
   81.5157000000000        -1.644706920464681E-077
   81.7551000000000        -1.974557467970191E-077
   81.9945000000000        -2.028043878222294E-077
   82.2339000000000        -1.580809343368113E-077
   82.4733000000000        -3.728523339466099E-078
   82.7127000000000         1.849141723844610E-077
   82.9521000000000         5.259992760015716E-077
   83.1915000000000         9.852077953930724E-077
   83.4309000000000         1.530306814807480E-076
   83.6703000000000         2.082931973314655E-076
   83.9097000000000         2.505265711854250E-076
   84.1491000000000         2.592466039668803E-076
   84.3885000000000         2.076918560321956E-076
   84.6279000000000         6.516582070985069E-077
   84.8673000000000        -1.979404845533917E-076
   85.1067000000000        -6.018280318741308E-076
   85.3461000000000        -1.145459138904188E-075
   85.5855000000000        -1.791745831483897E-075
   85.8249000000000        -2.451408804802749E-075
   86.0643000000000        -2.968641268131196E-075
   86.3037000000000        -3.113429179468267E-075
   86.5431000000000        -2.587060583460699E-075
   86.7825000000000        -1.048556300621111E-075
   87.0219000000000         1.830155492714098E-075
   87.2613000000000         6.274292448806789E-075
   87.5007000000000         1.227997801838329E-074
   87.7401000000000         1.945811912474728E-074
   87.9795000000000         2.686650724608482E-074
   88.2189000000000         3.286333841329919E-074
   88.4583000000000         3.503237934576266E-074
   88.6977000000000         3.024608174865601E-074
   88.9371000000000         1.494348048305410E-074
   89.1765000000000        -1.430154490854630E-074
   89.4159000000000        -5.986657784815303E-074
   89.6553000000000        -1.218138817596214E-073
   89.8947000000000        -1.963432154353298E-073
   90.1341000000000        -2.741521487377038E-073
   90.3735000000000        -3.390365082532445E-073
   90.6129000000000        -3.672218063284754E-073
   90.8523000000000        -3.280585867065125E-073
   91.0917000000000        -1.867958012616904E-073
   91.3311000000000         8.989197638794135E-074
   91.5705000000000         5.251724203658438E-073
   91.8099000000000         1.120142678265506E-072
   92.0493000000000         1.839530315233223E-072
   92.2887000000000         2.596867756358295E-072
   92.5281000000000         3.242290394317492E-072
   92.7675000000000         3.557455378646613E-072
   93.0069000000000         3.263194686177398E-072
   93.2463000000000         2.045993863902160E-072
   93.4857000000000        -3.912794778760333E-073
   93.7251000000000        -4.251327228100325E-072
   93.9645000000000        -9.538489794435286E-072
   94.2039000000000        -1.593726621706862E-071
   94.4433000000000        -2.269070982278642E-071
   94.6827000000000        -2.850657542436656E-071
   94.9221000000000        -3.152925149150429E-071
   95.1615000000000        -2.942280827691642E-071
   95.4009000000000        -1.961153218388246E-071
   95.6403000000000         2.848071744969449E-073
   95.8797000000000         3.180676912746347E-071
   96.1191000000000         7.482759541423194E-071
   96.3585000000000         1.266240733061970E-070
   96.5979000000000         1.809976726787558E-070
   96.8373000000000         2.276720751096498E-070
   97.0767000000000         2.522573794781698E-070
   97.3161000000000         2.371046135167270E-070
   97.5555000000000         1.633517986659752E-070
   97.7949000000000         1.435908520949773E-071
   98.0343000000000        -2.194752277390266E-070
   98.2737000000000        -5.348415971773058E-070
   98.5131000000000        -9.093248464385848E-070
   98.7525000000000        -1.296088967054372E-069
   98.9919000000000        -1.621079501559343E-069
   99.2313000000000        -1.784677134979467E-069
   99.4707000000000        -1.669744713574072E-069
   99.7101000000000        -1.157579205595518E-069
   99.9495000000000        -1.522808330849290E-070
   100.188900000000         1.387578712589154E-069
   100.428300000000         3.413313655498929E-069
   100.667700000000         5.752394263325903E-069
   100.907100000000         8.085015555362972E-069
   101.146500000000         9.941164220212004E-069
   101.385900000000         1.072873581776075E-068
   101.625300000000         9.801322645106067E-069
   101.864700000000         6.569385550843054E-069
   102.104100000000         6.503195085955227E-070
   102.343500000000        -7.958255887528323E-069
   102.582900000000        -1.871058622252684E-068
   102.822300000000        -3.039127551648899E-068
   103.061700000000        -4.108978967229637E-068
   103.301100000000        -4.832126242972541E-068
   103.540500000000        -4.933250863628263E-068
   103.779900000000        -4.160540395679844E-068
   104.019300000000        -2.352659679734817E-068
   104.258700000000         4.864578407189002E-069
   104.498100000000         4.120166573090806E-068
   104.737500000000         8.039875684267330E-068
   104.976900000000         1.147809590549779E-067
   105.216300000000         1.349639589027036E-067
   105.455700000000         1.316270253331723E-067
   105.695100000000         9.815942180386720E-068
   105.934500000000         3.391196828310480E-068
   106.173900000000        -5.252691890084747E-068
   106.413300000000        -1.409408111285132E-067
   106.652700000000        -1.991595284289104E-067
   106.892100000000        -1.860811598854761E-067
   107.131500000000        -5.914470435853735E-068
   107.370900000000         2.132201457935311E-067
   107.610300000000         6.346838821634188E-067
   107.849700000000         1.161670726507454E-066
   108.089100000000         1.685431378121470E-066
   108.328500000000         2.021271925653958E-066
   108.567900000000         1.912150075409674E-066
   108.807300000000         1.054319563456520E-066
   109.046700000000        -8.485064832123456E-067
   109.286100000000        -3.999520650884977E-066
   109.525500000000        -8.394991636917227E-066
   109.764900000000        -1.369441871035633E-065
   110.004300000000        -1.909771945442184E-065
   110.243700000000        -2.326378936469317E-065
   110.483100000000        -2.431401254124690E-065
   110.722500000000        -1.996821609695942E-065
   110.961900000000        -7.855408695226154E-066
   111.201300000000         1.397613697172406E-065
   111.440700000000         4.635778208046241E-065
   111.680100000000         8.816498503846122E-065
   111.919500000000         1.354644649589861E-064
   112.158900000000         1.808266293343545E-064
   112.398300000000         2.130439621600178E-064
   112.637700000000         2.175303695909318E-064
   112.877100000000         1.776676414245560E-064
   113.116500000000         7.729407358527023E-065
   113.355900000000        -9.561776338933293E-065
   113.595300000000        -3.442770502601551E-064
   113.834700000000        -6.578688514347772E-064
   114.074100000000        -1.006652955360883E-063
   114.313500000000        -1.338524044715427E-063
   114.552900000000        -1.578432939796553E-063
   114.792300000000        -1.632135185214241E-063
   115.031700000000        -1.395530805757147E-063
   115.271100000000        -7.703108902917151E-064
   115.510500000000         3.143055773102068E-064
   115.749900000000         1.875253265247648E-063
   115.989300000000         3.847772975722459E-063
   116.228700000000         6.060679887774773E-063
   116.468100000000         8.220737153141918E-063
   116.707500000000         9.912857737141771E-063
   116.946900000000         1.062259527566401E-062
   117.186300000000         9.785794441172713E-063
   117.425700000000         6.867159291320859E-063
   117.665100000000         1.464901931730458E-063
   117.904500000000        -6.567099989940558E-063
   118.143900000000        -1.699438405739554E-062
   118.383300000000        -2.909456096026378E-062
   118.622700000000        -4.159163901539336E-062
   118.862100000000        -5.265671079400624E-062
   119.101500000000        -5.999607001747971E-062
   119.340900000000        -6.103940137496646E-062
   119.580300000000        -5.322772018699341E-062
   119.819700000000        -3.438453052786037E-062
   120.059100000000        -3.136605743309616E-063
   120.298500000000         4.066384838225186E-062
   120.537900000000         9.557243608329917E-062
   120.777300000000         1.582971792225959E-061
   121.016700000000         2.235983586898372E-061
   121.256100000000         2.843646710915631E-061
   121.495500000000         3.318571607704050E-061
   121.734900000000         3.560834054608146E-061
   121.974300000000         3.462466309885009E-061
   122.213700000000         2.912197308873417E-061
   122.453100000000         1.800329626660966E-061
   122.692500000000         2.441249158824522E-063
   122.931900000000        -2.502526814324757E-061
   123.171300000000        -5.838191086206211E-061
   123.410700000000        -9.987645177977174E-061
   123.650100000000        -1.486609325874518E-060
   123.889500000000        -2.024464379968298E-060
   124.128900000000        -2.567904078700811E-060
   124.368300000000        -3.042694849708791E-060
   124.607700000000        -3.336752250267074E-060
   124.847100000000        -3.294710834526146E-060
   125.086500000000        -2.718555407340917E-060
   125.325900000000        -1.378639356482637E-060
   125.565300000000         9.602301614131984E-061
   125.804700000000         4.493531742809019E-060
   126.044100000000         9.310393953967713E-060
   126.283500000000         1.530696110736601E-059
   126.522900000000         2.208651636381083E-059
   126.762300000000         2.886010110757365E-059
   127.001700000000         3.436929942990600E-059
   127.241100000000         3.686052209617596E-059
   127.480500000000         3.414573876089379E-059
   127.719900000000         2.378589563277885E-059
   127.959300000000         3.427687052740863E-060
   128.198700000000        -2.869046874081536E-059
   128.438100000000        -7.307316510355259E-059
   128.677500000000        -1.281904088318981E-058
   128.916900000000        -1.896811905930275E-058
   129.156300000000        -2.496832784323030E-058
   129.395700000000        -2.964832035039756E-058
   129.635100000000        -3.147159194695540E-058
   129.874500000000        -2.863524655142496E-058
   130.113900000000        -1.926817702426592E-058
   130.353300000000        -1.740621350811462E-059
   130.592700000000         2.491794985915024E-058
   130.832100000000         6.051717968751557E-058
   131.071500000000         1.031720357713757E-057
   131.310900000000         1.488187046412050E-057
   131.550300000000         1.908912244743396E-057
   131.789700000000         2.202924792636128E-057
   132.029100000000         2.258020297252106E-057
   132.268500000000         1.950506893880031E-057
   132.507900000000         1.161504871259269E-057
   132.747300000000        -2.000670989179120E-058
   132.986700000000        -2.168798796186449E-057
   133.226100000000        -4.690802129525293E-057
   133.465500000000        -7.592492640260794E-057
   133.704900000000        -1.055586828285561E-056
   133.944300000000        -1.310742735623244E-056
   134.183700000000        -1.462867216181682E-056
   134.423100000000        -1.439594424223997E-056
   134.662500000000        -1.165573483501566E-056
   134.901900000000        -5.738283117980064E-057
   135.141300000000         3.792960334262338E-057
   135.380700000000         1.696549737550369E-056
   135.620100000000         3.321356631156957E-056
   135.859500000000         5.121265847860392E-056
   136.098900000000         6.876836416233364E-056
   136.338300000000         8.280132029393413E-056
   136.577700000000         8.947190667774972E-056
   136.817100000000         8.448379407685080E-056
   137.056500000000         6.359254186672885E-056
   137.295900000000         2.332279304172931E-056
   137.535300000000        -3.813513936389582E-056
   137.774700000000        -1.199202104884668E-055
   138.014100000000        -2.175055956804843E-055
   138.253500000000        -3.218802392491131E-055
   138.492900000000        -4.191145444978779E-055
   138.732300000000        -4.905419090910603E-055