  -1.79550000000000         0.000000000000000E+000
  -1.55610000000000         0.000000000000000E+000
  -1.31670000000000         0.000000000000000E+000
  -1.07730000000000         0.000000000000000E+000
 -0.837900000000000         0.000000000000000E+000
 -0.598500000000000         0.000000000000000E+000
 -0.359100000000000         0.000000000000000E+000
 -0.119700000000000         0.000000000000000E+000
  0.119700000000000         0.000000000000000E+000
  0.359100000000000         0.000000000000000E+000
  0.598500000000000         0.000000000000000E+000
  0.837900000000000         0.000000000000000E+000
   1.07730000000000         0.000000000000000E+000
   1.31670000000000         0.000000000000000E+000
   1.55610000000000         0.000000000000000E+000
   1.79550000000000         0.000000000000000E+000
   2.03490000000000         0.000000000000000E+000
   2.27430000000000         0.000000000000000E+000
   2.51370000000000         0.000000000000000E+000
   2.75310000000000         0.000000000000000E+000
   2.99250000000000         0.000000000000000E+000
   3.23190000000000         0.000000000000000E+000
   3.47130000000000         0.000000000000000E+000
   3.71070000000000         0.000000000000000E+000
   3.95010000000000         0.000000000000000E+000
   4.18950000000000         0.000000000000000E+000
   4.42890000000000         0.000000000000000E+000
   4.66830000000000         0.000000000000000E+000
   4.90770000000000         0.000000000000000E+000
   5.14710000000000         0.000000000000000E+000
   5.38650000000000         0.000000000000000E+000
   5.62590000000000         0.000000000000000E+000
   5.86530000000000         0.000000000000000E+000
   6.10470000000000         0.000000000000000E+000
   6.34410000000000         0.000000000000000E+000
   6.58350000000000         0.000000000000000E+000
   6.82290000000000         0.000000000000000E+000
   7.06230000000000         0.000000000000000E+000
   7.30170000000000         0.000000000000000E+000
   7.54110000000000         0.000000000000000E+000
   7.78050000000000         0.000000000000000E+000
   8.01990000000000         0.000000000000000E+000
   8.25930000000000         0.000000000000000E+000
   8.49870000000000         0.000000000000000E+000
   8.73810000000000         2.693529948587165E-190
   8.97750000000000        -3.540380420758442E-182
   9.21690000000000         5.155466507134273E-176
   9.45630000000000         4.576562485339452E-175
   9.69570000000000         2.877191069097980E-170
   9.93510000000000         2.264804843629875E-168
   10.1745000000000         8.513928245247468E-167
   10.4139000000000         2.027222635171193E-165
   10.6533000000000         3.324167991371661E-164
   10.8927000000000         3.512411567621640E-163
   11.1321000000000         7.409472501460547E-163
   11.3715000000000        -6.801937933820093E-161
   11.6109000000000        -1.987771418219215E-159
   11.8503000000000        -3.728599127771687E-158
   12.0897000000000        -5.573930826617197E-157
   12.3291000000000        -7.089152129227689E-156
   12.5685000000000        -7.908135556982543E-155
   12.8079000000000        -7.878501265756503E-154
   13.0473000000000        -7.098218717348780E-153
   13.2867000000000        -5.839855957179240E-152
   13.5261000000000        -4.422941696157948E-151
   13.7655000000000        -3.105810707917351E-150
   14.0049000000000        -2.035484032397138E-149
   14.2443000000000        -1.253077079620715E-148
   14.4837000000000        -7.293157947333186E-148
   14.7231000000000        -4.040058405461507E-147
   14.9625000000000        -2.144952373344317E-146
   15.2019000000000        -1.099224297045802E-145
   15.4413000000000        -5.474763331292576E-145
   15.6807000000000        -2.665962967405164E-144
   15.9201000000000        -1.274916542807768E-143
   16.1595000000000        -6.001853658941036E-143
   16.3989000000000        -2.782063865270514E-142
   16.6383000000000        -1.267812603769198E-141
   16.8777000000000        -5.664986355308594E-141
   17.1171000000000        -2.474476084786795E-140
   17.3565000000000        -1.053588116787293E-139
   17.5959000000000        -4.362557516780113E-139
   17.8353000000000        -1.753634807268819E-138
   18.0747000000000        -6.835420098475906E-138
   18.3141000000000        -2.581880034532614E-137
   18.5535000000000        -9.447941594866753E-137
   18.7929000000000        -3.349482882152288E-136
   19.0323000000000        -1.150674277174311E-135
   19.2717000000000        -3.831874032977325E-135
   19.5111000000000        -1.237476695776252E-134
   19.7505000000000        -3.877294596793498E-134
   19.9899000000000        -1.179207460792592E-133
   20.2293000000000        -3.482751345743540E-133
   20.4687000000000        -9.993576595496049E-133
   20.7081000000000        -2.787250617750619E-132
   20.9475000000000        -7.559249014536397E-132
   21.1869000000000        -1.994492424266441E-131
   21.4263000000000        -5.122409904878891E-131
   21.6657000000000        -1.281470919603096E-130
   21.9051000000000        -3.125781634956442E-130
   22.1445000000000        -7.444591975228134E-130
   22.3839000000000        -1.734884406775326E-129
   22.6233000000000        -3.968188003902568E-129
   22.8627000000000        -8.947892883912150E-129
   23.1021000000000        -2.000950431534903E-128
   23.3415000000000        -4.470230295124140E-128
   23.5809000000000        -1.005686153055444E-127
   23.8203000000000        -2.294402950243228E-127
   24.0597000000000        -5.329338412423455E-127
   24.2991000000000        -1.259581961418299E-126
   24.5385000000000        -3.013710398251305E-126
   24.7779000000000        -7.239714523980456E-126
   25.0173000000000        -1.729914305562216E-125
   25.2567000000000        -4.075038086509445E-125
   25.4961000000000        -9.389564984503927E-125
   25.7355000000000        -2.102044660622475E-124
   25.9749000000000        -4.544368983073372E-124
   26.2143000000000        -9.428891470876470E-124
   26.4537000000000        -1.864070236390217E-123
   26.6931000000000        -3.476993024298230E-123
   26.9325000000000        -6.025390829721287E-123
   27.1719000000000        -9.431560812141710E-123
   27.4113000000000        -1.251545175340197E-122
   27.6507000000000        -1.135202039198462E-122
   27.8901000000000         3.628101185776104E-123
   28.1295000000000         5.167748015878277E-122
   28.3689000000000         1.648713181643497E-121
   28.6083000000000         3.833156494219384E-121
   28.8477000000000         7.248473703031978E-121
   29.0871000000000         1.093208473954342E-120
   29.3265000000000         1.063877351514277E-120
   29.5659000000000        -5.290609768410463E-121
   29.8053000000000        -6.237631916686595E-120
   30.0447000000000        -2.067893190812714E-119
   30.2841000000000        -5.037198697654770E-119
   30.5235000000000        -1.002586201386805E-118
   30.7629000000000        -1.612237218676813E-118
   31.0023000000000        -1.773774868245851E-118
   31.2417000000000         2.605363377437916E-119
   31.4811000000000         8.810516168420891E-118
   31.7205000000000         3.306296194955012E-117
   31.9599000000000         9.017985656163149E-117
   32.1993000000000         2.079574817576268E-116
   32.4387000000000         4.229180301583953E-116
   32.6781000000000         7.638269089667144E-116
   32.9175000000000         1.200098242620564E-115
   33.1569000000000         1.518417066253221E-115
   33.3963000000000         1.071310822954900E-115
   33.6357000000000        -1.671174102819763E-115
   33.8751000000000        -9.812718607097890E-115
   34.1145000000000        -2.889147696074919E-114
   34.3539000000000        -6.750752914244355E-114
   34.5933000000000        -1.365936755467577E-113
   34.8327000000000        -2.448530072930756E-113
   35.0721000000000        -3.856749761923803E-113
   35.3115000000000        -5.077849957562611E-113
   35.5509000000000        -4.587314674900550E-113
   35.7903000000000         1.105097761414512E-113
   36.0297000000000         1.884421694183378E-112
   36.2691000000000         6.044013036400367E-112
   36.5085000000000         1.436577582432555E-111
   36.7479000000000         2.904795001493533E-111
   36.9873000000000         5.183407619376977E-111
   37.2267000000000         8.167381910963106E-111
   37.4661000000000         1.097536026982794E-110
   37.7055000000000         1.104029285436042E-110
   37.9449000000000         2.654509635659344E-111
   38.1843000000000        -2.501471759077008E-110
   38.4237000000000        -8.999349868313338E-110
   38.6631000000000        -2.182744885794389E-109
   38.9025000000000        -4.401996274632419E-109
   39.1419000000000        -7.766241592271786E-109
   39.3813000000000        -1.205351915241061E-108
   39.6207000000000        -1.594590916220157E-108
   39.8601000000000        -1.588978698180450E-108
   40.0995000000000        -4.406789522541615E-109
   40.3389000000000         3.196704644555590E-108
   40.5783000000000         1.143439965120930E-107
   40.8177000000000         2.708442125541911E-107
   41.0571000000000         5.298838067453476E-107
   41.2965000000000         9.010241138147020E-107
   41.5359000000000         1.334177066432222E-106
   41.7753000000000         1.646438167088173E-106
   42.0147000000000         1.409007232185372E-106
   42.2541000000000        -1.993086974122618E-107
   42.4935000000000        -4.531218026137208E-106
   42.7329000000000        -1.349540322390884E-105
   42.9723000000000        -2.924970344427380E-105
   43.2117000000000        -5.319446492141951E-105
   43.4511000000000        -8.373238609127228E-105
   43.6905000000000        -1.121714942049793E-104
   43.9299000000000        -1.163219284695983E-104
   44.1693000000000        -5.210478807890076E-105
   44.4087000000000         1.546589671449936E-104
   44.6481000000000         6.105916082227642E-104
   44.8875000000000         1.439890492358733E-103
   45.1269000000000         2.733279172168627E-103
   45.3663000000000         4.433925403632604E-103
   45.6057000000000         6.130006336186295E-103
   45.8451000000000         6.733947895820339E-103
   46.0845000000000         4.068228116235194E-103
   46.3239000000000        -5.530899409105614E-103
   46.5633000000000        -2.731266947735150E-102
   46.8027000000000        -6.737509046882325E-102
   47.0421000000000        -1.302178081088200E-101
   47.2815000000000        -2.133880454863593E-101
   47.5209000000000        -2.979331912035084E-101
   47.7603000000000        -3.339298164410755E-101
   47.9997000000000        -2.222175902658712E-101
   48.2391000000000         2.025008846251555E-101
   48.4785000000000         1.174936327773411E-100
   48.7179000000000         2.966033666152717E-100
   48.9573000000000         5.777472694738539E-100
   49.1967000000000         9.516445182153434E-100
   49.4361000000000         1.340216161771713E-099
   49.6755000000000         1.538070796067723E-099
   49.9149000000000         1.140033026886829E-099
   50.1543000000000        -5.244992950255399E-100
   50.3937000000000        -4.403187736297091E-099
   50.6331000000000        -1.159327552423861E-098
   50.8725000000000        -2.294513342385093E-098
   51.1119000000000        -3.823034472381372E-098
   51.3513000000000        -5.471079151360206E-098
   51.5907000000000        -6.504114305131090E-098
   51.8301000000000        -5.470287426732900E-098
   52.0695000000000         3.056226800514699E-100
   52.3089000000000         1.339351991613899E-097
   52.5483000000000         3.859201118386861E-097
   52.7877000000000         7.888280961196204E-097
   53.0271000000000         1.341138371919912E-096
   53.2665000000000         1.961422749447993E-096
   53.5059000000000         2.421848341291635E-096
   53.7453000000000         2.267423352014084E-096
   53.9847000000000         7.431191087621172E-097
   54.2241000000000        -3.223942353374187E-096
   54.4635000000000        -1.090612075530679E-095
   54.7029000000000        -2.340228475931384E-095
   54.9423000000000        -4.086521953426095E-095
   55.1817000000000        -6.119518284562119E-095
   55.4211000000000        -7.815541401724037E-095
   55.6605000000000        -7.909047193145523E-095
   55.8999000000000        -4.284844153365639E-095
   56.1393000000000         6.083577214726338E-095
   56.3787000000000         2.683676189292204E-094
   56.6181000000000         6.126640129023358E-094
   56.8575000000000         1.103156627039824E-093
   57.0969000000000         1.692021581182044E-093
   57.3363000000000         2.225496462252716E-093
   57.5757000000000         2.384688210226924E-093
   57.8151000000000         1.630475603496914E-093
   58.0545000000000        -8.171324876011968E-094
   58.2939000000000        -5.914061409737773E-093
   58.5333000000000        -1.456822975189069E-092
   58.7727000000000        -2.716751801203251E-092
   59.0121000000000        -4.277633719789569E-092
   59.2515000000000        -5.796714991634990E-092
   59.4909000000000        -6.537594281286230E-092
   59.7303000000000        -5.229695265749539E-092
   59.9697000000000         1.730110336212065E-095
   60.2091000000000         1.152186210825232E-091
   60.4485000000000         3.172440753197873E-091
   60.6879000000000         6.201791260203713E-091
   60.9273000000000         1.010598294631763E-090
   61.1667000000000         1.421297531595598E-090
   61.4061000000000         1.697748563833913E-090
   61.6455000000000         1.563183463985898E-090
   61.8849000000000         5.954634244052690E-091
   62.1243000000000        -1.761233574347709E-090
   62.3637000000000        -6.115500019875748E-090
   62.6031000000000        -1.293429025333063E-089
   62.8425000000000        -2.218803533805147E-089
   63.0819000000000        -3.280163833679832E-089
   63.3213000000000        -4.191917478734777E-089
   63.5607000000000        -4.407362994674186E-089
   63.8001000000000        -3.049076867595375E-089
   64.0395000000000         1.104776840374539E-089
   64.2789000000000         9.511731160840199E-089
   64.5183000000000         2.354374045772905E-088
   64.7577000000000         4.384930269959384E-088
   64.9971000000000         6.930651390298239E-088
   65.2365000000000         9.553397673712991E-088
   65.4759000000000         1.130611632738751E-087
   65.7153000000000         1.054973610271875E-087
   65.9547000000000         4.839613164579614E-088
   66.1941000000000        -9.001929595730537E-088
   66.4335000000000        -3.445856364448492E-087
   66.6729000000000        -7.432722534198683E-087
   66.9123000000000        -1.289398939042302E-086
   67.1517000000000        -1.934436533873991E-086
   67.3911000000000        -2.541686722103737E-086
   67.6305000000000        -2.844779733812459E-086
   67.8699000000000        -2.410833807407008E-086
   68.1093000000000        -6.264313165534947E-087
   68.3487000000000         3.265292524643217E-086
   68.5881000000000         1.003798085795914E-085
   68.8275000000000         2.022072344719383E-085
   69.0669000000000         3.365977802700485E-085
   69.3063000000000         4.888155765379251E-085
   69.5457000000000         6.228345828256318E-085
   69.7851000000000         6.726565222976226E-085
   70.0245000000000         5.354876853002606E-085
   70.2639000000000         7.097622993435322E-086
   70.5033000000000        -8.872864177854052E-085
   70.7427000000000        -2.499992285711073E-084
   70.9821000000000        -4.861263392212351E-084
   71.2215000000000        -7.901341647643882E-084
   71.4609000000000        -1.125074295903235E-083
   71.7003000000000        -1.407482414431774E-083
   71.9397000000000        -1.490615640085739E-083
   72.1791000000000        -1.152874079837028E-083
   72.4185000000000        -1.001712994942586E-084
   72.6579000000000         2.005390444957706E-083
   72.8973000000000         5.475335894586754E-083
   73.1367000000000         1.046743233043954E-082
   73.3761000000000         1.678961111253309E-082
   73.6155000000000         2.363548584214743E-082
   73.8549000000000         2.927419416228612E-082
   74.0943000000000         3.075275839355151E-082
   74.3337000000000         2.371797983357073E-082
   74.5731000000000         2.523383383998138E-083
   74.8125000000000        -3.915509397382099E-082
   75.0519000000000        -1.069318584621427E-081
   75.2913000000000        -2.032991482940577E-081
   75.5307000000000        -3.240323563184787E-081
   75.7701000000000        -4.534871845786794E-081
   76.0095000000000        -5.592723570115223E-081
   76.2489000000000        -5.873979931675645E-081
   76.4883000000000        -4.598106316028063E-081
   76.7277000000000        -7.714900807907076E-082
   76.9671000000000         6.695964275587910E-081
   77.2065000000000         1.874384031923279E-080
   77.4459000000000         3.574659385030837E-080
   77.6853000000000         5.691295471891876E-080
   77.9247000000000         7.952122288870062E-080
   78.1641000000000         9.807973440988299E-080
   78.4035000000000         1.035988004037298E-079
   78.6429000000000         8.328279047175940E-080
   78.8823000000000         2.108347702983999E-080
   79.1217000000000        -1.003323506822612E-079
   79.3611000000000        -2.956060531606148E-079
   79.6005000000000        -5.702029600103026E-079
   79.8399000000000        -9.112420487296379E-079
   80.0793000000000        -1.276088903878968E-078
   80.3187000000000        -1.580164715590594E-078
   80.5581000000000        -1.686813905910270E-078
   80.7975000000000        -1.403759644167353E-078
   81.0369000000000        -4.924161627686143E-079
   81.2763000000000         1.302329309318178E-078
   81.5157000000000         4.193989473857169E-078
   81.7551000000000         8.261859874515115E-078
   81.9945000000000         1.332254890385251E-077
   82.2339000000000         1.877314675839420E-077
   82.4733000000000         2.342712784959486E-077
   82.7127000000000         2.538231421499094E-077
   82.9521000000000         2.198161827421687E-077
   83.1915000000000         9.948393685028759E-078
   83.4309000000000        -1.420687857214139E-077
   83.6703000000000        -5.341182271066433E-077
   83.9097000000000        -1.088185190433123E-076
   84.1491000000000        -1.781443904905838E-076
   84.3885000000000        -2.536746641865512E-076
   84.6279000000000        -3.202026216170910E-076
   84.8673000000000        -3.534044978079746E-076
   85.1067000000000        -3.193974099589595E-076
   85.3461000000000        -1.764675181811699E-076
   85.5855000000000         1.198898108163503E-076
   85.8249000000000         6.075065579814965E-076
   86.0643000000000         1.302884199421529E-075
   86.3037000000000         2.181353090064201E-075
   86.5431000000000         3.153398992444582E-075
   86.7825000000000         4.040450195537986E-075
   87.0219000000000         4.555897389059693E-075
   87.2613000000000         4.299877078714389E-075
   87.5007000000000         2.778884187102928E-075
   87.7401000000000        -5.372049278228088E-076
   87.9795000000000        -6.108708221302469E-075
   88.2189000000000        -1.416232158887958E-074
   88.4583000000000        -2.447066989006477E-074
   88.6977000000000        -3.609055454894259E-074
   88.9371000000000        -4.709596263870623E-074
   89.1765000000000        -5.436785783081036E-074
   89.4159000000000        -5.353107821778464E-074
   89.6553000000000        -3.915395053480455E-074
   89.8947000000000        -5.340288427938707E-075
   90.1341000000000         5.316463322000689E-074
   90.3735000000000         1.392754670839808E-073
   90.6129000000000         2.512872987588140E-073
   90.8523000000000         3.801743259515304E-073
   91.0917000000000         5.068317781075063E-073
   91.3311000000000         5.998797340898332E-073
   91.5705000000000         6.149189438520922E-073
   91.8099000000000         4.963649377032344E-073
   92.0493000000000         1.831088379500001E-073
   92.2887000000000        -3.808405807636187E-073
   92.5281000000000        -1.230004475618446E-072
   92.7675000000000        -2.355509454343451E-072
   93.0069000000000        -3.679114543591599E-072
   93.2463000000000        -5.026618110087165E-072
   93.4857000000000        -6.106379586506410E-072
   93.7251000000000        -6.501113119391016E-072
   93.9645000000000        -5.683159768152140E-072
   94.2039000000000        -3.064419002616759E-072
   94.4433000000000         1.908864999511358E-072
   94.6827000000000         9.610182108062489E-072
   94.9221000000000         2.003715128868793E-071
   95.1615000000000         3.257977700100281E-071
   95.4009000000000         4.578244700529281E-071
   95.6403000000000         5.714896996603231E-071
   95.8797000000000         6.305990974853223E-071
   96.1191000000000         5.888780730696203E-071
   96.3585000000000         3.940280019684652E-071
   96.5979000000000        -4.483988183998415E-073
   96.8373000000000        -6.434067521070869E-071
   97.0767000000000        -1.529601632359963E-070
   97.3161000000000        -2.620972015212508E-070
   97.5555000000000        -3.806834010114289E-070
   97.7949000000000        -4.891636697708525E-070
   98.0343000000000        -5.587442171559624E-070
   98.2737000000000        -5.521752382251094E-070
   98.5131000000000        -4.267684987599831E-070
   98.7525000000000        -1.402642604806924E-070
   98.9919000000000         3.401025974999654E-070
   99.2313000000000         1.025471593577315E-069
   99.4707000000000         1.891014361933201E-069
   99.7101000000000         2.861162066067433E-069
   99.9495000000000         3.797233297732696E-069
   100.188900000000         4.491308070321458E-069
   100.428300000000         4.670940897881445E-069
   100.667700000000         4.019489237938341E-069
   100.907100000000         2.216122360800099E-069
   101.146500000000        -1.002340825407862E-069
   101.385900000000        -5.758953344101490E-069
   101.625300000000        -1.193949200094700E-068
   101.864700000000        -1.909257415881425E-068
   102.104100000000        -2.634547752706941E-068
   102.343500000000        -3.236007625415662E-068
   102.582900000000        -3.535727730249613E-068
   102.822300000000        -3.323853705013257E-068
   103.061700000000        -2.382762732920653E-068
   103.301100000000        -5.243264781076949E-069
   103.540500000000         2.360726576798407E-068
   103.779900000000         6.245128886134716E-068
   104.019300000000         1.090616463319092E-067
   104.258700000000         1.587603026115073E-067
   104.498100000000         2.041481532511334E-067
   104.737500000000         2.352095036573209E-067
   104.976900000000         2.399322856888296E-067
   105.216300000000         2.055473944577572E-067
   105.455700000000         1.204175554643331E-067
   105.695100000000        -2.350187093491543E-068
   105.934500000000        -2.278430769242064E-067
   106.173900000000        -4.850059802390346E-067
   106.413300000000        -7.758285830077871E-067
   106.652700000000        -1.068321466703461E-066
   106.892100000000        -1.318041543727228E-066
   107.131500000000        -1.470568218063242E-066
   107.370900000000        -1.466303189986840E-066
   107.610300000000        -1.247450208173665E-066
   107.849700000000        -7.665825165814573E-067
   108.089100000000         4.250002826773586E-069
   108.328500000000         1.065274185550698E-066
   108.567900000000         2.383124263757479E-066
   108.807300000000         3.888619687218939E-066
   109.046700000000         5.478762222531945E-066
   109.286100000000         7.022375644689128E-066
   109.525500000000         8.367343947520102E-066
   109.764900000000         9.345919379147596E-066
   110.004300000000         9.773549539193246E-066
   110.243700000000         9.436738295583361E-066
   110.483100000000         8.067287446277265E-066
   110.722500000000         5.304439899600662E-066
   110.961900000000         6.532100870856933E-067
   111.201300000000        -6.543797162339890E-066
   111.440700000000        -1.709370654670447E-065
   111.680100000000        -3.186357704066382E-065
   111.919500000000        -5.157288921754770E-065
   112.158900000000        -7.643213169400600E-065
   112.398300000000        -1.056090704309464E-064
   112.637700000000        -1.365393870469252E-064
   112.877100000000        -1.641528673267771E-064
   113.116500000000        -1.801587053970999E-064
   113.355900000000        -1.726169885085870E-064
   113.595300000000        -1.261045590487391E-064
   113.834700000000        -2.284133078718817E-065
   114.074100000000         1.548499069297060E-064
   114.313500000000         4.204531172696751E-064
   114.552900000000         7.774313852525788E-064
   114.792300000000         1.211883972924711E-063
   115.031700000000         1.684383543430036E-063
   115.271100000000         2.122286222057392E-063
   115.510500000000         2.414468361212619E-063
   115.749900000000         2.411063251354877E-063
   115.989300000000         1.931194296602684E-063
   116.228700000000         7.817322768634006E-064
   116.468100000000        -1.210476050165921E-063
   116.707500000000        -4.151862433373093E-063
   116.946900000000        -8.022205311644002E-063
   117.186300000000        -1.260623013392202E-062
   117.425700000000        -1.742571485946567E-062
   117.665100000000        -2.168580547570714E-062
   117.904500000000        -2.425377505487495E-062
   118.143900000000        -2.369180197187631E-062
   118.383300000000        -1.836625094121884E-062
   118.622700000000        -6.653010623185544E-063
   118.862100000000         1.274969864141588E-062
   119.101500000000         4.040405388755146E-062
   119.340900000000         7.563502832406259E-062
   119.580300000000         1.160038200219263E-061
   119.819700000000         1.568349871013630E-061
   120.059100000000         1.909116516882884E-061
   120.298500000000         2.084796257641138E-061
   120.537900000000         1.977153267862973E-061
   120.777300000000         1.458053756106940E-061
   121.016700000000         4.074897609721171E-062
   121.256100000000        -1.260801861279812E-061
   121.495500000000        -3.566925564371711E-061
   121.734900000000        -6.428007911917086E-061
   121.974300000000        -9.621297082637599E-061
   122.213700000000        -1.275361364334448E-060
   122.453100000000        -1.524558708587023E-060
   122.692500000000        -1.634061473983351E-060
   122.931900000000        -1.514899028904116E-060
   123.171300000000        -1.073661484273787E-060
   123.410700000000        -2.264572865014496E-061
   123.650100000000         1.081982893404028E-060
   123.889500000000         2.854844295484469E-060
   124.128900000000         5.017313455431407E-060
   124.368300000000         7.391440894825843E-060
   124.607700000000         9.676419956339592E-060
   124.847100000000         1.144021716659292E-059
   125.086500000000         1.212940392616239E-059
   125.325900000000         1.110423795526735E-059
   125.565300000000         7.705153463476294E-060
   125.804700000000         1.354473997541779E-060
   126.044100000000        -8.306937831174458E-060
   126.283500000000        -2.125438243085375E-059
   126.522900000000        -3.689947245969379E-059
   126.762300000000        -5.391898549250737E-059
   127.001700000000        -7.012529941261232E-059
   127.241100000000        -8.241997690741774E-059
   127.480500000000        -8.687790549960413E-059
   127.719900000000        -7.901004471218069E-059
   127.959300000000        -5.424568621518763E-059
   128.198700000000        -8.657675166281412E-060
   128.438100000000         6.007570638412447E-059
   128.677500000000         1.515213623283016E-058
   128.916900000000         2.612586597166438E-058
   129.156300000000         3.797310276874449E-058
   129.395700000000         4.914148534008170E-058
   129.635100000000         5.745954526227644E-058
   129.874500000000         6.020744303067400E-058
   130.113900000000         5.431285202930763E-058
   130.353300000000         3.669793182362466E-058
   130.592700000000         4.789983804641462E-059
   130.832100000000        -4.281340246844275E-058
   131.071500000000        -1.055643697621885E-057
   131.310900000000        -1.801476449859166E-057
   131.550300000000        -2.597464536406583E-057
   131.789700000000        -3.335536848523821E-057
   132.029100000000        -3.867243558767749E-057
   132.268500000000        -4.009816102455208E-057
   132.507900000000        -3.560760114730539E-057
   132.747300000000        -2.322456417786723E-057
   132.986700000000        -1.372308987217766E-058
   133.226100000000         3.068204177226856E-057
   133.465500000000         7.232119695725885E-057
   133.704900000000         1.210662742925381E-056
   133.944300000000         1.721436882940232E-056
   134.183700000000         2.182383556008725E-056
   134.423100000000         2.495585932589000E-056
   134.662500000000         2.543420364522531E-056
   134.901900000000         2.199157415863115E-056
   135.141300000000         1.343811257973043E-056
   135.380700000000        -1.107899106214429E-057
   135.620100000000        -2.193794781843691E-056
   135.859500000000        -4.844402949508652E-056
   136.098900000000        -7.882166089570170E-056
   136.338300000000        -1.098398855958497E-055
   136.577700000000        -1.367457824974808E-055
   136.817100000000        -1.533780316273384E-055
   137.056500000000        -1.525617206754426E-055
   137.295900000000        -1.268411110727283E-055
   137.535300000000        -6.957547692721339E-056
   137.774700000000         2.362625006244382E-056
   138.014100000000         1.532227921936897E-055
   138.253500000000         3.139803513918553E-055
   138.492900000000         4.933909352715410E-055
   138.732300000000         6.706043836256851E-055