  -1.79550000000000         0.000000000000000E+000
  -1.55610000000000         0.000000000000000E+000
  -1.31670000000000         0.000000000000000E+000
  -1.07730000000000         0.000000000000000E+000
 -0.837900000000000         0.000000000000000E+000
 -0.598500000000000         0.000000000000000E+000
 -0.359100000000000         0.000000000000000E+000
 -0.119700000000000         0.000000000000000E+000
  0.119700000000000         0.000000000000000E+000
  0.359100000000000         0.000000000000000E+000
  0.598500000000000         0.000000000000000E+000
  0.837900000000000         0.000000000000000E+000
   1.07730000000000         0.000000000000000E+000
   1.31670000000000         0.000000000000000E+000
   1.55610000000000         0.000000000000000E+000
   1.79550000000000         0.000000000000000E+000
   2.03490000000000         0.000000000000000E+000
   2.27430000000000         0.000000000000000E+000
   2.51370000000000         0.000000000000000E+000
   2.75310000000000         0.000000000000000E+000
   2.99250000000000         0.000000000000000E+000
   3.23190000000000         0.000000000000000E+000
   3.47130000000000         0.000000000000000E+000
   3.71070000000000         0.000000000000000E+000
   3.95010000000000         0.000000000000000E+000
   4.18950000000000         0.000000000000000E+000
   4.42890000000000         0.000000000000000E+000
   4.66830000000000         0.000000000000000E+000
   4.90770000000000         0.000000000000000E+000
   5.14710000000000         0.000000000000000E+000
   5.38650000000000         0.000000000000000E+000
   5.62590000000000         0.000000000000000E+000
   5.86530000000000         0.000000000000000E+000
   6.10470000000000         0.000000000000000E+000
   6.34410000000000         0.000000000000000E+000
   6.58350000000000         0.000000000000000E+000
   6.82290000000000         0.000000000000000E+000
   7.06230000000000         0.000000000000000E+000
   7.30170000000000         0.000000000000000E+000
   7.54110000000000         0.000000000000000E+000
   7.78050000000000         0.000000000000000E+000
   8.01990000000000         0.000000000000000E+000
   8.25930000000000         0.000000000000000E+000
   8.49870000000000         1.059696274238386E-188
   8.73810000000000         3.167943391432344E-182
   8.97750000000000        -2.487173853858069E-176
   9.21690000000000        -2.272425375784746E-174
   9.45630000000000        -2.474586545199653E-170
   9.69570000000000        -1.015657462218216E-168
   9.93510000000000         1.419647197669975E-168
   10.1745000000000         1.114579641230825E-165
   10.4139000000000         4.084566373261296E-164
   10.6533000000000         8.685878974299105E-163
   10.8927000000000         1.257811454198561E-161
   11.1321000000000         1.147003698546528E-160
   11.3715000000000         5.278820928562040E-161
   11.6109000000000        -2.330883550246547E-158
   11.8503000000000        -5.894746387326375E-157
   12.0897000000000        -1.001714959254526E-155
   12.3291000000000        -1.372787517538301E-154
   12.5685000000000        -1.608890367528467E-153
   12.8079000000000        -1.658010479773424E-152
   13.0473000000000        -1.526932836247866E-151
   13.2867000000000        -1.270102208600414E-150
   13.5261000000000        -9.612383016886495E-150
   13.7655000000000        -6.652018696578213E-149
   14.0049000000000        -4.221235455626363E-148
   14.2443000000000        -2.457522146257498E-147
   14.4837000000000        -1.308974373858417E-146
   14.7231000000000        -6.327236452836513E-146
   14.9625000000000        -2.723503773292628E-145
   15.2019000000000        -9.965763269145846E-145
   15.4413000000000        -2.669385105101643E-144
   15.6807000000000        -9.209344524609641E-145
   15.9201000000000         5.378473333021208E-143
   16.1595000000000         5.094764204294766E-142
   16.3989000000000         3.392863187836254E-141
   16.6383000000000         1.925402936435049E-140
   16.8777000000000         9.878665757890933E-140
   17.1171000000000         4.707491507247017E-139
   17.3565000000000         2.115026095028108E-138
   17.5959000000000         9.045139429498193E-138
   17.8353000000000         3.706439033273146E-137
   18.0747000000000         1.462353379105854E-136
   18.3141000000000         5.575936593281412E-136
   18.5535000000000         2.060711454437105E-135
   18.7929000000000         7.398540991434133E-135
   19.0323000000000         2.585147143558395E-134
   19.2717000000000         8.803138691411659E-134
   19.5111000000000         2.924531580702647E-133
   19.7505000000000         9.485704445512214E-133
   19.9899000000000         3.005392511909771E-132
   20.2293000000000         9.304427971366164E-132
   20.4687000000000         2.815169194346036E-131
   20.7081000000000         8.324520351124927E-131
   20.9475000000000         2.405586007223337E-130
   21.1869000000000         6.792276268684119E-130
   21.4263000000000         1.873388574771809E-129
   21.6657000000000         5.045437796798435E-129
   21.9051000000000         1.326214495940635E-128
   22.1445000000000         3.400058037224489E-128
   22.3839000000000         8.494405381291264E-128
   22.6233000000000         2.065547480439163E-127
   22.8627000000000         4.880712226600976E-127
   23.1021000000000         1.118123643361194E-126
   23.3415000000000         2.475433812737646E-126
   23.5809000000000         5.271190925697394E-126
   23.8203000000000         1.071777139448734E-125
   24.0597000000000         2.056213902850746E-125
   24.2991000000000         3.642925143837202E-125
   24.5385000000000         5.693574263672625E-125
   24.7779000000000         6.882148675883271E-125
   25.0173000000000         2.388862546181504E-125
   25.2567000000000        -2.143080578229403E-124
   25.4961000000000        -9.810973310739139E-124
   25.7355000000000        -3.013457762856807E-123
   25.9749000000000        -7.758177383142299E-123
   26.2143000000000        -1.767111661801701E-122
   26.4537000000000        -3.596596534066743E-122
   26.6931000000000        -6.410761232054947E-122
   26.9325000000000        -9.256036283613658E-122
   27.1719000000000        -7.428609897752200E-122
   27.4113000000000         1.412803964619847E-121
   27.6507000000000         9.566158888060956E-121
   27.8901000000000         3.330361271954007E-120
   28.1295000000000         9.344425507599169E-120
   28.3689000000000         2.314454038832021E-119
   28.6083000000000         5.224547214217990E-119
   28.8477000000000         1.087313691566474E-118
   29.0871000000000         2.086334924694345E-118
   29.3265000000000         3.649280160990486E-118
   29.5659000000000         5.639164839573755E-118
   29.8053000000000         7.046953884317397E-118
   30.0447000000000         4.660455127890124E-118
   30.2841000000000        -9.534533749150640E-118
   30.5235000000000        -5.286934469946521E-117
   30.7629000000000        -1.587900773035488E-116
   31.0023000000000        -3.849344246707957E-116
   31.2417000000000        -8.176732795130675E-116
   31.4811000000000        -1.559760936357573E-115
   31.7205000000000        -2.671184208718092E-115
   31.9599000000000        -4.005195795797673E-115
   32.1993000000000        -4.840721313851097E-115
   32.4387000000000        -3.166645342114305E-115
   32.6781000000000         5.547058641167614E-115
   32.9175000000000         3.017624027531325E-114
   33.1569000000000         8.611552101995484E-114
   33.3963000000000         1.966729555695705E-113
   33.6357000000000         3.907240075283195E-113
   33.8751000000000         6.903127254600101E-113
   34.1145000000000         1.076573312805837E-112
   34.3539000000000         1.415273269058940E-112
   34.5933000000000         1.316532206645200E-112
   34.8327000000000        -9.698522748805366E-114
   35.0721000000000        -4.519138720043151E-112
   35.3115000000000        -1.482632607721269E-111
   35.5509000000000        -3.526566949740239E-111
   35.7903000000000        -7.094883916325349E-111
   36.0297000000000        -1.256227295813210E-110
   36.2691000000000        -1.959380273345022E-110
   36.5085000000000        -2.595484256956776E-110
   36.7479000000000        -2.537483074293855E-110
   36.9873000000000        -4.198513727520514E-111
   37.2267000000000         6.305546659653673E-110
   37.4661000000000         2.180579780433922E-109
   37.7055000000000         5.195623354481033E-109
   37.9449000000000         1.033426567973042E-108
   38.1843000000000         1.798092138698846E-108
   38.4237000000000         2.743571677174501E-108
   38.6631000000000         3.533931305661109E-108
   38.9025000000000         3.301594567488012E-108
   39.1419000000000         2.597055753419448E-109
   39.3813000000000        -8.760146589652096E-108
   39.6207000000000        -2.865692024334924E-107
   39.8601000000000        -6.584084008454730E-107
   40.0995000000000        -1.265538916637095E-106
   40.3389000000000        -2.122279168070483E-106
   40.5783000000000        -3.097055803660543E-106
   40.8177000000000        -3.737667429754166E-106
   41.0571000000000        -3.000879654357852E-106
   41.2965000000000         1.100631658834844E-106
   41.5359000000000         1.184214425714742E-105
   41.7753000000000         3.387474916306416E-105
   42.0147000000000         7.255110168325918E-105
   42.2541000000000         1.316123071253581E-104
   42.4935000000000         2.079318890614124E-104
   42.7329000000000         2.817133762825225E-104
   42.9723000000000         3.007773576142849E-104
   43.2117000000000         1.590979575315845E-104
   43.4511000000000        -3.262900703091804E-104
   43.6905000000000        -1.428009511569264E-103
   43.9299000000000        -3.485464827467657E-103
   44.1693000000000        -6.802281189074933E-103
   44.4087000000000        -1.139814455514320E-102
   44.6481000000000        -1.653321857497907E-102
   44.8875000000000        -1.993255910619216E-102
   45.1269000000000        -1.670637876299537E-102
   45.3663000000000         1.859367500165710E-103
   45.6057000000000         4.911561754158282E-102
   45.8451000000000         1.423583363823473E-101
   46.0845000000000         2.987098302897860E-101
   46.3239000000000         5.247315180006386E-101
   46.5633000000000         7.962862062510184E-101
   46.8027000000000         1.025601175903655E-100
   47.0421000000000         1.015338138252472E-100
   47.2815000000000         4.066858402600164E-101
   47.5209000000000        -1.357684721749898E-100
   47.7603000000000        -5.012758555463887E-100
   47.9997000000000        -1.131922340216530E-099
   48.2391000000000        -2.067471669441119E-099
   48.4785000000000        -3.236246423827791E-099
   48.7179000000000        -4.333266735476083E-099
   48.9573000000000        -4.652098883867258E-099
   49.1967000000000        -2.896862192193803E-099
   49.4361000000000         2.951170948446081E-099
   49.6755000000000         1.556360314764991E-098
   49.9149000000000         3.774592239622064E-098
   50.1543000000000         7.112560046192542E-098
   50.3937000000000         1.136542524631692E-097
   50.6331000000000         1.556232209411929E-097
   50.8725000000000         1.742672890006499E-097
   51.1119000000000         1.278707890645700E-097
   51.3513000000000        -4.822665520938342E-098
   51.5907000000000        -4.391194262212416E-097
   51.8301000000000        -1.133966195758925E-096
   52.0695000000000        -2.185818222913601E-096
   52.3089000000000        -3.536797277884373E-096
   52.5483000000000        -4.901182622320551E-096
   52.7877000000000        -5.610509314166984E-096
   53.0271000000000        -4.449072398519409E-096
   53.2665000000000         4.506100096284238E-097
   53.5059000000000         1.152382665734109E-095
   53.7453000000000         3.130237463203629E-095
   53.9847000000000         6.129575743703708E-095
   54.2241000000000         9.995310559627613E-095
   54.4635000000000         1.395392776385665E-094
   54.7029000000000         1.620738654350609E-094
   54.9423000000000         1.351138471130851E-094
   55.1817000000000         9.195614324397306E-096
   55.4211000000000        -2.798091144765798E-094
   55.6605000000000        -7.985128442487421E-094
   55.8999000000000        -1.587732285055728E-093
   56.1393000000000        -2.611738820149849E-093
   56.3787000000000        -3.681392937291954E-093
   56.6181000000000        -4.355141107413365E-093
   56.8575000000000        -3.836679093642256E-093
   57.0969000000000        -9.118468654811900E-094
   57.3363000000000         6.000227964008003E-093
   57.5757000000000         1.856995398140346E-092
   57.8151000000000         3.791247159897771E-092
   58.0545000000000         6.343181240638702E-092
   58.2939000000000         9.106948368910402E-092
   58.5333000000000         1.110357763644429E-091
   58.7727000000000         1.054160962243633E-091
   59.0121000000000         4.654521181758980E-092
   59.2515000000000        -1.022747191095377E-091
   59.4909000000000        -3.813566477333974E-091
   59.7303000000000        -8.214991077271257E-091
   59.9697000000000        -1.420007348314208E-090
   60.2091000000000        -2.103769921697871E-090
   60.4485000000000        -2.680348687067862E-090
   60.6879000000000        -2.784039944673208E-090
   60.9273000000000        -1.833558273062196E-090
   61.1667000000000         9.685561994711013E-091
   61.4061000000000         6.548875656647713E-090
   61.6455000000000         1.572799743611827E-089
   61.8849000000000         2.877121664083670E-089
   62.1243000000000         4.467288102617412E-089
   62.3637000000000         6.017197053574725E-089
   62.6031000000000         6.859941934312469E-089
   62.8425000000000         5.882985865850915E-089
   63.0819000000000         1.485744884110213E-089
   63.3213000000000        -8.317979696991216E-089
   63.5607000000000        -2.553968144710035E-088
   63.8001000000000        -5.146564335511530E-088
   64.0395000000000        -8.539488976279624E-088
   64.2789000000000        -1.228120729571651E-087
   64.5183000000000        -1.530989887933759E-087
   64.7577000000000        -1.571671225196402E-087
   64.9971000000000        -1.058133831108919E-087
   65.2365000000000         3.985059686581931E-088
   65.4759000000000         3.239405129589557E-087
   65.7153000000000         7.848603814880183E-087
   65.9547000000000         1.435327100730447E-086
   66.1941000000000         2.231522272179695E-086
   66.4335000000000         3.031628769574777E-086
   66.6729000000000         3.548080576587577E-086
   66.9123000000000         3.304389421702369E-086
   67.1517000000000         1.616497641698272E-086
   67.3911000000000        -2.370485266813574E-086
   67.6305000000000        -9.548646772120646E-086
   67.8699000000000        -2.056878821735428E-085
   68.1093000000000        -3.537325100065213E-085
   68.3487000000000        -5.251952276467043E-085
   68.5881000000000        -6.832689144875186E-085
   68.8275000000000        -7.597053680927903E-085
   69.0669000000000        -6.478452153484282E-085
   69.3063000000000        -2.021270588443385E-085
   69.5457000000000         7.495777690638599E-085
   69.7851000000000         2.372816791559282E-084
   70.0245000000000         4.764127547906957E-084
   70.2639000000000         7.852787767057786E-084
   70.5033000000000         1.126611460763845E-083
   70.7427000000000         1.416927534400958E-083
   70.9821000000000         1.510920270293677E-083
   71.2215000000000         1.191813473517772E-083
   71.4609000000000         1.763602384261816E-084
   71.7003000000000        -1.853705159718735E-083
   71.9397000000000        -5.179859379026276E-083
   72.1791000000000        -9.921269549755011E-083
   72.4185000000000        -1.584757421934912E-082
   72.6579000000000        -2.213473173864038E-082
   72.8973000000000        -2.709126991634021E-082
   73.1367000000000        -2.791607639324602E-082
   73.3761000000000        -2.059298756060191E-082
   73.6155000000000        -7.685565727304662E-085
   73.8549000000000         3.903052475400639E-082
   74.0943000000000         1.010969830095491E-081
   74.3337000000000         1.871836377071902E-081
   74.5731000000000         2.918081355103517E-081
   74.8125000000000         3.989198211186820E-081
   75.0519000000000         4.776504668708195E-081
   75.2913000000000         4.789542509683360E-081
   75.5307000000000         3.349244052069374E-081
   75.7701000000000        -3.673075120518950E-082
   76.0095000000000        -7.200460323919156E-081
   76.2489000000000        -1.776934012029589E-080
   76.4883000000000        -3.209863591786352E-080
   76.7277000000000        -4.911024445901080E-080
   76.9671000000000        -6.601895740937302E-080
   77.2065000000000        -7.773200137580202E-080
   77.4459000000000        -7.643268884264057E-080
   77.6853000000000        -5.162100832530819E-080
   77.9247000000000         9.028701765706227E-081
   78.1641000000000         1.175803975875662E-079
   78.4035000000000         2.821319434849395E-079
   78.6429000000000         5.012633191339729E-079
   78.8823000000000         7.567541078920080E-079
   79.1217000000000         1.005273482609584E-078
   79.3611000000000         1.170591327872774E-078
   79.6005000000000         1.138924530382382E-078
   79.8399000000000         7.611871053028186E-079
   80.0793000000000        -1.330987066126734E-079
   80.3187000000000        -1.705053752106840E-078
   80.5581000000000        -4.054377479824141E-078
   80.7975000000000        -7.143958074393656E-078
   81.0369000000000        -1.070403948274119E-077
   81.2763000000000        -1.412661785511784E-077
   81.5157000000000        -1.637146505786233E-077
   81.7551000000000        -1.591810274074552E-077
   81.9945000000000        -1.081130729886489E-077
   82.2339000000000         1.142014098279281E-078
   82.4733000000000         2.196442438959358E-077
   82.7127000000000         5.283994151799679E-077
   82.9521000000000         9.317198922014902E-077
   83.1915000000000         1.394149212303684E-076
   83.4309000000000         1.838211874274471E-076
   83.6703000000000         2.133715828407123E-076
   83.9097000000000         2.093015998372631E-076
   84.1491000000000         1.477791229794487E-076
   84.3885000000000         2.388222212469601E-078
   84.6279000000000        -2.509253591185090E-076
   84.8673000000000        -6.259590136958273E-076
   85.1067000000000        -1.115331558028948E-075
   85.3461000000000        -1.677178028462543E-075
   85.5855000000000        -2.221163861936712E-075
   85.8249000000000        -2.596887605340646E-075
   86.0643000000000        -2.589279505685340E-075
   86.3037000000000        -1.927043201472659E-075
   86.5431000000000        -3.110989430590812E-076
   86.7825000000000         2.530221305406495E-075
   87.0219000000000         6.754514912786656E-075
   87.2613000000000         1.228707697931863E-074
   87.5007000000000         1.867874539609090E-074
   87.7401000000000         2.495858689147898E-074
   87.9795000000000         2.951416467736307E-074
   88.2189000000000         3.004743128911661E-074
   88.4583000000000         2.366803711203723E-074
   88.6977000000000         7.193625700782118E-075
   88.9371000000000        -2.227735568017643E-074
   89.1765000000000        -6.647748117382444E-074
   89.4159000000000        -1.247719973013121E-073
   89.6553000000000        -1.927338177701366E-073
   89.8947000000000        -2.606847599147394E-073
   90.1341000000000        -3.125300700793367E-073
   90.3735000000000        -3.253558636404332E-073
   90.6129000000000        -2.703812236735738E-073
   90.8523000000000        -1.159159005652631E-073
   91.0917000000000         1.670835709287136E-073
   91.3311000000000         5.965027611279012E-073
   91.5705000000000         1.167717583874357E-072
   91.8099000000000         1.840257896884160E-072
   92.0493000000000         2.524348989603314E-072
   92.2887000000000         3.070392178390867E-072
   92.5281000000000         3.265673120193063E-072
   92.7675000000000         2.843571111971307E-072
   93.0069000000000         1.510903414468471E-072
   93.2463000000000        -1.001691933121707E-072
   93.4857000000000        -4.863748740469720E-072
   93.7251000000000        -1.004508211675173E-071
   93.9645000000000        -1.620030102026649E-071
   94.2039000000000        -2.255458568014333E-071
   94.4433000000000        -2.781742527383468E-071
   94.6827000000000        -3.016057841287998E-071
   94.9221000000000        -2.730345610542716E-071
   95.1615000000000        -1.675029108222709E-071
   95.4009000000000         3.784795132628418E-072
   95.6403000000000         3.574997237565417E-071
   95.8797000000000         7.894719818651257E-071
   96.1191000000000         1.306182831475251E-070
   96.3585000000000         1.845674224936818E-070
   96.5979000000000         2.305347279119216E-070
   96.8373000000000         2.541008735654135E-070
   97.0767000000000         2.374427410658864E-070
   97.3161000000000         1.612505846053752E-070
   97.5555000000000         8.033664324979960E-072
   97.7949000000000        -2.331385304223869E-070
   98.0343000000000        -5.607007360413076E-070
   98.2737000000000        -9.540947429667897E-070
   98.5131000000000        -1.367806022639949E-069
   98.7525000000000        -1.727498840441170E-069
   98.9919000000000        -1.930189656912785E-069
   99.2313000000000        -1.850546881746532E-069
   99.4707000000000        -1.355175024518675E-069
   99.7101000000000        -3.259874364115957E-070
   99.9495000000000         1.307609395900885E-069
   100.188900000000         3.530022018350438E-069
   100.428300000000         6.199118058189077E-069
   100.667700000000         9.011844293715657E-069
   100.907100000000         1.148594935317439E-068
   101.146500000000         1.296949592432601E-068
   101.385900000000         1.268962888122218E-068
   101.625300000000         9.849261540793470E-069
   101.864700000000         3.774315513024270E-069
   102.104100000000        -5.895321454694239E-069
   102.343500000000        -1.899042204407518E-068
   102.582900000000        -3.460605102960264E-068
   102.822300000000        -5.095102552637466E-068
   103.061700000000        -6.530937585354223E-068
   103.301100000000        -7.417126831259119E-068
   103.540500000000        -7.358002435267293E-068
   103.779900000000        -5.971574913626270E-068
   104.019300000000        -2.969354547621925E-068
   104.258700000000         1.750245893506371E-068
   104.498100000000         8.009237887642762E-068
   104.737500000000         1.527845586627432E-067
   104.976900000000         2.265137821187495E-067
   105.216300000000         2.888778943805927E-067
   105.455700000000         3.254594786678676E-067
   105.695100000000         3.220897339196504E-067
   105.934500000000         2.679076211054942E-067
   106.173900000000         1.588034052025369E-067
   106.413300000000         5.491214305696844E-070
   106.652700000000        -1.893288946743153E-067
   106.892100000000        -3.820047825346896E-067
   107.131500000000        -5.411105456297525E-067
   107.370900000000        -6.303689087595892E-067
   107.610300000000        -6.249054632943515E-067
   107.849700000000        -5.249131675612999E-067
   108.089100000000        -3.689499798811455E-067
   108.328500000000        -2.427177411755529E-067
   108.567900000000        -2.780488931335083E-067
   108.807300000000        -6.364813000236891E-067
   109.046700000000        -1.472752318158776E-066
   109.286100000000        -2.876273524650590E-066
   109.525500000000        -4.793459965373121E-066
   109.764900000000        -6.940635719603630E-066
   110.004300000000        -8.725548836385729E-066
   110.243700000000        -9.204062064437697E-066
   110.483100000000        -7.105370134303422E-066
   110.722500000000        -9.615068688038958E-067
   110.961900000000         1.062805797784478E-065
   111.201300000000         2.858115882266836E-065
   111.440700000000         5.277897074989720E-065
   111.680100000000         8.142543152203356E-065
   111.919500000000         1.104224278245598E-064
   112.158900000000         1.329175503965900E-064
   112.398300000000         1.392296792898743E-064
   112.637700000000         1.173861152267083E-064
   112.877100000000         5.449655642543480E-065
   113.116500000000        -6.087353149096036E-065
   113.355900000000        -2.352992796375894E-064
   113.595300000000        -4.662394028792576E-064
   113.834700000000        -7.373811087858740E-064
   114.074100000000        -1.014368223281450E-063
   114.313500000000        -1.242022970443030E-063
   114.552900000000        -1.344437206479418E-063
   114.792300000000        -1.229424043611471E-063
   115.031700000000        -7.986880641501706E-064
   115.271100000000         3.540268595609031E-065
   115.510500000000         1.326447752478572E-063
   115.749900000000         3.065376213970325E-063
   115.989300000000         5.149571728330505E-063
   116.228700000000         7.354725257691032E-063
   116.468100000000         9.316271496386790E-063
   116.707500000000         1.052873078305841E-062
   116.946900000000         1.037183905375858E-062
   117.186300000000         8.171479094254971E-063
   117.425700000000         3.300634517976071E-063
   117.665100000000        -4.679480023218928E-063
   117.904500000000        -1.584539128500987E-062
   118.143900000000        -2.972120993114097E-062
   118.383300000000        -4.509983463358453E-062
   118.622700000000        -5.991356479799712E-062
   118.862100000000        -7.120057017920146E-062
   119.101500000000        -7.521745256790816E-062
   119.340900000000        -6.774460741975676E-062
   119.580300000000        -4.461768576464381E-062
   119.819700000000        -2.493241501213788E-063
   120.059100000000         6.018106068453138E-062
   120.298500000000         1.420703158914761E-061
   120.537900000000         2.378656410405865E-061
   120.777300000000         3.373999760540093E-061
   121.016700000000         4.252091331246903E-061
   121.256100000000         4.808100966172646E-061
   121.495500000000         4.799640031498877E-061
   121.734900000000         3.971392003462273E-061
   121.974300000000         2.092789806924923E-061
   122.213700000000        -9.919719261786782E-062
   122.453100000000        -5.304688563472952E-061
   122.692500000000        -1.067064228075327E-060
   122.931900000000        -1.666192981541828E-060
   123.171300000000        -2.255860993108101E-060
   123.410700000000        -2.734179154250667E-060
   123.650100000000        -2.973346468974039E-060
   123.889500000000        -2.829638139274267E-060
   124.128900000000        -2.160295261922673E-060
   124.368300000000        -8.474463413299830E-061
   124.607700000000         1.171920449332082E-060
   124.847100000000         3.872331610828489E-060
   125.086500000000         7.106560088858193E-060
   125.325900000000         1.057834931620439E-059
   125.565300000000         1.382813138335775E-059
   125.804700000000         1.623951362112732E-059
   126.044100000000         1.707410575922232E-059
   126.283500000000         1.554070784702133E-059
   126.522900000000         1.090167325556621E-059
   126.762300000000         2.614251670315434E-060
   127.001700000000        -9.501999253661119E-060
   127.241100000000        -2.508863660672803E-059
   127.480500000000        -4.308792650487497E-059
   127.719900000000        -6.163156488945325E-059
   127.959300000000        -7.801663820036174E-059
   128.198700000000        -8.880773814005232E-059
   128.438100000000        -9.009866488857175E-059
   128.677500000000        -7.795377730719612E-059
   128.916900000000        -4.902688786764658E-059
   129.156300000000        -1.324953925284137E-060
   129.395700000000         6.495338712169193E-059
   129.635100000000         1.466142750055162E-058
   129.874500000000         2.368465493105632E-058
   130.113900000000         3.249532693521612E-058
   130.353300000000         3.966147856040360E-058
   130.592700000000         4.348384941438926E-058
   130.832100000000         4.216918198382264E-058
   131.071500000000         3.408172037405215E-058
   131.310900000000         1.805933114185941E-058
   131.550300000000        -6.235457238681740E-059
   131.789700000000        -3.797609663363836E-058
   132.029100000000        -7.490583120237981E-058
   132.268500000000        -1.132155568050721E-057
   132.507900000000        -1.476366854507925E-057
   132.747300000000        -1.718072083571705E-057
   132.986700000000        -1.789410783519776E-057
   133.226100000000        -1.627871554121574E-057
   133.465500000000        -1.188066302630906E-057
   133.704900000000        -4.543293053731000E-058
   133.944300000000         5.478474396394027E-058
   134.183700000000         1.744009218427428E-057
   134.423100000000         3.009207110239174E-057
   134.662500000000         4.175107338167551E-057
   134.901900000000         5.047260929068029E-057
   135.141300000000         5.432581087004588E-057
   135.380700000000         5.175033057878192E-057
   135.620100000000         4.195119904265072E-057
   135.859500000000         2.526295360315715E-057
   136.098900000000         3.394491222325846E-058
   136.338300000000        -2.054302354654586E-057
   136.577700000000        -4.231487131912266E-057
   136.817100000000        -5.720716874227112E-057
   137.056500000000        -6.103961969424720E-057
   137.295900000000        -5.146808017746500E-057
   137.535300000000        -2.939878718082588E-057
   137.774700000000        -2.312469870847219E-059
   138.014100000000         2.544338730896035E-057
   138.253500000000         3.211146472695668E-057
   138.492900000000         9.774894430428618E-059
   138.732300000000        -8.673462975934693E-057