  -1.79550000000000         0.000000000000000E+000
  -1.55610000000000         0.000000000000000E+000
  -1.31670000000000         0.000000000000000E+000
  -1.07730000000000         0.000000000000000E+000
 -0.837900000000000         0.000000000000000E+000
 -0.598500000000000         0.000000000000000E+000
 -0.359100000000000         0.000000000000000E+000
 -0.119700000000000         0.000000000000000E+000
  0.119700000000000         0.000000000000000E+000
  0.359100000000000         0.000000000000000E+000
  0.598500000000000         0.000000000000000E+000
  0.837900000000000         0.000000000000000E+000
   1.07730000000000         0.000000000000000E+000
   1.31670000000000         0.000000000000000E+000
   1.55610000000000         0.000000000000000E+000
   1.79550000000000         0.000000000000000E+000
   2.03490000000000         0.000000000000000E+000
   2.27430000000000         0.000000000000000E+000
   2.51370000000000         0.000000000000000E+000
   2.75310000000000         0.000000000000000E+000
   2.99250000000000         0.000000000000000E+000
   3.23190000000000         0.000000000000000E+000
   3.47130000000000         0.000000000000000E+000
   3.71070000000000         0.000000000000000E+000
   3.95010000000000         0.000000000000000E+000
   4.18950000000000         0.000000000000000E+000
   4.42890000000000         0.000000000000000E+000
   4.66830000000000         0.000000000000000E+000
   4.90770000000000         0.000000000000000E+000
   5.14710000000000         0.000000000000000E+000
   5.38650000000000         0.000000000000000E+000
   5.62590000000000         0.000000000000000E+000
   5.86530000000000         0.000000000000000E+000
   6.10470000000000         0.000000000000000E+000
   6.34410000000000         0.000000000000000E+000
   6.58350000000000         0.000000000000000E+000
   6.82290000000000         0.000000000000000E+000
   7.06230000000000         0.000000000000000E+000
   7.30170000000000         0.000000000000000E+000
   7.54110000000000         0.000000000000000E+000
   7.78050000000000         0.000000000000000E+000
   8.01990000000000         0.000000000000000E+000
   8.25930000000000         0.000000000000000E+000
   8.49870000000000         4.699736581406116E-189
   8.73810000000000        -6.177341981082338E-181
   8.97750000000000         8.995395736443484E-175
   9.21690000000000         6.186220267102167E-174
   9.45630000000000         5.020042261939273E-169
   9.69570000000000         3.851283527504650E-167
   9.93510000000000         1.406999200101093E-165
   10.1745000000000         3.243992875376051E-164
   10.4139000000000         5.107515015229997E-163
   10.6533000000000         5.003894789359607E-162
   10.8927000000000         1.251154489807148E-162
   11.1321000000000        -1.206546592772150E-159
   11.3715000000000        -3.229655369788764E-158
   11.6109000000000        -5.823956267132716E-157
   11.8503000000000        -8.459063132708289E-156
   12.0897000000000        -1.048927658044786E-154
   12.3291000000000        -1.142169758740204E-153
   12.5685000000000        -1.111063246331554E-152
   12.8079000000000        -9.773807638993234E-152
   13.0473000000000        -7.849959810356876E-151
   13.2867000000000        -5.803203169256312E-150
   13.5261000000000        -3.977538053323144E-149
   13.7655000000000        -2.544915804854743E-148
   14.0049000000000        -1.530277902044972E-147
   14.2443000000000        -8.707636871577907E-147
   14.4837000000000        -4.722776245746886E-146
   14.7231000000000        -2.459979438510902E-145
   14.9625000000000        -1.239932200369262E-144
   15.2019000000000        -6.090850166587811E-144
   15.4413000000000        -2.932932321843365E-143
   15.6807000000000        -1.389702993629403E-142
   15.9201000000000        -6.488333179903984E-142
   16.1595000000000        -2.982227198047828E-141
   16.3989000000000        -1.345989534028097E-140
   16.6383000000000        -5.945606731771734E-140
   16.8777000000000        -2.561855896532607E-139
   17.1171000000000        -1.073665023361488E-138
   17.3565000000000        -4.366996738023365E-138
   17.5959000000000        -1.721237994023497E-137
   17.8353000000000        -6.568227578861308E-137
   18.0747000000000        -2.425584107100658E-136
   18.3141000000000        -8.667804877777001E-136
   18.5535000000000        -2.997752259080239E-135
   18.7929000000000        -1.003722611828445E-134
   19.0323000000000        -3.254924010883397E-134
   19.2717000000000        -1.022762484214954E-133
   19.5111000000000        -3.115433753798879E-133
   19.7505000000000        -9.203882216881629E-133
   19.9899000000000        -2.638289339049561E-132
   20.2293000000000        -7.340966878351477E-132
   20.4687000000000        -1.983534499758452E-131
   20.7081000000000        -5.206739765357359E-131
   20.9475000000000        -1.328452855778795E-130
   21.1869000000000        -3.296583769713280E-130
   21.4263000000000        -7.964044423470995E-130
   21.6657000000000        -1.875827109960470E-129
   21.9051000000000        -4.317567144187300E-129
   22.1445000000000        -9.745614649708092E-129
   22.3839000000000        -2.168604447408429E-128
   22.6233000000000        -4.791987771716847E-128
   22.8627000000000        -1.061185850910221E-127
   23.1021000000000        -2.378402704836353E-127
   23.3415000000000        -5.439230511256327E-127
   23.5809000000000        -1.273815410226963E-126
   23.8203000000000        -3.046844807982854E-126
   24.0597000000000        -7.383303949757611E-126
   24.2991000000000        -1.792772652630346E-125
   24.5385000000000        -4.312988836781697E-125
   24.7779000000000        -1.017830081663462E-124
   25.0173000000000        -2.336635461849869E-124
   25.2567000000000        -5.181086797066542E-124
   25.4961000000000        -1.102092938369027E-123
   25.7355000000000        -2.232042373196310E-123
   25.9749000000000        -4.261206771719409E-123
   26.2143000000000        -7.550358081961001E-123
   26.4537000000000        -1.206967744140086E-122
   26.6931000000000        -1.632239568419532E-122
   26.9325000000000        -1.496661761960875E-122
   27.1719000000000         5.623203112909016E-123
   27.4113000000000         7.410831280857426E-122
   27.6507000000000         2.410769721634798E-121
   27.8901000000000         5.770004479879375E-121
   28.1295000000000         1.136656369281607E-120
   28.3689000000000         1.836436211177160E-120
   28.6083000000000         2.147658718357962E-120
   28.8477000000000         4.681255975130927E-121
   29.0871000000000        -6.939030709801782E-120
   29.3265000000000        -2.728219891686961E-119
   29.5659000000000        -7.181055903979934E-119
   29.8053000000000        -1.523707809553644E-118
   30.0447000000000        -2.661163329686656E-118
   30.2841000000000        -3.523424631914001E-118
   30.5235000000000        -1.932998146799034E-118
   30.7629000000000         7.818791055209968E-118
   31.0023000000000         3.831370502904910E-117
   31.2417000000000         1.136869712691547E-116
   31.4811000000000         2.739804459361324E-116
   31.7205000000000         5.734268983331332E-116
   31.9599000000000         1.058423184526239E-115
   32.1993000000000         1.695671286346840E-115
   32.4387000000000         2.197577109153259E-115
   32.6781000000000         1.663907311538563E-115
   32.9175000000000        -2.058064089861136E-115
   33.1569000000000        -1.335532277733766E-114
   33.3963000000000        -4.005032566232379E-114
   33.6357000000000        -9.420410498718723E-114
   33.8751000000000        -1.908351680051774E-113
   34.1145000000000        -3.408914556658105E-113
   34.3539000000000        -5.316496166380145E-113
   34.5933000000000        -6.835032677419628E-113
   34.8327000000000        -5.681608147524677E-113
   35.0721000000000         3.264906441721141E-113
   35.3115000000000         2.986503222517563E-112
   35.5509000000000         9.076361806865048E-112
   35.7903000000000         2.101938699454044E-111
   36.0297000000000         4.162591497148367E-111
   36.2691000000000         7.262257994101443E-111
   36.5085000000000         1.109780054892978E-110
   36.7479000000000         1.413997257873282E-110
   36.9873000000000         1.230732208031021E-110
   37.2267000000000        -3.070819849702470E-111
   37.4661000000000        -4.786132998767383E-110
   37.7055000000000        -1.474501451909073E-109
   37.9449000000000        -3.364622222453997E-109
   38.1843000000000        -6.509861723707397E-109
   38.4237000000000        -1.104512339117463E-108
   38.6631000000000        -1.633925892905080E-108
   38.9025000000000        -1.997813261923500E-108
   39.1419000000000        -1.610529111869517E-108
   39.3813000000000         6.890094045121584E-109
   39.6207000000000         6.889460127253583E-108
   39.8601000000000         1.993788997498240E-107
   40.0995000000000         4.343014056450408E-107
   40.3389000000000         8.026735262418019E-107
   40.5783000000000         1.293320777151053E-106
   40.8177000000000         1.789132015311511E-106
   41.0571000000000         1.955960509708500E-106
   41.2965000000000         1.082011725710931E-106
   41.5359000000000        -2.109350443108056E-106
   41.7753000000000        -9.591160363292538E-106
   42.0147000000000        -2.391953489081295E-105
   42.2541000000000        -4.752192021280076E-105
   42.4935000000000        -8.082507628453420E-105
   42.7329000000000        -1.184755787860303E-104
   42.9723000000000        -1.429091605507213E-104
   43.2117000000000        -1.150390542756759E-104
   43.4511000000000         3.662060079441450E-105
   43.6905000000000         4.237946901695903E-104
   43.9299000000000         1.192894074774037E-103
   44.1693000000000         2.487188013775682E-103
   44.4087000000000         4.347559337180950E-103
   44.6481000000000         6.514585039914565E-103
   44.8875000000000         8.097551656814100E-103
   45.1269000000000         7.105928837236526E-103
   45.3663000000000        -7.965644601415777E-105
   45.6057000000000        -1.905591346996788E-102
   45.8451000000000        -5.704984647673187E-102
   46.0845000000000        -1.209757850794430E-101
   46.3239000000000        -2.125657108327957E-101
   46.5633000000000        -3.189652445515391E-101
   46.8027000000000        -3.974761578222400E-101
   47.0421000000000        -3.546795095777330E-101
   47.2815000000000        -2.398973519167179E-102
   47.5209000000000         8.470863960161802E-101
   47.7603000000000         2.577259973464213E-100
   47.9997000000000         5.461409174492597E-100
   48.2391000000000         9.556698908529121E-100
   48.4785000000000         1.428421190875845E-099
   48.7179000000000         1.780317003533822E-099
   48.9573000000000         1.618382943625198E-099
   49.1967000000000         2.560424106576623E-100
   49.4361000000000        -3.327676774440272E-099
   49.6755000000000        -1.039727562216775E-098
   49.9149000000000        -2.209810506375022E-098
   50.1543000000000        -3.863313462155778E-098
   50.3937000000000        -5.777810138458724E-098
   50.6331000000000        -7.261557736709528E-098
   50.8725000000000        -6.863010701968038E-098
   51.1119000000000        -2.085475959855031E-098
   51.3513000000000         1.073083581286747E-097
   51.5907000000000         3.606311155515265E-097
   51.8301000000000         7.794170081880874E-097
   52.0695000000000         1.371799722327924E-096
   52.3089000000000         2.065092698956347E-096
   52.5483000000000         2.633342469296990E-096
   52.7877000000000         2.606807528417207E-096
   53.0271000000000         1.186028663412024E-096
   53.2665000000000        -2.789254982423307E-096
   53.5059000000000        -1.072806251777440E-095
   53.7453000000000        -2.390198648205058E-095
   53.9847000000000        -4.262182221922698E-095
   54.2241000000000        -6.482226416424487E-095
   54.4635000000000        -8.399559191201402E-095
   54.7029000000000        -8.666142470734196E-095
   54.9423000000000        -5.002461138248569E-095
   55.1817000000000         5.879590614905867E-095
   55.4211000000000         2.796111215347670E-094
   55.6605000000000         6.486748811602538E-094
   55.8999000000000         1.176747620986484E-093
   56.1393000000000         1.811958765980624E-093
   56.3787000000000         2.386301090919278E-093
   56.6181000000000         2.550867215455324E-093
   56.8575000000000         1.716424520029038E-093
   57.0969000000000        -9.664594700261650E-094
   57.3363000000000        -6.530583160359519E-093
   57.5757000000000        -1.593730139021005E-092
   57.8151000000000        -2.954677637368452E-092
   58.0545000000000        -4.622599437605546E-092
   58.2939000000000        -6.206757879131737E-092
   58.5333000000000        -6.883541208194715E-092
   58.7727000000000        -5.251102773854253E-092
   59.0121000000000         7.293478534280522E-093
   59.2515000000000         1.357825750316652E-091
   59.4909000000000         3.574758228744951E-091
   59.7303000000000         6.845864243854313E-091
   59.9697000000000         1.097268830289026E-090
   60.2091000000000         1.514928616760905E-090
   60.4485000000000         1.760695187972015E-090
   60.6879000000000         1.526444172091468E-090
   60.9273000000000         3.538515662667390E-091
   61.1667000000000        -2.342395335413186E-090
   61.4061000000000        -7.171509462990685E-090
   61.6455000000000        -1.453709007503118E-089
   61.8849000000000        -2.423520788835688E-089
   62.1243000000000        -3.485407766797706E-089
   62.3637000000000        -4.300161061116378E-089
   62.6031000000000        -4.248568461089316E-089
   62.8425000000000        -2.372713170467930E-089
   63.0819000000000         2.610373308998957E-089
   63.3213000000000         1.214935363184374E-088
   63.5607000000000         2.745885255847464E-088
   63.8001000000000         4.877774324580432E-088
   64.0395000000000         7.420913416400481E-088
   64.2789000000000         9.814732766934038E-088
   64.5183000000000         1.094624779886210E-087
   64.7577000000000         8.988722435306772E-088
   64.9971000000000         1.343953783719520E-088
   65.2365000000000        -1.518045374052357E-087
   65.4759000000000        -4.377936763279821E-087
   65.7153000000000        -8.643410799119724E-087
   65.9547000000000        -1.418789912362886E-086
   66.1941000000000        -2.026629384733804E-086
   66.4335000000000        -2.514645645153598E-086
   66.6729000000000        -2.572570186385887E-086
   66.9123000000000        -1.725821606530521E-086
   67.1517000000000         6.593238631587293E-087
   67.3911000000000         5.307008410071118E-086
   67.6305000000000         1.286003469607905E-085
   67.8699000000000         2.356309467012110E-085
   68.1093000000000         3.676905558143479E-085
   68.3487000000000         5.026776932792873E-085
   68.5881000000000         5.949945624152904E-085
   68.8275000000000         5.681692379403580E-085
   69.0669000000000         3.110542031381408E-085
   69.3063000000000        -3.175369149022931E-085
   69.5457000000000        -1.469090904923759E-084
   69.7851000000000        -3.262660558199884E-084
   70.0245000000000        -5.711553639887543E-084
   70.2639000000000        -8.615090921990497E-084
   70.5033000000000        -1.141888451646222E-083
   70.7427000000000        -1.306114839060214E-083
   70.9821000000000        -1.184399227200298E-083
   71.2215000000000        -5.397143931203249E-084
   71.4609000000000         9.165913358009933E-084
   71.7003000000000         3.476996809668525E-083
   71.9397000000000         7.343525653151876E-083
   72.1791000000000         1.247481730108583E-082
   72.4185000000000         1.837053934106349E-082
   72.6579000000000         2.380609880969976E-082
   72.8973000000000         2.655886071039019E-082
   73.1367000000000         2.320760035428242E-082
   73.3761000000000         9.137574294982649E-083
   73.6155000000000        -2.106293318711092E-082
   73.8549000000000        -7.258720612575173E-082
   74.0943000000000        -1.485428761133933E-081
   74.3337000000000        -2.470639472810366E-081
   74.5731000000000        -3.574077373230931E-081
   74.8125000000000        -4.553692629391382E-081
   75.0519000000000        -4.988544415828161E-081
   75.2913000000000        -4.251424682652393E-081
   75.5307000000000        -1.521769516345119E-081
   75.7701000000000         4.129939131342279E-081
   76.0095000000000         1.355022481656682E-080
   76.2489000000000         2.716918265463159E-080
   76.4883000000000         4.450597776098862E-080
   76.7277000000000         6.352622926610009E-080
   76.9671000000000         7.992031190595289E-080
   77.2065000000000         8.645390780332021E-080
   77.4459000000000         7.264763373092309E-080
   77.6853000000000         2.515874937223822E-080
   77.9247000000000        -7.066113921324336E-080
   78.1641000000000        -2.275154177447160E-079
   78.4035000000000        -4.507766898068274E-079
   78.6429000000000        -7.307900688428987E-079
   78.8823000000000        -1.033224146941110E-078
   79.1217000000000        -1.288690166767733E-078
   79.3611000000000        -1.384050567300566E-078
   79.6005000000000        -1.159299353047880E-078
   79.8399000000000        -4.154037005280499E-079
   80.0793000000000         1.060347950035645E-078
   80.3187000000000         3.444747719199672E-078
   80.5581000000000         6.799640637073616E-078
   80.7975000000000         1.096254315222444E-077
   81.0369000000000         1.541381284400178E-077
   81.2763000000000         1.913923440689230E-077
   81.5157000000000         2.052280234349024E-077
   81.7551000000000         1.732294096211439E-077
   81.9945000000000         6.803224037612476E-078
   82.2339000000000        -1.389956308449041E-077
   82.4733000000000        -4.708922692774464E-077
   82.7127000000000        -9.345073743552247E-077
   82.9521000000000        -1.506224599443129E-076
   83.1915000000000        -2.115084367138613E-076
   83.4309000000000        -2.625903362093762E-076
   83.6703000000000        -2.826921137800824E-076
   83.9097000000000        -2.428651536007847E-076
   84.1491000000000        -1.082559198172260E-076
   84.3885000000000         1.570746042464082E-076
   84.6279000000000         5.814815729042770E-076
   84.8673000000000         1.172678354894104E-075
   85.1067000000000         1.900511581250095E-075
   85.3461000000000         2.677039249818543E-075
   85.5855000000000         3.337140857009312E-075
   85.8249000000000         3.625062626541407E-075
   86.0643000000000         3.194620657788981E-075
   86.3037000000000         1.632754465837895E-075
   86.5431000000000        -1.483008190327134E-075
   86.7825000000000        -6.483837161333030E-075
   87.0219000000000        -1.346075268697731E-074
   87.2613000000000        -2.207154933536426E-074
   87.5007000000000        -3.132127560816333E-074
   87.7401000000000        -3.935301527548200E-074
   87.9795000000000        -4.330846041058947E-074
   88.2189000000000        -3.934116364442285E-074
   88.4583000000000        -2.288400543430131E-074
   88.6977000000000         1.072153666528774E-074
   88.9371000000000         6.514324131233717E-074
   89.1765000000000         1.414821306456379E-073
   89.4159000000000         2.362552871658812E-073
   89.6553000000000         3.391333810697339E-073
   89.8947000000000         4.308191032628871E-073
   90.1341000000000         4.816746722003480E-073
   90.3735000000000         4.519269108942501E-073
   90.6129000000000         2.944425167255937E-073
   90.8523000000000        -3.890216764307815E-074
   91.0917000000000        -5.864266656206282E-073
   91.3311000000000        -1.361115581701186E-072
   91.5705000000000        -2.330966931236420E-072
   91.8099000000000        -3.397209495549940E-072
   92.0493000000000        -4.374158016881252E-072
   92.2887000000000        -4.976491565540294E-072
   92.5281000000000        -4.821666458512204E-072
   92.7675000000000        -3.456498921404460E-072
   93.0069000000000        -4.169864449381912E-073
   93.2463000000000         4.671629122868415E-072
   93.4857000000000         1.195253420963021E-071
   93.7251000000000         2.115925577176512E-071
   93.9645000000000         3.142057689295129E-071
   94.2039000000000         4.108264319586101E-071
   94.4433000000000         4.759938530577022E-071
   94.6827000000000         4.755784043920571E-071
   94.9221000000000         3.691448985331318E-071
   95.1615000000000         1.151661337929759E-071
   95.4009000000000        -3.203754030632266E-071
   95.6403000000000        -9.519034250621724E-071
   95.8797000000000        -1.759313736874576E-070
   96.1191000000000        -2.671832859185225E-070
   96.3585000000000        -3.553542709658241E-070
   96.5979000000000        -4.194745666914171E-070
   96.8373000000000        -4.314464041086206E-070
   97.0767000000000        -3.579952083628526E-070
   97.3161000000000        -1.648712634573695E-070
   97.5555000000000         1.763307379203094E-070
   97.7949000000000         6.787318019064963E-070
   98.0343000000000         1.328675460510835E-069
   98.2737000000000         2.073510156173526E-069
   98.5131000000000         2.810868350459909E-069
   98.7525000000000         3.382562150666401E-069
   98.9919000000000         3.576927177605182E-069
   99.2313000000000         3.143715810665198E-069
   99.4707000000000         1.825172367327858E-069
   99.7101000000000        -5.945745816254892E-070
   99.9495000000000        -4.222413089890239E-069
   100.188900000000        -8.976108208225450E-069
   100.428300000000        -1.450096432083922E-068
   100.667700000000        -2.009889694291315E-068
   100.907100000000        -2.469094465957642E-068
   101.146500000000        -2.683800374798152E-068
   101.385900000000        -2.484500966548718E-068
   101.625300000000        -1.696917560229141E-068
   101.864700000000        -1.741704762949950E-069
   102.104100000000         2.160624062886144E-068
   102.343500000000         5.264828875913884E-068
   102.582900000000         8.926418840025191E-068
   102.822300000000         1.272355468970825E-067
   103.061700000000         1.600606366096869E-067
   103.301100000000         1.791265967922353E-067
   103.540500000000         1.743688890895801E-067
   103.779900000000         1.355088915758989E-067
   104.019300000000         5.388538892895299E-068
   104.258700000000        -7.521598552165704E-068
   104.498100000000        -2.499722613662868E-067
   104.737500000000        -4.595617485421777E-067
   104.976900000000        -6.823601970426813E-067
   105.216300000000        -8.854101935839257E-067
   105.455700000000        -1.025775023150756E-066
   105.695100000000        -1.054253909454129E-066
   105.934500000000        -9.216458251856524E-067
   106.173900000000        -5.873026246681236E-067
   106.413300000000        -2.914346795214162E-068
   106.652700000000         7.463103364074995E-067
   106.892100000000         1.695854134915264E-066
   107.131500000000         2.735739767345411E-066
   107.370900000000         3.744182820891906E-066
   107.610300000000         4.571696398107378E-066
   107.849700000000         5.059376857208861E-066
   108.089100000000         5.063334738190736E-066
   108.328500000000         4.481160703953864E-066
   108.567900000000         3.274081633607098E-066
   108.807300000000         1.476943400194057E-066
   109.046700000000        -8.118512857579672E-067
   109.286100000000        -3.466008367587829E-066
   109.525500000000        -6.392911951339676E-066
   109.764900000000        -9.613027130305646E-066
   110.004300000000        -1.333815958120617E-065
   110.243700000000        -1.801774705658969E-065
   110.483100000000        -2.431232455565443E-065
   110.722500000000        -3.294895317237620E-065
   110.961900000000        -4.441934404569301E-065
   111.201300000000        -5.850225213093645E-065
   111.440700000000        -7.363090805534404E-065
   111.680100000000        -8.618458013113626E-065
   111.919500000000        -8.985723672126568E-065
   112.158900000000        -7.533621474464087E-065
   112.398300000000        -3.059336378816531E-065
   112.637700000000         5.787296729931879E-065
   112.877100000000         2.025329651322884E-064
   113.116500000000         4.108634674760506E-064
   113.355900000000         6.799704735825752E-064
   113.595300000000         9.902017435977672E-064
   113.834700000000         1.298638015523063E-063
   114.074100000000         1.533909485197867E-063
   114.313500000000         1.594334235109751E-063
   114.552900000000         1.351790777577965E-063
   114.792300000000         6.638530123902250E-064
   115.031700000000        -6.036549860792470E-064
   115.271100000000        -2.542567423015372E-063
   115.510500000000        -5.157478230053142E-063
   115.749900000000        -8.313457077922668E-063
   115.989300000000        -1.168322269379748E-062
   116.228700000000        -1.470444258952236E-062
   116.468100000000        -1.656148963640392E-062
   116.707500000000        -1.620865891866489E-062
   116.946900000000        -1.245249618070369E-062
   117.186300000000        -4.108361673915123E-063
   117.425700000000         9.760444506249239E-063
   117.665100000000         2.952453950724854E-062
   117.904500000000         5.461200100931924E-062
   118.143900000000         8.311606689479926E-062
   118.383300000000         1.114539566574440E-061
   118.622700000000         1.341677248427413E-061
   118.862100000000         1.439767265129922E-061
   119.101500000000         1.321986948430589E-061
   119.340900000000         8.964588548355945E-062
   119.580300000000         8.067638142506511E-063
   119.819700000000        -1.178542026974864E-061
   120.059100000000        -2.880476482053784E-061
   120.298500000000        -4.943483928011670E-061
   120.537900000000        -7.179193492954541E-061
   120.777300000000        -9.273121598531102E-061
   121.016700000000        -1.077826191622726E-060
   121.256100000000        -1.112904931571427E-060
   121.495500000000        -9.683053436527022E-061
   121.734900000000        -5.796425468697182E-061
   121.974300000000         1.063864932688784E-061
   122.213700000000         1.117286250611776E-060
   122.453100000000         2.437424996218068E-060
   122.692500000000         3.989806221128593E-060
   122.931900000000         5.619644690099905E-060
   123.171300000000         7.083404925953301E-060
   123.410700000000         8.047757623890201E-060
   123.650100000000         8.103334467032306E-060
   123.889500000000         6.797970941460029E-060
   124.128900000000         3.693065151173301E-060
   124.368300000000        -1.555482584920367E-060
   124.607700000000        -9.093707731812415E-060
   124.847100000000        -1.875006457043229E-059
   125.086500000000        -2.991244350196921E-059
   125.325900000000        -4.142070786992552E-059
   125.565300000000        -5.150014716098694E-059
   125.804700000000        -5.776646368744411E-059
   126.044100000000        -5.733549920057477E-059
   126.283500000000        -4.706917372030647E-059
   126.522900000000        -2.398126693742052E-059
   126.762300000000         1.418889595034332E-059
   127.001700000000         6.825118395577394E-059
   127.241100000000         1.367375013455916E-058
   127.480500000000         2.150633716638059E-058
   127.719900000000         2.948142025484482E-058
   127.959300000000         3.633361556200647E-058
   128.198700000000         4.038460552226371E-058
   128.438100000000         3.962892889731162E-058
   128.677500000000         3.191570098346149E-058
   128.916900000000         1.524116365555181E-058
   129.156300000000        -1.184481367968265E-058
   129.395700000000        -4.973312299724676E-058
   129.635100000000        -9.718954434605710E-058
   129.874500000000        -1.507962465646836E-057
   130.113900000000        -2.044991552313777E-057
   130.353300000000        -2.493882264366750E-057
   130.592700000000        -2.738578249805277E-057
   130.832100000000        -2.642986786909759E-057
   131.071500000000        -2.064529872785292E-057
   131.310900000000        -8.751224746308451E-058
   131.550300000000         1.010528521773975E-057
   131.789700000000         3.600717225277580E-057
   132.029100000000         6.789707605069300E-057
   132.268500000000         1.032287854508396E-056
   132.507900000000         1.377098603545810E-056
   132.747300000000         1.652212231569471E-056
   132.986700000000         1.780086454097662E-056
   133.226100000000         1.672379993687915E-056
   133.465500000000         1.239858583783487E-056
   133.704900000000         4.069517755342725E-057
   133.944300000000        -8.694017651054447E-057
   134.183700000000        -2.577878427763538E-056
   134.423100000000        -4.630204455840663E-056
   134.662500000000        -6.841410484456535E-056
   134.901900000000        -8.917504168920191E-056
   135.141300000000        -1.045594721111493E-055
   135.380700000000        -1.096454067896981E-055
   135.620100000000        -9.903680400575232E-056
   135.859500000000        -6.755174143876736E-056
   136.098900000000        -1.117722773120674E-056
   136.338300000000         7.175289585905980E-056
   136.577700000000         1.792571056535368E-055
   136.817100000000         3.044467211218209E-055
   137.056500000000         4.345362614769037E-055
   137.295900000000         5.504052623692459E-055
   137.535300000000         6.270216903324565E-055
   137.774700000000         6.350255885744133E-055
   138.014100000000         5.437050065102850E-055
   138.253500000000         3.254625124758457E-055
   138.492900000000        -3.833615515992853E-056
   138.732300000000        -5.505154080346129E-055