  -1.79550000000000         0.000000000000000E+000
  -1.55610000000000         0.000000000000000E+000
  -1.31670000000000         0.000000000000000E+000
  -1.07730000000000         0.000000000000000E+000
 -0.837900000000000         0.000000000000000E+000
 -0.598500000000000         0.000000000000000E+000
 -0.359100000000000         0.000000000000000E+000
 -0.119700000000000         0.000000000000000E+000
  0.119700000000000         0.000000000000000E+000
  0.359100000000000         0.000000000000000E+000
  0.598500000000000         0.000000000000000E+000
  0.837900000000000         0.000000000000000E+000
   1.07730000000000         0.000000000000000E+000
   1.31670000000000         0.000000000000000E+000
   1.55610000000000         0.000000000000000E+000
   1.79550000000000         0.000000000000000E+000
   2.03490000000000         0.000000000000000E+000
   2.27430000000000         0.000000000000000E+000
   2.51370000000000         0.000000000000000E+000
   2.75310000000000         0.000000000000000E+000
   2.99250000000000         0.000000000000000E+000
   3.23190000000000         0.000000000000000E+000
   3.47130000000000         0.000000000000000E+000
   3.71070000000000         0.000000000000000E+000
   3.95010000000000         0.000000000000000E+000
   4.18950000000000         0.000000000000000E+000
   4.42890000000000         0.000000000000000E+000
   4.66830000000000         0.000000000000000E+000
   4.90770000000000         0.000000000000000E+000
   5.14710000000000         0.000000000000000E+000
   5.38650000000000         0.000000000000000E+000
   5.62590000000000         0.000000000000000E+000
   5.86530000000000         0.000000000000000E+000
   6.10470000000000         0.000000000000000E+000
   6.34410000000000         0.000000000000000E+000
   6.58350000000000         0.000000000000000E+000
   6.82290000000000         0.000000000000000E+000
   7.06230000000000         0.000000000000000E+000
   7.30170000000000         0.000000000000000E+000
   7.54110000000000         0.000000000000000E+000
   7.78050000000000         0.000000000000000E+000
   8.01990000000000         0.000000000000000E+000
   8.25930000000000         0.000000000000000E+000
   8.49870000000000         0.000000000000000E+000
   8.73810000000000         6.073369435980911E-190
   8.97750000000000         1.815624335767788E-183
   9.21690000000000        -1.425454401700963E-177
   9.45630000000000        -1.330889718291367E-175
   9.69570000000000        -1.418508701785637E-171
   9.93510000000000        -6.104661042593614E-170
   10.1745000000000        -3.931138088423468E-170
   10.4139000000000         6.386161349554885E-167
   10.6533000000000         2.468723922654460E-165
   10.8927000000000         5.465440850095950E-164
   11.1321000000000         8.277215218307783E-163
   11.3715000000000         8.174537524403624E-162
   11.6109000000000         1.854677038130984E-161
   11.8503000000000        -1.306965368259880E-159
   12.0897000000000        -3.641666021281603E-158
   12.3291000000000        -6.456328386791817E-157
   12.5685000000000        -9.122618258011715E-156
   12.8079000000000        -1.098089076216679E-154
   13.0473000000000        -1.160740131990797E-153
   13.2867000000000        -1.096288379704580E-152
   13.5261000000000        -9.355758247820269E-152
   13.7655000000000        -7.270606370810441E-151
   14.0049000000000        -5.172992594334096E-150
   14.2443000000000        -3.381182115934941E-149
   14.4837000000000        -2.032970436786472E-148
   14.7231000000000        -1.122986371651427E-147
   14.9625000000000        -5.668964233525102E-147
   15.2019000000000        -2.582398496702931E-146
   15.4413000000000        -1.030951469161399E-145
   15.6807000000000        -3.333550689874736E-145
   15.9201000000000        -6.163959179346497E-145
   16.1595000000000         2.183093232243311E-144
   16.3989000000000         3.418187840158671E-143
   16.6383000000000         2.606336600229498E-142
   16.8777000000000         1.590579304024534E-141
   17.1171000000000         8.582221430385306E-141
   17.3565000000000         4.255360835277438E-140
   17.5959000000000         1.977421322428086E-139
   17.8353000000000         8.713289433664367E-139
   18.0747000000000         3.669163436420092E-138
   18.3141000000000         1.484809026052688E-137
   18.5535000000000         5.798402562176546E-137
   18.7929000000000         2.192241977158271E-136
   19.0323000000000         8.044922145857193E-136
   19.2717000000000         2.871369068901515E-135
   19.5111000000000         9.983532461338444E-135
   19.7505000000000         3.385687653223530E-134
   19.9899000000000         1.120950314066118E-133
   20.2293000000000         3.625793238648653E-133
   20.4687000000000         1.146322341812126E-132
   20.7081000000000         3.543505263032086E-132
   20.9475000000000         1.071166725616202E-131
   21.1869000000000         3.166681037498664E-131
   21.4263000000000         9.155009176683923E-131
   21.6657000000000         2.588016935759008E-130
   21.9051000000000         7.152192427526809E-130
   22.1445000000000         1.931721618215144E-129
   22.3839000000000         5.096877496180639E-129
   22.6233000000000         1.313037756613115E-128
   22.8627000000000         3.300201771568389E-128
   23.1021000000000         8.084617148397234E-128
   23.3415000000000         1.927726300250891E-127
   23.5809000000000         4.465720423979987E-127
   23.8203000000000         1.002475846733210E-126
   24.0597000000000         2.172640423626982E-126
   24.2991000000000         4.521269714892622E-126
   24.5385000000000         8.957745379124760E-126
   24.7779000000000         1.665734282222030E-125
   25.0173000000000         2.830126209017331E-125
   25.2567000000000         4.131429486049903E-125
   25.4961000000000         4.204482706997554E-125
   25.7355000000000        -1.345364415409526E-125
   25.9749000000000        -2.416604915278101E-124
   26.2143000000000        -9.145067940280342E-124
   26.4537000000000        -2.600126493742033E-123
   26.6931000000000        -6.347040546807882E-123
   26.9325000000000        -1.376811315592950E-122
   27.1719000000000        -2.649403860164640E-122
   27.4113000000000        -4.347747569495867E-122
   27.6507000000000        -5.236379984529895E-122
   27.8901000000000        -6.424209794664354E-123
   28.1295000000000         2.303862444042561E-121
   28.3689000000000         1.002747777287883E-120
   28.6083000000000         3.101577540941457E-120
   28.8477000000000         8.194718612377617E-120
   29.0871000000000         1.951951105621244E-119
   29.3265000000000         4.280158132851283E-119
   29.5659000000000         8.699853743356763E-119
   29.8053000000000         1.635148780771219E-118
   30.0447000000000         2.804189745128158E-118
   30.2841000000000         4.240332391538582E-118
   30.5235000000000         5.130028407285534E-118
   30.7629000000000         2.989657506652646E-118
   31.0023000000000        -8.251347468829059E-118
   31.2417000000000        -4.155385276743631E-117
   31.4811000000000        -1.217191434238771E-116
   31.7205000000000        -2.912780143787802E-116
   31.9599000000000        -6.139287563300497E-116
   32.1993000000000        -1.166126721600562E-115
   32.4387000000000        -1.995757849470182E-115
   32.6781000000000        -3.006876895179379E-115
   32.9175000000000        -3.700080919104867E-115
   33.1569000000000        -2.663813396925106E-115
   33.3963000000000         3.307937867537879E-115
   33.6357000000000         2.055148036386808E-114
   33.8751000000000         6.018833784030404E-114
   34.1145000000000         1.393886467508853E-113
   34.3539000000000         2.802899129313873E-113
   34.5933000000000         5.023038302065721E-113
   34.8327000000000         7.997713152606010E-113
   35.0721000000000         1.091680348042153E-112
   35.3115000000000         1.124586875610652E-112
   35.5509000000000         3.077616655645503E-113
   35.7903000000000        -2.530222290357695E-112
   36.0297000000000        -9.434451657986426E-112
   36.2691000000000        -2.353841612756248E-111
   36.5085000000000        -4.887205135742336E-111
   36.7479000000000        -8.908101939818815E-111
   36.9873000000000        -1.438329017837366E-110
   37.2267000000000        -2.009910514714509E-110
   37.4661000000000        -2.220106251436785E-110
   37.7055000000000        -1.180560254309562E-110
   37.9449000000000         2.836720103981908E-110
   38.1843000000000         1.277681201199692E-109
   38.4237000000000         3.302219431663975E-109
   38.6631000000000         6.899163338608548E-109
   38.9025000000000         1.252148667760631E-108
   39.1419000000000         2.003603178086326E-108
   39.3813000000000         2.769942027840024E-108
   39.6207000000000         3.034216202594809E-108
   39.8601000000000         1.656094647871477E-108
   40.0995000000000        -3.495520836479862E-108
   40.3389000000000        -1.590023851926272E-107
   40.5783000000000        -4.046823897214118E-107
   40.8177000000000        -8.278619714096788E-107
   41.0571000000000        -1.465256094392291E-106
   41.2965000000000        -2.274637712442136E-106
   41.5359000000000        -3.020939532633441E-106
   41.7753000000000        -3.088540117987182E-106
   42.0147000000000        -1.214698884397689E-106
   42.2541000000000         4.817217207259359E-106
   42.4935000000000         1.839214522531549E-105
   42.7329000000000         4.388414052473937E-105
   42.9723000000000         8.552179426248261E-105
   43.2117000000000         1.443977081996645E-104
   43.4511000000000         2.123919015541614E-104
   43.6905000000000         2.616856409346730E-104
   43.9299000000000         2.291367851047029E-104
   44.1693000000000        -3.172285684431366E-106
   44.4087000000000        -6.253361448030564E-104
   44.6481000000000        -1.900754567998088E-103
   44.8875000000000        -4.123730766121008E-103
   45.1269000000000        -7.489088967459294E-103
   45.3663000000000        -1.181192916275872E-102
   45.6057000000000        -1.602820461851634E-102
   45.8451000000000        -1.742954812010846E-102
   46.0845000000000        -1.067199939795440E-102
   46.3239000000000         1.320531465330678E-102
   46.5633000000000         6.715623036756704E-102
   46.8027000000000         1.667441877975199E-101
   47.0421000000000         3.251117690372865E-101
   47.2815000000000         5.416707751783084E-101
   47.5209000000000         7.815379066032149E-101
   47.7603000000000         9.435929224886913E-101
   47.9997000000000         8.183549154503415E-101
   48.2391000000000         4.438550186666882E-102
   48.4785000000000        -1.914500717805107E-100
   48.7179000000000        -5.728156138388193E-100
   48.9573000000000        -1.202530899016758E-099
   49.1967000000000        -2.098868950182495E-099
   49.4361000000000        -3.161233010177632E-099
   49.6755000000000        -4.054458498353887E-099
   49.9149000000000        -4.055697160034896E-099
   50.1543000000000        -1.893627928811645E-099
   50.3937000000000         4.344817321301639E-099
   50.6331000000000         1.709705600411496E-098
   50.8725000000000         3.876842874986946E-098
   51.1119000000000         7.042747109905326E-098
   51.3513000000000         1.094150901445898E-097
   51.5907000000000         1.456387257651702E-097
   51.8301000000000         1.566953907471654E-097
   52.0695000000000         1.027617768899946E-097
   52.3089000000000        -7.644623785336073E-098
   52.5483000000000        -4.583564514338453E-097
   52.7877000000000        -1.121165007890509E-096
   53.0271000000000        -2.105525093944064E-096
   53.2665000000000        -3.344872018967627E-096
   53.5059000000000        -4.558393420899763E-096
   53.7453000000000        -5.111457120868768E-096
   53.9847000000000        -3.870507857071642E-096
   54.2241000000000         8.834459234296300E-097
   54.4635000000000         1.136594807498270E-095
   54.7029000000000         2.984577554069723E-095
   54.9423000000000         5.761443872881754E-095
   55.1817000000000         9.312679536366794E-095
   55.4211000000000         1.291661743570994E-094
   55.6605000000000         1.491690326503678E-094
   55.8999000000000         1.234072353494284E-094
   56.1393000000000         6.648753743752590E-096
   56.3787000000000        -2.597946433483266E-094
   56.6181000000000        -7.372273577639398E-094
   56.8575000000000        -1.464263487178427E-093
   57.0969000000000        -2.411188750012212E-093
   57.3363000000000        -3.410374108665327E-093
   57.5757000000000        -4.065672242163148E-093
   57.8151000000000        -3.656682487895340E-093
   58.0545000000000        -1.074839512857148E-093
   58.2939000000000         5.142430330268365E-093
   58.5333000000000         1.657910720759794E-092
   58.7727000000000         3.437950647280595E-092
   59.0121000000000         5.822155099461932E-092
   59.2515000000000         8.473121145239864E-092
   59.4909000000000         1.053792663896733E-091
   59.7303000000000         1.041708718436582E-091
   59.9697000000000         5.588042469590737E-092
   60.2091000000000        -7.379399480107277E-092
   60.4485000000000        -3.240404334075732E-091
   60.6879000000000        -7.279039808928343E-091
   60.9273000000000        -1.291327427941587E-090
   61.1667000000000        -1.959836426817057E-090
   61.4061000000000        -2.572835184108208E-090
   61.6455000000000        -2.810502422170330E-090
   61.8849000000000        -2.146761009094564E-090
   62.1243000000000         1.659267297388260E-091
   62.3637000000000         5.038922708181477E-090
   62.6031000000000         1.336051632387827E-089
   62.8425000000000         2.561370455675919E-089
   63.0819000000000         4.123857082782569E-089
   63.3213000000000         5.771495255555503E-089
   63.5607000000000         6.942410381461787E-089
   63.8001000000000         6.649586089986534E-089
   64.0395000000000         3.407144318911304E-089
   64.2789000000000        -4.729480116409620E-089
   64.5183000000000        -1.990475428939786E-088
   64.7577000000000        -4.385449282374801E-088
   64.9971000000000        -7.681185006410790E-088
   65.2365000000000        -1.158336220101371E-087
   65.4759000000000        -1.525714622023777E-087
   65.7153000000000        -1.707435070973299E-087
   65.9547000000000        -1.439333512587034E-087
   66.1941000000000        -3.486121190525729E-088
   66.4335000000000         2.021047352593694E-087
   66.6729000000000         6.128204818522229E-087
   66.9123000000000         1.226885099759471E-086
   67.1517000000000         2.030332073783518E-086
   67.3911000000000         2.926424342587726E-086
   67.6305000000000         3.686658506405619E-086
   67.8699000000000         3.899637188906895E-086
   68.1093000000000         2.933770076331405E-086
   68.3487000000000        -5.942153196381992E-088
   68.5881000000000        -6.062630935976032E-086
   68.8275000000000        -1.598181574038003E-085
   69.0669000000000        -3.025505129979068E-085
   69.3063000000000        -4.824124067983400E-085
   69.5457000000000        -6.738586793610011E-085
   69.7851000000000        -8.223448809750772E-085
   70.0245000000000        -8.348393524172630E-085
   70.2639000000000        -5.742904307478879E-085
   70.5033000000000         1.363202904306990E-085
   70.7427000000000         1.492618627803520E-084
   70.9821000000000         3.660991574631341E-084
   71.2215000000000         6.695308586082847E-084
   71.4609000000000         1.041268202600536E-083
   71.7003000000000         1.423113168067155E-083
   71.9397000000000         1.698717916086116E-083
   72.1791000000000         1.677452698624948E-083
   72.4185000000000         1.087576109071182E-083
   72.6579000000000        -4.105623592686411E-084
   72.8973000000000        -3.177294541516847E-083
   73.1367000000000        -7.496691338067514E-083
   73.3761000000000        -1.341602435465540E-082
   73.6155000000000        -2.051559008779202E-082
   73.8549000000000        -2.761956060002631E-082
   74.0943000000000        -3.248659962657008E-082
   74.3337000000000        -3.155953196795666E-082
   74.5731000000000        -1.990452827895921E-082
   74.8125000000000         8.474688323336308E-083
   75.0519000000000         5.971694132472132E-082
   75.2913000000000         1.383344698375749E-081
   75.5307000000000         2.444019968054560E-081
   75.7701000000000         3.696648318573430E-081
   76.0095000000000         4.928225408730877E-081
   76.2489000000000         5.747127124638154E-081
   76.4883000000000         5.547626022608590E-081
   76.7277000000000         3.508476343345500E-081
   76.9671000000000        -1.345297346040422E-081
   77.2065000000000        -9.982773289296998E-081
   77.4459000000000        -2.307525367892404E-080
   77.6853000000000        -4.054827184726848E-080
   77.9247000000000        -6.097981182831597E-080
   78.1641000000000        -8.089389560343469E-080
   78.4035000000000        -9.406916930307168E-080
   78.6429000000000        -9.107479549020015E-080
   78.8823000000000        -5.935183787632747E-080
   79.1217000000000         1.574248360053080E-080
   79.3611000000000         1.484514008111633E-079
   79.6005000000000         3.482496696177182E-079
   79.8399000000000         6.133223911223791E-079
   80.0793000000000         9.220205420335131E-079
   80.3187000000000         1.223090491955728E-078
   80.5581000000000         1.426439787417843E-078
   80.7975000000000         1.397423141180386E-078
   81.0369000000000         9.589693979583720E-079
   81.2763000000000        -9.295810955271865E-080
   81.5157000000000        -1.954515425158752E-078
   81.7551000000000        -4.754360039888411E-078
   81.9945000000000        -8.466508689412664E-078
   82.2339000000000        -1.279827887492009E-077
   82.4733000000000        -1.706459753730186E-077
   82.7127000000000        -2.007208320187445E-077
   82.9521000000000        -2.005118711578868E-077
   83.1915000000000        -1.469038444160160E-077
   83.4309000000000        -1.339383612488005E-078
   83.6703000000000         2.254684328609492E-077
   83.9097000000000         5.866189915421456E-077
   84.1491000000000         1.067725236607834E-076
   84.3885000000000         1.633527184640346E-076
   84.6279000000000         2.200697879184870E-076
   84.8673000000000         2.624057328580100E-076
   85.1067000000000         2.688664894593528E-076
   85.3461000000000         2.114049622875798E-076
   85.5855000000000         5.782040416447104E-077
   85.8249000000000        -2.230642968329447E-076
   86.0643000000000        -6.527827551471817E-076
   86.3037000000000        -1.230898932631879E-075
   86.5431000000000        -1.919458503814929E-075
   86.7825000000000        -2.625847889618201E-075
   87.0219000000000        -3.187224321086346E-075
   87.2613000000000        -3.361483562247494E-075
   87.5007000000000        -2.831541424222220E-075
   87.7401000000000        -1.231076305707842E-075
   87.9795000000000         1.799824329822260E-075
   88.2189000000000         6.522251396440680E-075
   88.4583000000000         1.296676766217621E-074
   88.6977000000000         2.076775499137018E-074
   88.9371000000000         2.898102598643263E-074
   89.1765000000000         3.591752915290476E-074
   89.4159000000000         3.904405098644944E-074
   89.6553000000000         3.501959519274230E-074
   89.8947000000000         1.994910945081869E-074
   90.1341000000000        -1.006183509785204E-074
   90.3735000000000        -5.798461553373494E-074
   90.6129000000000        -1.245543083546893E-073
   90.8523000000000        -2.066201872040639E-073
   91.0917000000000        -2.953294798763592E-073
   91.3311000000000        -3.744628187815025E-073
   91.5705000000000        -4.194091766998896E-073
   91.8099000000000        -3.974308840729392E-073
   92.0493000000000        -2.699830683669212E-073
   92.2887000000000         2.141145396878384E-075
   92.5281000000000         4.502367810297994E-073
   92.7675000000000         1.085495850169548E-072
   93.0069000000000         1.883726690564197E-072
   93.2463000000000         2.768550971374092E-072
   93.4857000000000         3.595965923503820E-072
   93.7251000000000         4.144627956870200E-072
   93.9645000000000         4.117582627731744E-072
   94.2039000000000         3.162059814411408E-072
   94.4433000000000         9.138804669398514E-073
   94.6827000000000        -2.928581172098816E-072
   94.9221000000000        -8.499616738944689E-072
   95.1615000000000        -1.563547781134900E-071
   95.4009000000000        -2.373133759636271E-071
   95.6403000000000        -3.161028184020895E-071
   95.8797000000000        -3.744031079727166E-071
   96.1191000000000        -3.874568951087761E-071
   96.3585000000000        -3.256502615815067E-071
   96.5979000000000        -1.580636824319373E-071
   96.8373000000000         1.416477899035329E-071
   97.0767000000000         5.869904696599579E-071
   97.3161000000000         1.168417187969932E-070
   97.5555000000000         1.842260421831043E-070
   97.7949000000000         2.520707938311277E-070
   98.0343000000000         3.065538260937124E-070
   98.2737000000000         3.289017759200327E-070
   98.5131000000000         2.965683043633329E-070
   98.7525000000000         1.858426416269243E-070
   98.9919000000000        -2.389005655243136E-071
   99.2313000000000        -3.442464792170490E-070
   99.4707000000000        -7.706621109652013E-070
   99.7101000000000        -1.274746021581577E-069
   99.9495000000000        -1.797513041509051E-069
   100.188900000000        -2.245337880999270E-069
   100.428300000000        -2.490848827765863E-069
   100.667700000000        -2.381073688699023E-069
   100.907100000000        -1.754808485206805E-069
   101.146500000000        -4.702564174436900E-070
   101.385900000000         1.557608069752931E-069
   101.625300000000         4.312745135656555E-069
   101.864700000000         7.632366624720289E-069
   102.104100000000         1.116830304322006E-068
   102.343500000000         1.436636467619266E-068
   102.582900000000         1.647604040442330E-068
   102.822300000000         1.660236167786697E-068
   103.061700000000         1.380855943397387E-068
   103.301100000000         7.271722729787255E-069
   103.540500000000        -3.516044405587184E-069
   103.779900000000        -1.852085638547077E-068
   104.019300000000        -3.694811887752155E-068
   104.258700000000        -5.707718853758177E-068
   104.498100000000        -7.620315097027040E-068
   104.737500000000        -9.073883015153681E-068
   104.976900000000        -9.651806570428299E-068
   105.216300000000        -8.931526183127784E-068
   105.455700000000        -6.555618407949016E-068
   105.695100000000        -2.314425552087735E-068
   105.934500000000         3.772739582044269E-068
   106.173900000000         1.139534651893044E-067
   106.413300000000         1.992809324863598E-067
   106.652700000000         2.846398712285277E-067
   106.892100000000         3.591479242007192E-067
   107.131500000000         4.117623815545608E-067
   107.370900000000         4.333645165174736E-067
   107.610300000000         4.188387216487498E-067
   107.849700000000         3.684981199017332E-067
   108.089100000000         2.880735057267032E-067
   108.328500000000         1.865034974827320E-067
   108.567900000000         7.102276267812082E-068
   108.807300000000        -6.039361038735953E-068
   109.046700000000        -2.282882288530656E-067
   109.286100000000        -4.805897583679217E-067
   109.525500000000        -8.977373115860216E-067
   109.764900000000        -1.589609367985174E-066
   110.004300000000        -2.679265637375106E-066
   110.243700000000        -4.269003702873561E-066
   110.483100000000        -6.386248286871411E-066
   110.722500000000        -8.910718401939706E-066
   110.961900000000        -1.149029474481537E-065
   111.201300000000        -1.346075200276391E-065
   111.440700000000        -1.379315559705051E-065
   111.680100000000        -1.110067181928952E-065
   111.919500000000        -3.741504396982418E-066
   112.158900000000         9.946232960879881E-066
   112.398300000000         3.125178881738969E-065
   112.637700000000         6.053692617604532E-065
   112.877100000000         9.654973882957550E-065
   113.116500000000         1.356858777437206E-064
   113.355900000000         1.713332109065844E-064
   113.595300000000         1.934949870471180E-064
   113.834700000000         1.889354826836506E-064
   114.074100000000         1.421149267562479E-064
   114.313500000000         3.715853404357839E-065
   114.552900000000        -1.389811262793914E-064
   114.792300000000        -3.921736557775039E-064
   115.031700000000        -7.158273786557325E-064
   115.271100000000        -1.085255799394239E-063
   115.510500000000        -1.452655208650263E-063
   115.749900000000        -1.744032766795045E-063
   115.989300000000        -1.859726379829322E-063
   116.228700000000        -1.680285884123699E-063
   116.468100000000        -1.079328726748194E-063
   116.707500000000         5.556593648596849E-065
   116.946900000000         1.793887008701857E-063
   117.186300000000         4.126642654628815E-063
   117.425700000000         6.927725052138192E-063
   117.665100000000         9.917974603370233E-063
   117.904500000000         1.264003211089875E-062
   118.143900000000         1.445395284875992E-062
   118.383300000000         1.456448090341195E-062
   118.622700000000         1.209023099960353E-062
   118.862100000000         6.182193301208966E-063
   119.101500000000        -3.806517107501257E-063
   119.340900000000        -1.810611723606636E-062
   119.580300000000        -3.628832069313123E-062
   119.819700000000        -5.702766901910623E-062
   120.059100000000        -7.790991089956574E-062
   120.298500000000        -9.534303416489154E-062
   120.537900000000        -1.046337723405314E-061
   120.777300000000        -1.002918692652223E-061
   121.016700000000        -7.661277729831448E-062
   121.256100000000        -2.856394641847647E-062
   121.495500000000         4.704124581032497E-062
   121.734900000000         1.501543077746939E-061
   121.974300000000         2.760283545594180E-061
   122.213700000000         4.138966736260232E-061
   122.453100000000         5.460797674783239E-061
   122.692500000000         6.478604392668600E-061
   122.931900000000         6.884851418728211E-061
   123.171300000000         6.336163924911833E-061
   123.410700000000         4.494589257625766E-061
   123.650100000000         1.085991990410603E-061
   123.889500000000        -4.026700309150252E-061
   124.128900000000        -1.076112500578928E-060
   124.368300000000        -1.873366590000437E-060
   124.607700000000        -2.719189829216933E-060
   124.847100000000        -3.497847541749945E-060
   125.086500000000        -4.054572790963776E-060
   125.325900000000        -4.204004310003335E-060
   125.565300000000        -3.747165664826833E-060
   125.804700000000        -2.497804175680033E-060
   126.044100000000        -3.177178356542834E-061
   126.283500000000         2.840925800322092E-060
   126.522900000000         6.890244079081777E-060
   126.762300000000         1.156436298006685E-059
   127.001700000000         1.638831081391163E-059
   127.241100000000         2.066767664581086E-059
   127.480500000000         2.350915350459611E-059
   127.719900000000         2.388115960788044E-059
   127.959300000000         2.072091527685706E-059
   128.198700000000         1.308935329130479E-059
   128.438100000000         3.680102466841128E-061
   128.677500000000        -1.751709991554974E-059
   128.916900000000        -3.986992502617347E-059
   129.156300000000        -6.503259678394738E-059
   129.395700000000        -9.027120477807058E-059
   129.635100000000        -1.117871808662560E-058
   129.874500000000        -1.249003468441863E-058
   130.113900000000        -1.244392781232718E-058
   130.353300000000        -1.053543706460693E-058
   130.592700000000        -6.353853379500546E-059
   130.832100000000         3.198923374290996E-060
   131.071500000000         9.410453393121114E-059
   131.310900000000         2.045431827631013E-058
   131.550300000000         3.253320604726060E-058
   131.789700000000         4.425472504818315E-058
   132.029100000000         5.379974432744382E-058
   132.268500000000         5.905173364273448E-058
   132.507900000000         5.781507220881237E-058
   132.747300000000         4.811700390912774E-058
   132.986700000000         2.857225903348192E-058
   133.226100000000        -1.228021343460673E-059
   133.465500000000        -4.035801777476079E-058
   133.704900000000        -8.629710257008598E-058
   133.944300000000        -1.348400558362206E-057
   134.183700000000        -1.802431661337860E-057
   134.423100000000        -2.156509480143681E-057
   134.662500000000        -2.338122537732915E-057
   134.901900000000        -2.280450340518451E-057
   135.141300000000        -1.933507707923300E-057
   135.380700000000        -1.275211032340559E-057
   135.620100000000        -3.203209991327974E-058
   135.859500000000         8.750012562713662E-058
   136.098900000000         2.215111460832280E-057
   136.338300000000         3.574676295688268E-057
   136.577700000000         4.816504214445445E-057
   136.817100000000         5.815815619363101E-057
   137.056500000000         6.487259239326976E-057
   137.295900000000         6.808870393472866E-057
   137.535300000000         6.835505833654784E-057
   137.774700000000         6.693649886389611E-057
   138.014100000000         6.550468608067174E-057
   138.253500000000         6.553109387051800E-057
   138.492900000000         6.739788548692295E-057
   138.732300000000         6.932069933018364E-057