  -1.79550000000000         0.000000000000000E+000
  -1.55610000000000         0.000000000000000E+000
  -1.31670000000000         0.000000000000000E+000
  -1.07730000000000         0.000000000000000E+000
 -0.837900000000000         0.000000000000000E+000
 -0.598500000000000         0.000000000000000E+000
 -0.359100000000000         0.000000000000000E+000
 -0.119700000000000         0.000000000000000E+000
  0.119700000000000         0.000000000000000E+000
  0.359100000000000         0.000000000000000E+000
  0.598500000000000         0.000000000000000E+000
  0.837900000000000         0.000000000000000E+000
   1.07730000000000         0.000000000000000E+000
   1.31670000000000         0.000000000000000E+000
   1.55610000000000         0.000000000000000E+000
   1.79550000000000         0.000000000000000E+000
   2.03490000000000         0.000000000000000E+000
   2.27430000000000         0.000000000000000E+000
   2.51370000000000         0.000000000000000E+000
   2.75310000000000         0.000000000000000E+000
   2.99250000000000         0.000000000000000E+000
   3.23190000000000         0.000000000000000E+000
   3.47130000000000         0.000000000000000E+000
   3.71070000000000         0.000000000000000E+000
   3.95010000000000         0.000000000000000E+000
   4.18950000000000         0.000000000000000E+000
   4.42890000000000         0.000000000000000E+000
   4.66830000000000         0.000000000000000E+000
   4.90770000000000         0.000000000000000E+000
   5.14710000000000         0.000000000000000E+000
   5.38650000000000         0.000000000000000E+000
   5.62590000000000         0.000000000000000E+000
   5.86530000000000         0.000000000000000E+000
   6.10470000000000         0.000000000000000E+000
   6.34410000000000         0.000000000000000E+000
   6.58350000000000         0.000000000000000E+000
   6.82290000000000         0.000000000000000E+000
   7.06230000000000         0.000000000000000E+000
   7.30170000000000         0.000000000000000E+000
   7.54110000000000         0.000000000000000E+000
   7.78050000000000         0.000000000000000E+000
   8.01990000000000         0.000000000000000E+000
   8.25930000000000         0.000000000000000E+000
   8.49870000000000        -4.938879106971076E-179
   8.73810000000000         7.866932516939418E-173
   8.97750000000000         7.398669954652116E-168
   9.21690000000000         2.355236176523488E-167
   9.45630000000000        -7.758053789045606E-164
   9.69570000000000        -3.214679291601315E-162
   9.93510000000000        -3.586006358797000E-161
   10.1745000000000         9.837029260581054E-160
   10.4139000000000         4.935196451547606E-158
   10.6533000000000         1.130845212146746E-156
   10.8927000000000         1.793935171942729E-155
   11.1321000000000         2.191134652845848E-154
   11.3715000000000         2.151110847845091E-153
   11.6109000000000         1.720092729092876E-152
   11.8503000000000         1.101606936285275E-151
   12.0897000000000         5.179095856040538E-151
   12.3291000000000         1.046487134258027E-150
   12.5685000000000        -1.121632097581303E-149
   12.8079000000000        -1.786731187450657E-148
   13.0473000000000        -1.619051300101280E-147
   13.2867000000000        -1.158731261160089E-146
   13.5261000000000        -7.105453878360373E-146
   13.7655000000000        -3.859758335437546E-145
   14.0049000000000        -1.887221673642165E-144
   14.2443000000000        -8.359199715128023E-144
   14.4837000000000        -3.346203109108696E-143
   14.7231000000000        -1.190939432285288E-142
   14.9625000000000        -3.581876341649589E-142
   15.2019000000000        -7.518254464382940E-142
   15.4413000000000         3.601354476829276E-142
   15.6807000000000         1.654345333257766E-140
   15.9201000000000         1.288016769746683E-139
   16.1595000000000         7.552242577378055E-139
   16.3989000000000         3.854833149749836E-138
   16.6383000000000         1.791287571109873E-137
   16.8777000000000         7.709527477886579E-137
   17.1171000000000         3.091005379314974E-136
   17.3565000000000         1.153429844945414E-135
   17.5959000000000         3.977979291124207E-135
   17.8353000000000         1.247759925054215E-134
   18.0747000000000         3.434098592563180E-134
   18.3141000000000         7.516503683225708E-134
   18.5535000000000         7.849945018611315E-134
   18.7929000000000        -3.921975455637010E-133
   19.0323000000000        -3.510517347968144E-132
   19.2717000000000        -1.825920844423532E-131
   19.5111000000000        -7.754738557365808E-131
   19.7505000000000        -2.909049139597881E-130
   19.9899000000000        -9.922117245655451E-130
   20.2293000000000        -3.111309111781669E-129
   20.4687000000000        -8.979093101449703E-129
   20.7081000000000        -2.364991533921497E-128
   20.9475000000000        -5.552219362775693E-128
   21.1869000000000        -1.091768405240385E-127
   21.4263000000000        -1.427791545310643E-127
   21.6657000000000         9.996330015101889E-128
   21.9051000000000         1.641612339664542E-126
   22.1445000000000         7.871681472789126E-126
   22.3839000000000         2.872770442747501E-125
   22.6233000000000         9.052954696992928E-125
   22.8627000000000         2.564154283128780E-124
   23.1021000000000         6.617176251925766E-124
   23.3415000000000         1.554787145323004E-123
   23.5809000000000         3.274878623322521E-123
   23.8203000000000         5.913824924679530E-123
   24.0597000000000         7.917322919599081E-123
   24.2991000000000         1.737608201718143E-123
   24.5385000000000        -3.769417232695172E-122
   24.7779000000000        -1.799946004620712E-121
   25.0173000000000        -5.955694223860411E-121
   25.2567000000000        -1.657097050668557E-120
   25.4961000000000        -4.085751345687701E-120
   25.7355000000000        -9.063498689480468E-120
   25.9749000000000        -1.799486376339828E-119
   26.2143000000000        -3.100929673875207E-119
   26.4537000000000        -4.202223914949149E-119
   26.6931000000000        -2.579970690981366E-119
   26.9325000000000         9.121972677403571E-119
   27.1719000000000         4.886709512820821E-118
   27.4113000000000         1.550980397242218E-117
   27.6507000000000         4.002937111887991E-117
   27.8901000000000         9.015778739072491E-117
   28.1295000000000         1.805232371789543E-116
   28.3689000000000         3.185605805880544E-116
   28.6083000000000         4.730020226956954E-116
   28.8477000000000         4.970420587648711E-116
   29.0871000000000        -3.167763960819912E-117
   29.3265000000000        -2.100623723873396E-115
   29.5659000000000        -7.706747997877832E-115
   29.8053000000000        -2.037548405551802E-114
   30.0447000000000        -4.537946041706016E-114
   30.2841000000000        -8.862813511473289E-114
   30.5235000000000        -1.519658290171593E-113
   30.7629000000000        -2.206306722444998E-113
   31.0023000000000        -2.360557014762845E-113
   31.2417000000000        -4.516583870207276E-114
   31.4811000000000         6.809122783552766E-113
   31.7205000000000         2.553117724457611E-112
   31.9599000000000         6.553281633004094E-112
   32.1993000000000         1.398150379296188E-111
   32.4387000000000         2.598563837961701E-111
   32.6781000000000         4.215294094565613E-111
   32.9175000000000         5.732476660236342E-111
   33.1569000000000         5.551314778059059E-111
   33.3963000000000        -1.293890600485239E-113
   33.6357000000000        -1.812284151284724E-110
   33.8751000000000        -6.085711064548017E-110
   34.1145000000000        -1.456031602896787E-109
   34.3539000000000        -2.919141946224180E-109
   34.5933000000000        -5.101079730517212E-109
   34.8327000000000        -7.739051246503203E-109
   35.0721000000000        -9.665151606269238E-109
   35.3115000000000        -7.891507007529895E-109
   35.5509000000000         3.719688532407892E-109
   35.7903000000000         3.600466382679950E-108
   36.0297000000000         1.055298967463967E-107
   36.2691000000000         2.333581178999681E-107
   36.5085000000000         4.381619393848288E-107
   36.7479000000000         7.180653065898675E-107
   36.9873000000000         1.013266147837699E-106
   37.2267000000000         1.140550869839570E-106
   37.4661000000000         6.944143053541359E-107
   37.7055000000000        -1.076720570629201E-106
   37.9449000000000        -5.378178182075340E-106
   38.1843000000000        -1.385767955869629E-105
   38.4237000000000        -2.827159095816572E-105
   38.6631000000000        -4.948781859441196E-105
   38.9025000000000        -7.533893227509882E-105
   39.1419000000000        -9.677072300822233E-105
   39.3813000000000        -9.191817988368552E-105
   39.6207000000000        -1.849117931762975E-105
   39.8601000000000         1.933841634884180E-104
   40.0995000000000         6.424205183373462E-104
   40.3389000000000         1.440859765442239E-103
   40.5783000000000         2.665094638964438E-103
   40.8177000000000         4.248062882698518E-103
   41.0571000000000         5.787443320478548E-103
   41.2965000000000         6.255708405249599E-103
   41.5359000000000         3.638326835795535E-103
   41.7753000000000        -5.386231662209898E-103
   42.0147000000000        -2.545830426418565E-102
   42.2541000000000        -6.175143082014755E-102
   42.4935000000000        -1.176400392073805E-101
   42.7329000000000        -1.898811508490120E-101
   42.9723000000000        -2.604779871319377E-101
   43.2117000000000        -2.851813303130572E-101
   43.4511000000000        -1.805861695058688E-101
   43.6905000000000         1.844352725249983E-101
   43.9299000000000         9.813597942626594E-101
   44.1693000000000         2.379710348576749E-100
   44.4087000000000         4.444252924308236E-100
   44.6481000000000         6.945547679211910E-100
   44.8875000000000         9.072177018176510E-100
   45.1269000000000         9.075261059754988E-100
   45.3663000000000         3.959973429540421E-100
   45.6057000000000        -1.052695889030412E-099
   45.8451000000000        -3.919070292560023E-099
   46.0845000000000        -8.537473054950873E-099
   46.3239000000000        -1.470081879342613E-098
   46.5633000000000        -2.103529214947260E-098
   46.8027000000000        -2.419465343151538E-098
   47.0421000000000        -1.809771173345000E-098
   47.2815000000000         6.288266448781302E-099
   47.5209000000000         5.975313153337721E-098
   47.7603000000000         1.510291455074220E-097
   47.9997000000000         2.790471209428912E-097
   48.2391000000000         4.204845838976417E-097
   48.4785000000000         5.135149343227970E-097
   48.7179000000000         4.420627948860976E-097
   48.9573000000000         3.025721132843650E-098
   49.1967000000000        -9.363511784003177E-097
   49.4361000000000        -2.639896206373564E-096
   49.6755000000000        -5.085220172633164E-096
   49.9149000000000        -7.866901607297834E-096
   50.1543000000000        -9.866295904378138E-096
   50.3937000000000        -8.959298412271394E-096
   50.6331000000000        -1.912828091244993E-096
   50.8725000000000         1.523095854672476E-095
   51.1119000000000         4.587685609862621E-095
   51.3513000000000         9.028410263023626E-095
   51.5907000000000         1.414376427178365E-094
   51.8301000000000         1.797331408874609E-094
   52.0695000000000         1.679154317736618E-094
   52.3089000000000         4.935965883864749E-095
   52.5483000000000        -2.452193867426617E-094
   52.7877000000000        -7.758623175952827E-094
   53.0271000000000        -1.549421109656469E-093
   53.2665000000000        -2.450245169766901E-093
   53.5059000000000        -3.151705737352165E-093
   53.7453000000000        -3.032465694446973E-093
   53.9847000000000        -1.147601259289496E-093
   54.2241000000000         3.664351666075807E-093
   54.4635000000000         1.243222234406062E-092
   54.7029000000000         2.535530654586302E-092
   54.9423000000000         4.070911484975261E-092
   55.1817000000000         5.345064248480365E-092
   55.4211000000000         5.388614349785396E-092
   55.6605000000000         2.715133001586382E-092
   55.8999000000000        -4.529682369654684E-092
   56.1393000000000        -1.806213629306272E-091
   56.3787000000000        -3.844434452825705E-091
   56.6181000000000        -6.348427625837332E-091
   56.8575000000000        -8.618389977577993E-091
   57.0969000000000        -9.273427051528500E-091
   57.3363000000000        -6.158209240820354E-091
   57.5757000000000         3.480654670797048E-091
   57.8151000000000         2.233916864529679E-090
   58.0545000000000         5.171524299622911E-090
   58.2939000000000         8.938103761609338E-090
   58.5333000000000         1.268293236350664E-089
   58.7727000000000         1.465166434117101E-089
   59.0121000000000         1.203762605174684E-089
   59.2515000000000         1.160209000672431E-090
   59.4909000000000        -2.177485604472388E-089
   59.7303000000000        -5.908581868506344E-089
   59.9697000000000        -1.090764619707989E-088
   60.2091000000000        -1.627404389792615E-088
   60.4485000000000        -2.004322408751706E-088
   60.6879000000000        -1.899567438727941E-088
   60.9273000000000        -8.831189227410015E-089
   61.1667000000000         1.501487212225691E-088
   61.4061000000000         5.565715638982575E-088
   61.6455000000000         1.120476656839860E-087
   61.8849000000000         1.755157752562100E-087
   62.1243000000000         2.263836524692256E-087
   62.3637000000000         2.322212293221963E-087
   62.6031000000000         1.500360930233371E-087
   62.8425000000000        -6.493362267059096E-088
   63.0819000000000        -4.416570566186680E-087
   63.3213000000000        -9.667916761946625E-087
   63.5607000000000        -1.552962990866867E-086
   63.8001000000000        -2.011532117689784E-086
   64.0395000000000        -2.046568140309437E-086
   64.2789000000000        -1.292566029172846E-086
   64.5183000000000         5.809044191480511E-087
   64.7577000000000         3.684364414078246E-086
   64.9971000000000         7.656285481816100E-086
   65.2365000000000         1.140222101674556E-085
   65.4759000000000         1.294627573199244E-085
   65.7153000000000         9.581507479361826E-086
   65.9547000000000        -1.454672777912096E-086
   66.1941000000000        -2.158652906451715E-085
   66.4335000000000        -4.875595191824486E-085
   66.6729000000000        -7.484202646436457E-085
   66.9123000000000        -8.350605985392671E-085
   67.1517000000000        -5.001758101902997E-085
   67.3911000000000         5.472959784615213E-085
   67.6305000000000         2.535446154159247E-084
   67.8699000000000         5.438134474029360E-084
   68.1093000000000         8.703571626842935E-084
   68.3487000000000         1.095064732507640E-083
   68.5881000000000         9.746946933346186E-084
   68.8275000000000         1.663289454782492E-084
   69.0669000000000        -1.712679875997938E-083
   69.3063000000000        -4.940903924189785E-083
   69.5457000000000        -9.444158479053109E-083
   69.7851000000000        -1.444730883197218E-082
   70.0245000000000        -1.808265415257342E-082
   70.2639000000000        -1.708784559047112E-082
   70.5033000000000        -6.821504839643020E-083
   70.7427000000000         1.808508313173654E-082
   70.9821000000000         6.208045794279317E-082
   71.2215000000000         1.257627125610179E-081
   71.4609000000000         2.016463281736489E-081
   71.7003000000000         2.691414728410597E-081
   71.9397000000000         2.900990911889355E-081
   72.1791000000000         2.073563012488097E-081
   72.4185000000000        -5.017364571168128E-082
   72.6579000000000        -5.516111244448640E-081
   72.8973000000000        -1.333513057344367E-080
   73.1367000000000        -2.352920726070621E-080
   73.3761000000000        -3.427438582093285E-080
   73.6155000000000        -4.174100528780231E-080
   73.8549000000000        -3.970242922907992E-080
   74.0943000000000        -1.972486331946486E-080
   74.3337000000000         2.759496976891107E-080
   74.5731000000000         1.098565818403881E-079
   74.8125000000000         2.282071799755102E-079
   75.0519000000000         3.708893354352899E-079
   75.2913000000000         5.058084347545892E-079
   75.5307000000000         5.740538475070368E-079
   75.7701000000000         4.876750478682815E-079
   76.0095000000000         1.363535109915016E-079
   76.2489000000000        -5.915968012425028E-079
   76.4883000000000        -1.768987901854935E-078
   76.7277000000000        -3.368133778323956E-078
   76.9671000000000        -5.181642547272820E-078
   77.2065000000000        -6.739082902808709E-078
   77.4459000000000        -7.246040745535018E-078
   77.6853000000000        -5.586735477930295E-078
   77.9247000000000        -4.437463524668970E-079
   78.1641000000000         9.407762834416605E-078
   78.4035000000000         2.458707717022696E-077
   78.6429000000000         4.437153977807452E-077
   78.8823000000000         6.580599445400823E-077
   79.1217000000000         8.283819818585970E-077
   79.3611000000000         8.580009895133017E-077
   79.6005000000000         6.169910694121972E-077
   79.8399000000000        -4.113272363447024E-078
   80.0793000000000        -1.243336600332225E-076
   80.3187000000000        -3.037975282368778E-076
   80.5581000000000        -5.313866054707862E-076
   80.7975000000000        -7.706949680219002E-076
   81.0369000000000        -9.515600341500861E-076
   81.2763000000000        -9.659518510131934E-076
   81.5157000000000        -6.730426155767256E-076
   81.7551000000000         8.093139155402332E-077
   81.9945000000000         1.422824540702472E-075
   82.2339000000000         3.389991185651731E-075
   82.4733000000000         5.847379814822284E-075
   82.7127000000000         8.395141268171731E-075
   82.9521000000000         1.028894110991756E-074
   83.1915000000000         1.040811968914111E-074
   83.4309000000000         7.318492629886061E-075
   83.6703000000000        -5.177148847672396E-076
   83.9097000000000        -1.433878073755401E-074
   84.1491000000000        -3.446690327573967E-074
   84.3885000000000        -5.950889774948551E-074
   84.6279000000000        -8.548444200245945E-074
   84.8673000000000        -1.050963675483710E-073
   85.1067000000000        -1.074725685813404E-073
   85.3461000000000        -7.880779679634764E-074
   85.5855000000000        -4.374050527787910E-075
   85.8249000000000         1.277038389030990E-073
   86.0643000000000         3.207546460158501E-073
   86.3037000000000         5.622617341126612E-073
   86.5431000000000         8.159766851145193E-073
   86.7825000000000         1.015370103711648E-072
   87.0219000000000         1.061324620809017E-072
   87.2613000000000         8.277922002449141E-073
   87.5007000000000         1.794363214071076E-073
   87.7401000000000        -9.953906948012912E-073
   87.9795000000000        -2.735103123318810E-072
   88.2189000000000        -4.941492467389469E-072
   88.4583000000000        -7.311129871690968E-072
   88.6977000000000        -9.277712445144685E-072
   88.9371000000000        -9.989559005210095E-072
   89.1765000000000        -8.353111021195474E-072
   89.4159000000000        -3.175686599481113E-072
   89.6553000000000         6.564700901363306E-072
   89.8947000000000         2.131166319460244E-071
   90.1341000000000         4.040568474063489E-071
   90.3735000000000         6.151012402462870E-071
   90.6129000000000         8.011541793182315E-071
   90.8523000000000         8.931285683076077E-071
   91.0917000000000         8.008254503062969E-071
   91.3311000000000         4.236088393729517E-071
   91.5705000000000        -3.288606713273827E-071
   91.8099000000000        -1.504841497530125E-070
   92.0493000000000        -3.069064467111080E-070
   92.2887000000000        -4.856573211854460E-070
   92.5281000000000        -6.531335060189870E-070
   92.7675000000000        -7.564009516932910E-070
   93.0069000000000        -7.247440767545666E-070
   93.2463000000000        -4.770298158572536E-070
   93.4857000000000         6.331660057317987E-071
   93.7251000000000         9.448134008297338E-070
   93.9645000000000         2.156688111738173E-069
   94.2039000000000         3.593263282045278E-069
   94.4433000000000         5.020625584941880E-069
   94.6827000000000         6.055874097121784E-069
   94.9221000000000         6.172441532901925E-069
   95.1615000000000         4.746628558313150E-069
   95.4009000000000         1.159183539815239E-069
   95.6403000000000        -5.039996078825760E-069
   95.8797000000000        -1.390741926653622E-068
   96.1191000000000        -2.484287447275367E-068
   96.3585000000000        -3.633181986239492E-068
   96.5979000000000        -4.576342425340340E-068
   96.8373000000000        -4.941811246946842E-068
   97.0767000000000        -4.273249614742284E-068
   97.3161000000000        -2.094439809440544E-068
   97.5555000000000         1.981400105493204E-068
   97.7949000000000         8.097998671012846E-068
   98.0343000000000         1.597022189788589E-067
   98.2737000000000         2.469369357455812E-067
   98.5131000000000         3.259527789399661E-067
   98.7525000000000         3.718682894297762E-067
   98.9919000000000         3.529595287212113E-067
   99.2313000000000         2.344704464502112E-067
   99.4707000000000        -1.453307937858787E-068
   99.7101000000000        -4.111650301835501E-067
   99.9495000000000        -9.462012553763898E-067
   100.188900000000        -1.570660908684420E-066
   100.428300000000        -2.184280998856780E-066
   100.667700000000        -2.629844736627542E-066
   100.907100000000        -2.698190624351480E-066
   101.146500000000        -2.148907291611861E-066
   101.385900000000        -7.507691545524425E-067
   101.625300000000         1.656523388374288E-066
   101.864700000000         5.082038892910156E-066
   102.104100000000         9.293580570405420E-066
   102.343500000000         1.373417879781347E-065
   102.582900000000         1.746905664676820E-065
   102.822300000000         1.919326154407879E-065
   103.061700000000         1.733263685511551E-065
   103.301100000000         1.026681189506922E-065
   103.540500000000        -3.310238903400023E-066
   103.779900000000        -2.390071107912387E-065
   104.019300000000        -5.062881178432737E-065
   104.258700000000        -8.067101268979382E-065
   104.498100000000        -1.088282580890679E-064
   104.737500000000        -1.274202332313723E-064
   104.976900000000        -1.267051382268828E-064
   105.216300000000        -9.601651604747353E-065
   105.455700000000        -2.574517611488692E-065
   105.695100000000         8.983391730320933E-065
   105.934500000000         2.490876411687586E-064
   106.173900000000         4.393598964628702E-064
   106.413300000000         6.338637294176454E-064
   106.652700000000         7.901523555180243E-064
   106.892100000000         8.513751024680764E-064
   107.131500000000         7.515275572535876E-064
   107.370900000000         4.256310913420913E-064
   107.610300000000        -1.748578933281397E-064
   107.849700000000        -1.062148116162048E-063
   108.089100000000        -2.189880006341805E-063
   108.328500000000        -3.432385535253738E-063
   108.567900000000        -4.570939733540223E-063
   108.807300000000        -5.293796030762959E-063
   109.046700000000        -5.217223625599396E-063
   109.286100000000        -3.933779095136603E-063
   109.525500000000        -1.091142809422168E-063
   109.764900000000         3.500294488525447E-063
   110.004300000000         9.740287528969995E-063
   110.243700000000         1.711031984150713E-062
   110.483100000000         2.457184191616823E-062
   110.722500000000         3.052740928797441E-062
   110.961900000000         3.288543881187123E-062
   111.201300000000         2.926700470558876E-062
   111.440700000000         1.738114813502988E-062
   111.680100000000        -4.428600923459137E-063
   111.919500000000        -3.650003477408608E-062
   112.158900000000        -7.711088167479510E-062
   112.398300000000        -1.218132815162216E-061
   112.637700000000        -1.630267232430451E-061
   112.877100000000        -1.901062295458043E-061
   113.116500000000        -1.901064590792402E-061
   113.355900000000        -1.494203737571777E-061
   113.595300000000        -5.636999720635845E-062
   113.834700000000         9.534018785892749E-062
   114.074100000000         3.026252799480027E-061
   114.313500000000         5.490662892291888E-061
   114.552900000000         8.018647013465775E-061
   114.792300000000         1.010791891699804E-060
   115.031700000000         1.110317875541403E-060
   115.271100000000         1.025996997899409E-060
   115.510500000000         6.858025211678392E-061
   115.749900000000         3.638804892229110E-062
   115.989300000000        -9.367920299106176E-061
   116.228700000000        -2.187883388156768E-060
   116.468100000000        -3.591362271072702E-060
   116.707500000000        -4.930202474073412E-060
   116.946900000000        -5.897423512428040E-060
   117.186300000000        -6.116955604962722E-060
   117.425700000000        -5.188514070418368E-060
   117.665100000000        -2.758391732415340E-060
   117.904500000000         1.386374634572154E-060
   118.143900000000         7.208969990759538E-060
   118.383300000000         1.431433591120579E-059
   118.622700000000         2.186362904272748E-059
   118.862100000000         2.853944285348106E-059
   119.101500000000         3.259192787825497E-059
   119.340900000000         3.199316243308781E-059
   119.580300000000         2.471757015954236E-059
   119.819700000000         9.148782922158108E-060
   120.059100000000        -1.541185020466821E-059
   120.298500000000        -4.819127562855099E-059
   120.537900000000        -8.643540046961454E-059
   120.777300000000        -1.250654521364595E-058
   121.016700000000        -1.566414531273271E-058
   121.256100000000        -1.717754706483199E-058
   121.495500000000        -1.601108889204714E-058
   121.734900000000        -1.119232040933686E-058
   121.974300000000        -2.029998730165027E-059
   122.213700000000         1.162739576742596E-058
   122.453100000000         2.912542329440144E-058
   122.692500000000         4.877811589182590E-058
   122.931900000000         6.774428836302739E-058
   123.171300000000         8.207335229246836E-058
   123.410700000000         8.698432440361576E-058
   123.650100000000         7.742387772915501E-058
   123.889500000000         4.891516093038854E-058
   124.128900000000        -1.341519727785928E-059
   124.368300000000        -7.321936760439975E-058
   124.607700000000        -1.624417108081098E-057
   124.847100000000        -2.596270025242503E-057
   125.086500000000        -3.498946568355603E-057
   125.325900000000        -4.133396587768787E-057
   125.565300000000        -4.266479008275054E-057
   125.804700000000        -3.660226103231897E-057
   126.044100000000        -2.114175021221626E-057
   126.283500000000         4.817252581680475E-058
   126.522900000000         4.089099694614239E-057
   126.762300000000         8.466659485702384E-057
   127.001700000000         1.313072191466054E-056
   127.241100000000         1.734409809394520E-056
   127.480500000000         2.014689276686105E-056
   127.719900000000         2.044054510536714E-056
   127.959300000000         1.713128280758940E-056
   128.198700000000         9.330842854700892E-057
   128.438100000000        -3.398904898747438E-057
   128.677500000000        -2.078402293928345E-056
   128.916900000000        -4.159949941490972E-056
   129.156300000000        -6.350519796055395E-056
   129.395700000000        -8.301590024088414E-056
   129.635100000000        -9.566393027077017E-056
   129.874500000000        -9.640157022252655E-056
   130.113900000000        -8.026646524175289E-056
   130.353300000000        -4.329580650127045E-056
   130.592700000000         1.637429217118133E-056
   130.832100000000         9.734508698388941E-056
   131.071500000000         1.939062382453047E-055
   131.310900000000         2.953300284647665E-055
   131.550300000000         3.857658124930170E-055
   131.789700000000         4.449867475829626E-055
   132.029100000000         4.501903502556629E-055
   132.268500000000         3.789498569575380E-055
   132.507900000000         2.132521825509373E-055
   132.747300000000        -5.565337368494425E-056
   132.986700000000        -4.221165924043793E-055
   133.226100000000        -8.614282838819671E-055
   133.465500000000        -1.326626036630896E-054
   133.704900000000        -1.747873836739700E-054
   133.944300000000        -2.035512162015041E-054
   134.183700000000        -2.087670826541120E-054
   134.423100000000        -1.802904083769927E-054
   134.662500000000        -1.097632898574125E-054
   134.901900000000         7.271508638591621E-056
   135.141300000000         1.691024503247593E-054
   135.380700000000         3.657508938178156E-054
   135.620100000000         5.774613615700506E-054
   135.859500000000         7.742600317465129E-054
   136.098900000000         9.170646602990661E-054
   136.338300000000         9.607532748555832E-054
   136.577700000000         8.594262438401566E-054
   136.817100000000         5.738188011671762E-054
   137.056500000000         8.044529849105241E-055
   137.295900000000        -6.183923570456772E-054
   137.535300000000        -1.485074464133635E-053
   137.774700000000        -2.439385633864963E-053
   138.014100000000        -3.355563891303987E-053
   138.253500000000        -4.065820812015352E-053
   138.492900000000        -4.372215617840883E-053
   138.732300000000        -4.068092298942445E-053