  -1.79550000000000         0.000000000000000E+000
  -1.55610000000000         0.000000000000000E+000
  -1.31670000000000         0.000000000000000E+000
  -1.07730000000000         0.000000000000000E+000
 -0.837900000000000         0.000000000000000E+000
 -0.598500000000000         0.000000000000000E+000
 -0.359100000000000         0.000000000000000E+000
 -0.119700000000000         0.000000000000000E+000
  0.119700000000000         0.000000000000000E+000
  0.359100000000000         0.000000000000000E+000
  0.598500000000000         0.000000000000000E+000
  0.837900000000000         0.000000000000000E+000
   1.07730000000000         0.000000000000000E+000
   1.31670000000000         0.000000000000000E+000
   1.55610000000000         0.000000000000000E+000
   1.79550000000000         0.000000000000000E+000
   2.03490000000000         0.000000000000000E+000
   2.27430000000000         0.000000000000000E+000
   2.51370000000000         0.000000000000000E+000
   2.75310000000000         0.000000000000000E+000
   2.99250000000000         0.000000000000000E+000
   3.23190000000000         0.000000000000000E+000
   3.47130000000000         0.000000000000000E+000
   3.71070000000000         0.000000000000000E+000
   3.95010000000000         0.000000000000000E+000
   4.18950000000000         0.000000000000000E+000
   4.42890000000000         0.000000000000000E+000
   4.66830000000000         0.000000000000000E+000
   4.90770000000000         0.000000000000000E+000
   5.14710000000000         0.000000000000000E+000
   5.38650000000000         0.000000000000000E+000
   5.62590000000000         0.000000000000000E+000
   5.86530000000000         0.000000000000000E+000
   6.10470000000000         0.000000000000000E+000
   6.34410000000000         0.000000000000000E+000
   6.58350000000000         0.000000000000000E+000
   6.82290000000000         0.000000000000000E+000
   7.06230000000000         0.000000000000000E+000
   7.30170000000000         0.000000000000000E+000
   7.54110000000000         0.000000000000000E+000
   7.78050000000000         0.000000000000000E+000
   8.01990000000000         0.000000000000000E+000
   8.25930000000000         0.000000000000000E+000
   8.49870000000000        -4.126047708413597E-178
   8.73810000000000         6.572215868586164E-172
   8.97750000000000         6.180879378365085E-167
   9.21690000000000         7.314268333065793E-167
   9.45630000000000        -6.483946986751545E-163
   9.69570000000000        -2.555961493967789E-161
   9.93510000000000        -2.471670709113553E-160
   10.1745000000000         8.764819448906970E-159
   10.4139000000000         3.953142247400483E-157
   10.6533000000000         8.639717083791861E-156
   10.8927000000000         1.317822253329211E-154
   11.1321000000000         1.548870352487943E-153
   11.3715000000000         1.459145865804260E-152
   11.6109000000000         1.111380020193481E-151
   11.8503000000000         6.654682330483103E-151
   12.0897000000000         2.740955258810719E-150
   12.3291000000000         1.674897277981041E-150
   12.5685000000000        -1.041210803195102E-148
   12.8079000000000        -1.294849661278255E-147
   13.0473000000000        -1.073838493651801E-146
   13.2867000000000        -7.253865191811499E-146
   13.5261000000000        -4.242635717410578E-145
   13.7655000000000        -2.206657854826614E-144
   14.0049000000000        -1.033507848684766E-143
   14.2443000000000        -4.373324266173917E-143
   14.4837000000000        -1.659813051741750E-142
   14.7231000000000        -5.494064319807273E-142
   14.9625000000000        -1.448034595057119E-141
   15.2019000000000        -1.840501848329121E-141
   15.4413000000000         1.113006654441283E-140
   15.6807000000000         1.240689132792691E-139
   15.9201000000000         8.137608581667684E-139
   16.1595000000000         4.419510493237888E-138
   16.3989000000000         2.147530063468218E-137
   16.6383000000000         9.596866395469865E-137
   16.8777000000000         3.984540517325782E-136
   17.1171000000000         1.539768698080550E-135
   17.3565000000000         5.513943139963858E-135
   17.5959000000000         1.808296117230673E-134
   17.8353000000000         5.292472437003189E-134
   18.0747000000000         1.297267933834318E-133
   18.3141000000000         2.113262634806050E-133
   18.5535000000000        -1.834698444843117E-133
   18.7929000000000        -3.748835884419731E-132
   19.0323000000000        -2.230229028437261E-131
   19.2717000000000        -1.009115033352362E-130
   19.5111000000000        -3.943949054318714E-130
   19.7505000000000        -1.388040586515748E-129
   19.9899000000000        -4.470830011694422E-129
   20.2293000000000        -1.323257339027821E-128
   20.4687000000000        -3.578817840310550E-128
   20.7081000000000        -8.677508172860109E-128
   20.9475000000000        -1.794929073151911E-127
   21.1869000000000        -2.687497568141452E-127
   21.4263000000000        -1.197132929300261E-128
   21.6657000000000         2.039894927305391E-126
   21.9051000000000         1.083937858575663E-125
   22.1445000000000         4.120798259322902E-125
   22.3839000000000         1.330277981476723E-124
   22.6233000000000         3.832783216723299E-124
   22.8627000000000         1.002568640257067E-123
   23.1021000000000         2.383414625237491E-123
   23.3415000000000         5.077483621466165E-123
   23.5809000000000         9.292537080284184E-123
   23.8203000000000         1.275379793522968E-122
   24.0597000000000         3.983862841040588E-123
   24.2991000000000        -5.561055221347949E-122
   24.5385000000000        -2.738111731722337E-121
   24.7779000000000        -9.149977502623488E-121
   25.0173000000000        -2.556805273329714E-120
   25.2567000000000        -6.311428881077267E-120
   25.4961000000000        -1.397808068466327E-119
   25.7355000000000        -2.760711015738155E-119
   25.9749000000000        -4.700746857209052E-119
   26.2143000000000        -6.171795311006323E-119
   26.4537000000000        -3.028657830797689E-119
   26.6931000000000         1.658131634347754E-118
   26.9325000000000         8.117927988363138E-118
   27.1719000000000         2.508601725040432E-117
   27.4113000000000         6.366163905370057E-117
   27.6507000000000         1.411801917437743E-116
   27.8901000000000         2.776035699257746E-116
   28.1295000000000         4.773291768430589E-116
   28.3689000000000         6.758650036840930E-116
   28.6083000000000         6.143726079085647E-116
   28.8477000000000        -4.135368846907238E-116
   29.0871000000000        -4.003503201968175E-115
   29.3265000000000        -1.328092523800840E-114
   29.5659000000000        -3.355386401850318E-114
   29.8053000000000        -7.228352994674478E-114
   30.0447000000000        -1.366051614612933E-113
   30.2841000000000        -2.247037332561064E-113
   30.5235000000000        -3.044332249930698E-113
   30.7629000000000        -2.692079047257318E-113
   31.0023000000000         1.403438342847581E-113
   31.2417000000000         1.454391861406233E-112
   31.4811000000000         4.611423652857335E-112
   31.7205000000000         1.102939043321062E-111
   31.9599000000000         2.238885441680178E-111
   32.1993000000000         3.966813940072361E-111
   32.4387000000000         6.061702840758991E-111
   32.6781000000000         7.444815593693072E-111
   32.9175000000000         5.230059641651375E-111
   33.1569000000000        -6.743525658170023E-111
   33.3963000000000        -3.974146752532133E-110
   33.6357000000000        -1.115526227574054E-109
   33.8751000000000        -2.454588152762866E-109
   34.1145000000000        -4.625282327120054E-109
   34.3539000000000        -7.597861727411220E-109
   34.5933000000000        -1.063052410628160E-108
   34.8327000000000        -1.140766733888124E-108
   35.0721000000000        -4.683396652480788E-109
   35.3115000000000         1.950081184662736E-108
   35.5509000000000         7.750165715870087E-108
   35.7903000000000         1.922140930033010E-107
   36.0297000000000         3.886149205271685E-107
   36.2691000000000         6.792900180991596E-107
   36.5085000000000         1.031685934155315E-106
   36.7479000000000         1.306688060874248E-106
   36.9873000000000         1.159484380628099E-106
   37.2267000000000        -9.611995287646055E-108
   37.4661000000000        -3.631002557444624E-106
   37.7055000000000        -1.116544586346879E-105
   37.9449000000000        -2.476987252789411E-105
   38.1843000000000        -4.606973797019238E-105
   38.4237000000000        -7.434723278560904E-105
   38.6631000000000        -1.028977767068407E-104
   38.9025000000000        -1.130680852872015E-104
   39.1419000000000        -6.597778549912692E-105
   39.3813000000000         1.065169928887409E-104
   39.6207000000000         5.069082415812323E-104
   39.8601000000000         1.263144747608808E-103
   40.0995000000000         2.488203246116574E-103
   40.3389000000000         4.182132987007007E-103
   40.5783000000000         6.045393107581124E-103
   40.8177000000000         7.179070081508936E-103
   41.0571000000000         5.681251036118706E-103
   41.2965000000000        -1.769262023829218E-103
   41.5359000000000        -2.009691650126739E-102
   41.7753000000000        -5.529622049125920E-102
   42.0147000000000        -1.123902674116293E-101
   42.2541000000000        -1.908104556958219E-101
   42.4935000000000        -2.760952116996084E-101
   42.7329000000000        -3.274228471277218E-101
   42.9723000000000        -2.623585754531113E-101
   43.2117000000000         5.598143943707543E-102
   43.4511000000000         8.178294277908971E-101
   43.6905000000000         2.231639595023364E-100
   43.9299000000000         4.426042290838466E-100
   44.1693000000000         7.256084311618424E-100
   44.4087000000000         9.991556254225245E-100
   44.6481000000000         1.090480761297336E-099
   44.8875000000000         6.861519362503702E-100
   45.1269000000000        -6.835754604120425E-100
   45.3663000000000        -3.589847789558357E-099
   45.6057000000000        -8.512852561188961E-099
   45.8451000000000        -1.543346659945941E-098
   46.0845000000000        -2.314968095601970E-098
   46.3239000000000        -2.834025837961317E-098
   46.5633000000000        -2.457931852971410E-098
   46.8027000000000        -1.814677143157916E-099
   47.0421000000000         5.274986259065484E-098
   47.2815000000000         1.509759367596484E-097
   47.5209000000000         2.956812485753216E-097
   47.7603000000000         4.668585507065899E-097
   47.9997000000000         6.026316367242299E-097
   48.2391000000000         5.789678867072706E-097
   48.4785000000000         1.982280232773184E-097
   48.7179000000000        -7.951548356139892E-097
   48.9573000000000        -2.645159145653020E-096
   49.1967000000000        -5.430098913902154E-096
   49.4361000000000        -8.801689122632897E-096
   49.6755000000000        -1.162708252531700E-095
   49.9149000000000        -1.161169303579135E-095
   50.1543000000000        -5.091684550510263E-096
   50.3937000000000         1.266894012366603E-095
   50.6331000000000         4.619881527337995E-095
   50.8725000000000         9.702413074140494E-095
   51.1119000000000         1.589984051976213E-094
   51.3513000000000         2.119894522093133E-094
   51.5907000000000         2.153584181967036E-094
   51.8301000000000         1.045705556514533E-094
   52.0695000000000        -2.032982842546202E-094
   52.3089000000000        -7.871425923954580E-094
   52.5483000000000        -1.673835232009798E-093
   52.7877000000000        -2.759271959741420E-093
   53.0271000000000        -3.703207506099734E-093
   53.2665000000000        -3.822473864914735E-093
   53.5059000000000        -2.037681252756634E-093
   53.7453000000000         3.033838670510945E-093
   53.9847000000000         1.271273138092997E-092
   54.2241000000000         2.748737660040090E-092
   54.4635000000000         4.576133415970618E-092
   54.7029000000000         6.220093987373078E-092
   54.9423000000000         6.606813534673344E-092
   55.1817000000000         4.037737538886433E-092
   55.4211000000000        -3.673910460314740E-092
   55.6605000000000        -1.866093789556674E-091
   55.8999000000000        -4.186383546484314E-091
   56.1393000000000        -7.118924660205775E-091
   56.3787000000000        -9.908818226339202E-091
   56.6181000000000        -1.101008881636446E-090
   56.8575000000000        -7.953673520650230E-091
   57.0969000000000         2.481350430002695E-091
   57.3363000000000         2.354386102119321E-090
   57.5757000000000         5.698131785614517E-090
   57.8151000000000         1.005668356484475E-089
   58.0545000000000         1.448473193301014E-089
   58.2939000000000         1.698209732335100E-089
   58.5333000000000         1.430302048698566E-089
   58.7727000000000         2.144197371530395E-090
   59.0121000000000        -2.398244540347838E-089
   59.2515000000000        -6.688987749605721E-089
   59.4909000000000        -1.247146759324834E-088
   59.7303000000000        -1.869892726083653E-088
   59.9697000000000        -2.306435033793996E-088
   60.2091000000000        -2.176771065492772E-088
   60.4485000000000        -9.720845649089964E-089
   60.6879000000000         1.847230513311386E-088
   60.9273000000000         6.644402870038147E-088
   61.1667000000000         1.327711872533940E-087
   61.4061000000000         2.067633513227867E-087
   61.6455000000000         2.643353061054531E-087
   61.8849000000000         2.658911731946637E-087
   62.1243000000000         1.590702070310310E-087
   62.3637000000000        -1.103018122693724E-087
   62.6031000000000        -5.762908050978713E-087
   62.8425000000000        -1.219613252495513E-086
   63.0819000000000        -1.927616772133367E-086
   63.3213000000000        -2.459472781550799E-086
   63.5607000000000        -2.437530682711557E-086
   63.8001000000000        -1.393456174622760E-086
   64.0395000000000         1.100757572954819E-086
   64.2789000000000         5.198341099865487E-086
   64.5183000000000         1.045304109162070E-085
   64.7577000000000         1.547394299300916E-085
   64.9971000000000         1.770835498307986E-085
   65.2365000000000         1.358601038809357E-085
   65.4759000000000        -6.866393333995860E-087
   65.7153000000000        -2.742337113135069E-085
   65.9547000000000        -6.477529434295107E-085
   66.1941000000000        -1.034106395468154E-084
   66.4335000000000        -1.235686658310266E-084
   66.6729000000000        -9.436011066120171E-085
   66.9123000000000         2.197887933653891E-085
   67.1517000000000         2.577912028263412E-084
   67.3911000000000         6.172896565319051E-084
   67.6305000000000         1.043654516983321E-083
   67.8699000000000         1.381314839633314E-083
   68.1093000000000         1.346702831890141E-083
   68.3487000000000         5.305533905271232E-084
   68.5881000000000        -1.536151044437078E-083
   68.8275000000000        -5.217113348682131E-083
   69.0669000000000        -1.048053762438543E-082
   69.3063000000000        -1.648875266961496E-082
   69.5457000000000        -2.113242155647797E-082
   69.7851000000000        -2.066499158403222E-082
   70.0245000000000        -9.705478930597998E-083
   70.2639000000000         1.801632740263052E-082
   70.5033000000000         6.775093033194009E-082
   70.7427000000000         1.403241571482566E-081
   70.9821000000000         2.272228337544721E-081
   71.2215000000000         3.047926601321174E-081
   71.4609000000000         3.291556741421597E-081
   71.7003000000000         2.347135377827425E-081
   71.9397000000000        -5.962900688987800E-082
   72.1791000000000        -6.316223710560353E-081
   72.4185000000000        -1.519839174144391E-080
   72.6579000000000        -2.669279278096064E-080
   72.8973000000000        -3.862900612459521E-080
   73.1367000000000        -4.653454180575178E-080
   73.3761000000000        -4.323303179681000E-080
   73.6155000000000        -1.914474152707850E-080
   73.8549000000000         3.617545212626302E-080
   74.0943000000000         1.307215061829690E-079
   74.3337000000000         2.645987368276904E-079
   74.5731000000000         4.226327758830616E-079
   74.8125000000000         5.660940255799468E-079
   75.0519000000000         6.259039314775276E-079
   75.2913000000000         5.012397554004945E-079
   75.5307000000000         6.889736032588466E-080
   75.7701000000000        -7.905247591458956E-079
   76.0095000000000        -2.144492257368557E-078
   76.2489000000000        -3.936963985187868E-078
   76.4883000000000        -5.899218977322006E-078
   76.7277000000000        -7.460395696604662E-078
   76.9671000000000        -7.690053500963129E-078
   77.2065000000000        -5.321144122561408E-078
   77.4459000000000         1.085907341222149E-078
   77.6853000000000         1.277629205397187E-077
   77.9247000000000         3.018936480035894E-077
   78.1641000000000         5.211229925046394E-077
   78.4035000000000         7.469901516733358E-077
   78.6429000000000         9.058471589237863E-077
   78.8823000000000         8.848341005527157E-077
   79.1217000000000         5.380734793847492E-077
   79.3611000000000        -2.906298064131134E-077
   79.6005000000000        -1.722819818491684E-076
   79.8399000000000        -3.775290399107881E-076
   80.0793000000000        -6.268183925852476E-076
   80.3187000000000        -8.724620435355147E-076
   80.5581000000000        -1.028866922495467E-075
   80.7975000000000        -9.703675181988858E-076
   81.0369000000000        -5.406188320783566E-076
   81.2763000000000         4.203864439153875E-076
   81.5157000000000         2.026641421050927E-075
   81.7551000000000         4.272222464753157E-075
   81.9945000000000         6.938246617522938E-075
   82.2339000000000         9.495894108870209E-075
   82.4733000000000         1.103366837375763E-074
   82.7127000000000         1.025088846291277E-074
   82.9521000000000         5.570329930953794E-075
   83.1915000000000        -4.574685994249124E-075
   83.4309000000000        -2.123673471799020E-074
   83.6703000000000        -4.422865805271405E-074
   83.9097000000000        -7.123555124375025E-074
   84.1491000000000        -9.691919009447575E-074
   84.3885000000000        -1.122871129443367E-073
   84.6279000000000        -1.047182692860219E-073
   84.8673000000000        -5.912404939327282E-074
   85.1067000000000         3.927274585969437E-074
   85.3461000000000         2.001990317927095E-073
   85.5855000000000         4.216367766330191E-073
   85.8249000000000         6.817708209516666E-073
   86.0643000000000         9.310178767321365E-073
   86.3037000000000         1.086585198429192E-072
   86.5431000000000         1.033005035504459E-072
   86.7825000000000         6.327712267940243E-073
   87.0219000000000        -2.488571324133264E-073
   87.2613000000000        -1.702123824680266E-072
   87.5007000000000        -3.714383099612186E-072
   87.7401000000000        -6.100378940558230E-072
   87.9795000000000        -8.433559476463646E-072
   88.2189000000000        -9.999100039581966E-072
   88.4583000000000        -9.797369503454773E-072
   88.6977000000000        -6.631891761822700E-072
   88.9371000000000         6.849697896805730E-073
   89.1765000000000         1.298627485538727E-071
   89.4159000000000         3.026706200104015E-071
   89.6553000000000         5.110626716223822E-071
   89.8947000000000         7.209308365847300E-071
   90.1341000000000         8.742255164672712E-071
   90.3735000000000         8.888855348271161E-071
   90.6129000000000         6.654414415466889E-071
   90.8523000000000         1.029327354739997E-071
   91.0917000000000        -8.740531866127731E-071
   91.3311000000000        -2.277296946497880E-070
   91.5705000000000        -4.008998046821537E-070
   91.8099000000000        -5.815403174588170E-070
   92.0493000000000        -7.252457891251066E-070
   92.2887000000000        -7.680781413204896E-070
   92.5281000000000        -6.310545640557931E-070
   92.7675000000000        -2.316642803410672E-070
   93.0069000000000         4.961327426528838E-070
   93.2463000000000         1.573326412713140E-069
   93.4857000000000         2.940845821459238E-069
   93.7251000000000         4.423371390374962E-069
   93.9645000000000         5.700895200338820E-069
   94.2039000000000         6.300568210748104E-069
   94.4433000000000         5.623928889474135E-069
   94.6827000000000         3.024763777024653E-069
   94.9221000000000        -2.050933904174684E-069
   95.1615000000000        -9.860619768246168E-069
   95.4009000000000        -2.010968113816911E-068
   95.6403000000000        -3.167962227570724E-068
   95.8797000000000        -4.240077194075445E-068
   96.1191000000000        -4.895641441026859E-068
   96.3585000000000        -4.702475008130403E-068
   96.5979000000000        -3.176893739579263E-068
   96.8373000000000         1.236872098674687E-069
   97.0767000000000         5.461623000696925E-068
   97.3161000000000         1.274063101184893E-067
   97.5555000000000         2.130982775952741E-067
   97.7949000000000         2.978957546118808E-067
   98.0343000000000         3.597670045253828E-067
   98.2737000000000         3.690109133252623E-067
   98.5131000000000         2.911047357506354E-067
   98.7525000000000         9.248348889272387E-068
   98.9919000000000        -2.504514146117297E-067
   99.2313000000000        -7.394323136338847E-067
   99.4707000000000        -1.340797643164772E-066
   99.7101000000000        -1.972752488873341E-066
   99.9495000000000        -2.497057245402681E-066
   100.188900000000        -2.719815380395391E-066
   100.428300000000        -2.406501162397931E-066
   100.667700000000        -1.315835828168169E-066
   100.907100000000         7.448593225379394E-067
   101.146500000000         3.843973866598393E-066
   101.385900000000         7.836378155618975E-066
   101.625300000000         1.227467065746983E-065
   101.864700000000         1.634283564608797E-065
   102.104100000000         1.884130535220160E-065
   102.343500000000         1.825642420007951E-065
   102.582900000000         1.294556284214879E-065
   102.822300000000         1.458822264873757E-066
   103.061700000000        -1.700288817099978E-065
   103.301100000000        -4.202656011677208E-065
   103.540500000000        -7.139909400577800E-065
   103.779900000000        -1.006182174037779E-064
   104.019300000000        -1.226741861484651E-064
   104.258700000000        -1.283049358687985E-064
   104.498100000000        -1.069268552696653E-064
   104.737500000000        -4.839457449060476E-065
   104.976900000000         5.436863467848660E-065
   105.216300000000         2.020108321503289E-064
   105.455700000000         3.850513226749565E-064
   105.695100000000         5.805217217535836E-064
   105.934500000000         7.499187449594426E-064
   106.173900000000         8.396573226605379E-064
   106.413300000000         7.852702709466060E-064
   106.652700000000         5.203991200340028E-064
   106.892100000000        -8.930891545679324E-066
   107.131500000000        -8.252173558602417E-064
   107.370900000000        -1.897393052757105E-063
   107.610300000000        -3.119223360528033E-063
   107.849700000000        -4.293393371584812E-063
   108.089100000000        -5.127925677535971E-063
   108.328500000000        -5.252237471268813E-063
   108.567900000000        -4.259493508568147E-063
   108.807300000000        -1.779406217603428E-063
   109.046700000000         2.419108850548806E-063
   109.286100000000         8.303067677962414E-063
   109.525500000000         1.544493805064607E-062
   109.764900000000         2.291293411265899E-062
   110.004300000000         2.921733356022780E-062
   110.243700000000         3.235352953532050E-062
   110.483100000000         2.998165905833943E-062
   110.722500000000         1.977245432350012E-062
   110.961900000000        -7.295955410322150E-065
   111.201300000000        -3.015623097457236E-062
   111.440700000000        -6.914081639851764E-062
   111.680100000000        -1.130626009656346E-061
   111.919500000000        -1.548691772350918E-061
   112.158900000000        -1.844027266973142E-061
   112.398300000000        -1.890509060631417E-061
   112.637700000000        -1.552552069429021E-061
   112.877100000000        -7.097291588716630E-062
   113.116500000000         7.097099831460182E-062
   113.355900000000         2.689294638580180E-061
   113.595300000000         5.084337487636965E-061
   113.834700000000         7.589863436781243E-061
   114.074100000000         9.727186863057956E-061
   114.313500000000         1.086103446369109E-060
   114.552900000000         1.025829821111165E-060
   114.792300000000         7.195936571948201E-061
   115.031700000000         1.118681961184516E-061
   115.271100000000        -8.163032641384477E-061
   115.510500000000        -2.025755856426045E-060
   115.749900000000        -3.399594788900171E-060
   115.989300000000        -4.730564599845932E-060
   116.228700000000        -5.721326446487824E-060
   116.468100000000        -6.003643335600175E-060
   116.707500000000        -5.181320766327244E-060
   116.946900000000        -2.899055493945324E-060
   117.186300000000         1.065036341608795E-060
   117.425700000000         6.691367455754224E-060
   117.665100000000         1.361040646239972E-059
   117.904500000000         2.101587897609229E-059
   118.143900000000         2.762735708228184E-059
   118.383300000000         3.173242504341780E-059
   118.622700000000         3.133602217063144E-059
   118.862100000000         2.443518761010016E-059
   119.101500000000         9.420159296950078E-060
   119.340900000000        -1.442237688397739E-059
   119.580300000000        -4.635951345474813E-059
   119.819700000000        -8.370554283083456E-059
   120.059100000000        -1.214793621551830E-058
   120.298500000000        -1.523671326140968E-058
   120.537900000000        -1.671326572026411E-058
   120.777300000000        -1.555912497885452E-058
   121.016700000000        -1.082015738611420E-058
   121.256100000000        -1.823132105107889E-059
   121.495500000000         1.156797899554109E-058
   121.734900000000         2.868906764364250E-058
   121.974300000000         4.785497311802695E-058
   122.213700000000         6.624188985265805E-058
   122.453100000000         7.994046208531575E-058
   122.692500000000         8.424243346543181E-058
   122.931900000000         7.420512268495673E-058
   123.171300000000         4.550301373476731E-058
   123.410700000000        -4.475677802040669E-059
   123.650100000000        -7.539438631208411E-058
   123.889500000000        -1.627736738279868E-057
   124.128900000000        -2.570816365995358E-057
   124.368300000000        -3.434016372234703E-057
   124.607700000000        -4.019813469345079E-057
   124.847100000000        -4.099258520307435E-057
   125.086500000000        -3.441898899183793E-057
   125.325900000000        -1.858435431753410E-057
   125.565300000000         7.466357616927050E-058
   125.804700000000         4.318133703997836E-057
   126.044100000000         8.597915435603425E-057
   126.283500000000         1.308880369045900E-056
   126.522900000000         1.704799193565788E-056
   126.762300000000         1.952310072172008E-056
   127.001700000000         1.944149768227455E-056
   127.241100000000         1.575796914550039E-056
   127.480500000000         7.657191029235206E-057
   127.719900000000        -5.203955118574538E-057
   127.959300000000        -2.244234645016169E-056
   128.198700000000        -4.272423628073649E-056
   128.438100000000        -6.362286274556533E-056
   128.677500000000        -8.161621862900452E-056
   128.916900000000        -9.228082795099778E-056
   129.156300000000        -9.072417243032420E-056
   129.395700000000        -7.227250493250099E-056
   129.635100000000        -3.339190634474248E-056
   129.874500000000         2.722950073274273E-056
   130.113900000000         1.075666979370455E-055
   130.353300000000         2.012942773384969E-055
   130.592700000000         2.972027875942663E-055
   130.832100000000         3.792449552019583E-055
   131.071500000000         4.274480377923210E-055
   131.310900000000         4.198685053944959E-055
   131.550300000000         3.356518290102699E-055
   131.789700000000         1.590928250410717E-055
   132.029100000000        -1.156207893459968E-055
   132.268500000000        -4.795378848238026E-055
   132.507900000000        -9.047367551645059E-055
   132.747300000000        -1.341759119821974E-054
   132.986700000000        -1.719754821025439E-054
   133.226100000000        -1.950351206356246E-054
   133.465500000000        -1.936012642841158E-054
   133.704900000000        -1.583183682211508E-054
   133.944300000000        -8.198098455691178E-055
   134.183700000000         3.840649456018805E-055
   134.423100000000         1.994938753405576E-054
   134.662500000000         3.897051097854259E-054
   134.901900000000         5.880292134894622E-054
   135.141300000000         7.639418949998252E-054
   135.380700000000         8.789022444576208E-054
   135.620100000000         8.897733424449272E-054
   135.859500000000         7.543258236073884E-054
   136.098900000000         4.386953004740923E-054
   136.338300000000        -7.371105188163695E-055
   136.577700000000        -7.727971437359606E-054
   136.817100000000        -1.613229946263874E-053
   137.056500000000        -2.508520284948521E-053
   137.295900000000        -3.329722451365009E-053
   137.535300000000        -3.910729571090782E-053
   137.774700000000        -4.061794820983797E-053
   138.014100000000        -3.592158875248643E-053
   138.253500000000        -2.341482901788666E-053
   138.492900000000        -2.182063699367574E-054
   138.732300000000         2.758919142688962E-053