  -1.79550000000000         0.000000000000000E+000
  -1.55610000000000         0.000000000000000E+000
  -1.31670000000000         0.000000000000000E+000
  -1.07730000000000         0.000000000000000E+000
 -0.837900000000000         0.000000000000000E+000
 -0.598500000000000         0.000000000000000E+000
 -0.359100000000000         0.000000000000000E+000
 -0.119700000000000         0.000000000000000E+000
  0.119700000000000         0.000000000000000E+000
  0.359100000000000         0.000000000000000E+000
  0.598500000000000         0.000000000000000E+000
  0.837900000000000         0.000000000000000E+000
   1.07730000000000         0.000000000000000E+000
   1.31670000000000         0.000000000000000E+000
   1.55610000000000         0.000000000000000E+000
   1.79550000000000         0.000000000000000E+000
   2.03490000000000         0.000000000000000E+000
   2.27430000000000         0.000000000000000E+000
   2.51370000000000         0.000000000000000E+000
   2.75310000000000         0.000000000000000E+000
   2.99250000000000         0.000000000000000E+000
   3.23190000000000         0.000000000000000E+000
   3.47130000000000         0.000000000000000E+000
   3.71070000000000         0.000000000000000E+000
   3.95010000000000         0.000000000000000E+000
   4.18950000000000         0.000000000000000E+000
   4.42890000000000         0.000000000000000E+000
   4.66830000000000         0.000000000000000E+000
   4.90770000000000         0.000000000000000E+000
   5.14710000000000         0.000000000000000E+000
   5.38650000000000         0.000000000000000E+000
   5.62590000000000         0.000000000000000E+000
   5.86530000000000         0.000000000000000E+000
   6.10470000000000         0.000000000000000E+000
   6.34410000000000         0.000000000000000E+000
   6.58350000000000         0.000000000000000E+000
   6.82290000000000         0.000000000000000E+000
   7.06230000000000         0.000000000000000E+000
   7.30170000000000         0.000000000000000E+000
   7.54110000000000         0.000000000000000E+000
   7.78050000000000         0.000000000000000E+000
   8.01990000000000         0.000000000000000E+000
   8.25930000000000         0.000000000000000E+000
   8.49870000000000         0.000000000000000E+000
   8.73810000000000        -2.888528559382244E-180
   8.97750000000000         1.281788107382707E-174
   9.21690000000000         7.185997687035450E-170
   9.45630000000000         7.803289377946716E-167
   9.69570000000000         2.326058486958514E-165
   9.93510000000000         5.278169405886314E-164
   10.1745000000000         4.662133291418756E-162
   10.4139000000000         2.529777117791778E-160
   10.6533000000000         7.986960362148425E-159
   10.8927000000000         1.724562447259652E-157
   11.1321000000000         2.785983821310166E-156
   11.3715000000000         3.537360497621618E-155
   11.6109000000000         3.619706009942257E-154
   11.8503000000000         2.998907675040196E-153
   12.0897000000000         1.961092895780317E-152
   12.3291000000000         9.065070034948466E-152
   12.5685000000000         1.287316839340711E-151
   12.8079000000000        -2.796901671166007E-150
   13.0473000000000        -3.871439225969487E-149
   13.2867000000000        -3.254287187813626E-148
   13.5261000000000        -2.101447303573564E-147
   13.7655000000000        -1.080921626537263E-146
   14.0049000000000        -4.168912162308289E-146
   14.2443000000000        -7.865886037710682E-146
   14.4837000000000         4.910646408709267E-145
   14.7231000000000         7.211349189378821E-144
   14.9625000000000         5.706518771416649E-143
   15.2019000000000         3.596618623893898E-142
   15.4413000000000         1.977947416986875E-141
   15.6807000000000         9.869109139439022E-141
   15.9201000000000         4.569656919423013E-140
   16.1595000000000         1.995451471351937E-139
   16.3989000000000         8.328260037737644E-139
   16.6383000000000         3.361641791325287E-138
   16.8777000000000         1.325662001877515E-137
   17.1171000000000         5.145974306734926E-137
   17.3565000000000         1.973917021179678E-136
   17.5959000000000         7.479816054414857E-136
   17.8353000000000         2.789053836882846E-135
   18.0747000000000         1.016945525941255E-134
   18.3141000000000         3.599242397103669E-134
   18.5535000000000         1.227050986944130E-133
   18.7929000000000         3.997732070212210E-133
   19.0323000000000         1.233720735278232E-132
   19.2717000000000         3.565157088173251E-132
   19.5111000000000         9.476550134306620E-132
   19.7505000000000         2.240211492489882E-131
   19.9899000000000         4.335046484413472E-131
   20.2293000000000         4.830520650840553E-131
   20.4687000000000        -1.031828615576946E-130
   20.7081000000000        -9.745464938274344E-130
   20.9475000000000        -4.448822285878382E-129
   21.1869000000000        -1.603330929086824E-128
   21.4263000000000        -4.993769163998809E-128
   21.6657000000000        -1.377914413358250E-127
   21.9051000000000        -3.353682546828895E-127
   22.1445000000000        -6.927958073643632E-127
   22.3839000000000        -1.056154188310425E-126
   22.6233000000000        -2.875154876040810E-127
   22.8627000000000         6.220918846405980E-126
   23.1021000000000         3.344944555080825E-125
   23.3415000000000         1.238018725150984E-124
   23.5809000000000         3.844340508046475E-124
   23.8203000000000         1.057350728316127E-123
   24.0597000000000         2.620437310523827E-123
   24.2991000000000         5.841499139724247E-123
   24.5385000000000         1.145368800637732E-122
   24.7779000000000         1.843164036322992E-122
   25.0173000000000         1.822927954759625E-122
   25.2567000000000        -2.097711951329061E-122
   25.4961000000000        -1.917700571978828E-121
   25.7355000000000        -7.260590802457002E-121
   25.9749000000000        -2.137664702990185E-120
   26.2143000000000        -5.430488520159382E-120
   26.4537000000000        -1.227208468522539E-119
   26.6931000000000        -2.472604319108905E-119
   26.9325000000000        -4.338621277431498E-119
   27.1719000000000        -6.117528617759829E-119
   27.4113000000000        -4.719879182809602E-119
   27.6507000000000         8.925555746834727E-119
   27.8901000000000         5.688556202726092E-118
   28.1295000000000         1.859638321600465E-117
   28.3689000000000         4.833005776066194E-117
   28.6083000000000         1.087350466672667E-116
   28.8477000000000         2.166383852070963E-116
   29.0871000000000         3.795451731001719E-116
   29.3265000000000         5.587458917061132E-116
   29.5659000000000         5.818216408719979E-116
   29.8053000000000        -3.488215899404520E-117
   30.0447000000000        -2.398487574469230E-115
   30.2841000000000        -8.701321614192084E-115
   30.5235000000000        -2.272399854561712E-114
   30.7629000000000        -4.994995594833350E-114
   31.0023000000000        -9.617876994155755E-114
   31.2417000000000        -1.622885563681653E-113
   31.4811000000000        -2.308973164937193E-113
   31.7205000000000        -2.383812824296106E-113
   31.9599000000000        -2.428928168646078E-114
   32.1993000000000         7.470403482976798E-113
   32.4387000000000         2.684007950475035E-112
   32.6781000000000         6.738713482908901E-112
   32.9175000000000         1.412731778538743E-111
   33.1569000000000         2.583519499262292E-111
   33.3963000000000         4.122700004640616E-111
   33.6357000000000         5.501583064810004E-111
   33.8751000000000         5.164387112364136E-111
   34.1145000000000        -3.715246203312434E-112
   34.3539000000000        -1.772044524321660E-110
   34.5933000000000        -5.779429505656051E-110
   34.8327000000000        -1.359245543407971E-109
   35.0721000000000        -2.687482924511927E-109
   35.3115000000000        -4.638412504646903E-109
   35.5509000000000        -6.957667037915178E-109
   35.7903000000000        -8.601980423374658E-109
   36.0297000000000        -6.981133878128598E-109
   36.2691000000000         3.111211530655694E-109
   36.5085000000000         3.068634820337967E-108
   36.7479000000000         8.923739911698372E-108
   36.9873000000000         1.954779025332975E-107
   37.2267000000000         3.634877561014098E-107
   37.4661000000000         5.900355287568972E-107
   37.7055000000000         8.253985531059302E-107
   37.9449000000000         9.239116716056903E-107
   38.1843000000000         5.721770540632751E-107
   38.4237000000000        -7.955893298897238E-107
   38.6631000000000        -4.060563929811629E-106
   38.9025000000000        -1.038153778147892E-105
   39.1419000000000        -2.090988619747609E-105
   39.3813000000000        -3.602784781951130E-105
   39.6207000000000        -5.381161731217282E-105
   39.8601000000000        -6.743503717982059E-105
   40.0995000000000        -6.145544975154370E-105
   40.3389000000000        -7.556983031370487E-106
   40.5783000000000         1.383889056876283E-104
   40.8177000000000         4.339507905781885E-104
   41.0571000000000         9.355222622630298E-104
   41.2965000000000         1.661467545698167E-103
   41.5359000000000         2.521660916551527E-103
   41.7753000000000         3.205976975048978E-103
   42.0147000000000         3.039240301419049E-103
   42.2541000000000         8.434779738541942E-104
   42.4935000000000        -5.093431226477382E-103
   42.7329000000000        -1.676048646251674E-102
   42.9723000000000        -3.560431025329609E-102
   43.2117000000000        -6.082393241230180E-102
   43.4511000000000        -8.654203302124337E-102
   43.6905000000000        -9.799179622511879E-102
   43.9299000000000        -6.771965655151132E-102
   44.1693000000000         4.568402252611961E-102
   44.4087000000000         2.916685341010232E-101
   44.6481000000000         7.076511455278472E-101
   44.8875000000000         1.276636155570893E-100
   45.1269000000000         1.856819411285801E-100
   45.3663000000000         2.087436968666756E-100
   45.6057000000000         1.297350366012791E-100
   45.8451000000000        -1.518838622526651E-100
   46.0845000000000        -7.539062119815811E-100
   46.3239000000000        -1.759256123889992E-099
   46.5633000000000        -3.107950862999530E-099
   46.8027000000000        -4.419718526577366E-099
   47.0421000000000        -4.758694413627957E-099
   47.2815000000000        -2.405715278929644E-099
   47.5209000000000         5.204700133299436E-099
   47.7603000000000         2.110002429227680E-098
   47.9997000000000         4.752540951699792E-098
   48.2391000000000         8.336658491400665E-098
   48.4785000000000         1.199125050159139E-097
   48.7179000000000         1.351811326496269E-097
   48.9573000000000         8.822005495999748E-098
   49.1967000000000        -8.321186575158242E-098
   49.4361000000000        -4.554558667231086E-097
   49.6755000000000        -1.093306224960989E-096
   49.9149000000000        -1.995537484938063E-096
   50.1543000000000        -3.003952292083245E-096
   50.3937000000000        -3.679079133744676E-096
   50.6331000000000        -3.168997631111078E-096
   50.8725000000000        -1.368933335464545E-097
   51.1119000000000         7.133709930864116E-096
   51.3513000000000         2.028108062555202E-095
   51.5907000000000         3.984897708231254E-095
   51.8301000000000         6.354972166689875E-095
   52.0695000000000         8.383294941387171E-095
   52.3089000000000         8.519914768680354E-095
   52.5483000000000         4.239064790350460E-095
   52.7877000000000        -7.845846706329389E-095
   53.0271000000000        -3.126216251669152E-094
   53.2665000000000        -6.798265693244730E-094
   53.5059000000000        -1.154448980891277E-093
   53.7453000000000        -1.622710509434549E-093
   53.9847000000000        -1.833338999226857E-093
   54.2241000000000        -1.359308917678639E-093
   54.4635000000000         3.963494077333225E-094
   54.7029000000000         4.101012077133616E-093
   54.9423000000000         1.023850556615895E-092
   55.1817000000000         1.864673300970564E-092
   55.4211000000000         2.783429151617210E-092
   55.6605000000000         3.415860861527104E-092
   55.8999000000000         3.111079682280119E-092
   56.1393000000000         9.178835561437990E-093
   56.3787000000000        -4.298817068693338E-092
   56.6181000000000        -1.352097586783944E-091
   56.8575000000000        -2.693424241480787E-091
   57.0969000000000        -4.294398253005843E-091
   57.3363000000000        -5.693809619589490E-091
   57.5757000000000        -6.009691204144933E-091
   57.8151000000000        -3.885045295838636E-091
   58.0545000000000         2.407574895023453E-091
   58.2939000000000         1.458163840399354E-090
   58.5333000000000         3.355126924863896E-090
   58.7727000000000         5.817774087280802E-090
   59.0121000000000         8.361884619515119E-090
   59.2515000000000         9.959758074049299E-090
   59.4909000000000         8.925734317352268E-090
   59.7303000000000         2.967734194662479E-090
   59.9697000000000        -1.045370020930868E-089
   60.2091000000000        -3.331053157972615E-089
   60.4485000000000        -6.563696241135109E-089
   60.6879000000000        -1.036395263364001E-088
   60.9273000000000        -1.375676421851929E-088
   61.1667000000000        -1.499752959646469E-088
   61.4061000000000        -1.154119159342173E-088
   61.6455000000000        -2.929323159723131E-090
   61.8849000000000         2.171076347679141E-088
   62.1243000000000         5.608130394671110E-088
   62.3637000000000         1.013216541784755E-087
   62.6031000000000         1.507409171605895E-087
   62.8425000000000         1.905269408387973E-087
   63.0819000000000         1.987728807934188E-087
   63.3213000000000         1.464905335621905E-087
   63.5607000000000         1.663468636595992E-089
   63.8001000000000        -2.629620583067828E-087
   64.0395000000000        -6.584893936226390E-087
   64.2789000000000        -1.166315616467404E-086
   64.5183000000000        -1.725290673995122E-086
   64.7577000000000        -2.223503415118427E-086
   64.9971000000000        -2.498354034946547E-086
   65.2365000000000        -2.346169408813571E-086
   65.4759000000000        -1.537698264784532E-086
   65.7153000000000         1.706947226323007E-087
   65.9547000000000         3.045348518337197E-086
   66.1941000000000         7.416053460553964E-086
   66.4335000000000         1.374426992558008E-085
   66.6729000000000         2.267195537980245E-085
   66.9123000000000         3.493438235331670E-085
   67.1517000000000         5.093145502471143E-085
   67.3911000000000         6.967541853179328E-085
   67.6305000000000         8.683194532466834E-085
   67.8699000000000         9.174488510032311E-085
   68.1093000000000         6.380399015256308E-085
   68.3487000000000        -3.061341275521877E-085
   68.5881000000000        -2.381014595743604E-084
   68.8275000000000        -6.110185503567643E-084
   69.0669000000000        -1.187760719760826E-083
   69.3063000000000        -1.955076513247003E-083
   69.5457000000000        -2.789513628752786E-083
   69.7851000000000        -3.381950791556866E-083
   70.0245000000000        -3.161904787366613E-083
   70.2639000000000        -1.257365903145811E-083
   70.5033000000000         3.450678628512211E-083
   70.7427000000000         1.209818806032985E-082
   70.9821000000000         2.534330907287487E-082
   71.2215000000000         4.254054544957492E-082
   71.4609000000000         6.059371538243209E-082
   71.7003000000000         7.264892208441715E-082
   71.9397000000000         6.702644829559017E-082
   72.1791000000000         2.709992610581552E-082
   72.4185000000000        -6.684712049161810E-082
   72.6579000000000        -2.325464144502258E-081
   72.8973000000000        -4.763083027131230E-081
   73.1367000000000        -7.787474135995344E-081
   73.3761000000000        -1.076712092395298E-080
   73.6155000000000        -1.245028565568483E-080
   73.8549000000000        -1.085261468743209E-080
   74.0943000000000        -3.328353734717435E-081
   74.3337000000000         1.302570491202122E-080
   74.5731000000000         4.047399666603678E-080
   74.8125000000000         7.913657313282745E-080
   75.0519000000000         1.248846783750394E-079
   75.2913000000000         1.668899482819784E-079
   75.5307000000000         1.854470017601739E-079
   75.7701000000000         1.511555433819998E-079
   76.0095000000000         2.702573781478969E-080
   76.2489000000000        -2.246105505697288E-079
   76.4883000000000        -6.286011639994765E-079
   76.7277000000000        -1.175961718277722E-078
   76.9671000000000        -1.796381938846577E-078
   77.2065000000000        -2.328585949170166E-078
   77.4459000000000        -2.497495676546360E-078
   77.6853000000000        -1.912523910104332E-078
   77.9247000000000        -1.061761779222916E-079
   78.1641000000000         3.365727611525362E-078
   78.4035000000000         8.744570551304039E-078
   78.6429000000000         1.580563368637761E-077
   78.8823000000000         2.353219505911594E-077
   79.1217000000000         2.978832558623445E-077
   79.3611000000000         3.110388851595351E-077
   79.6005000000000         2.274149234204391E-077
   79.8399000000000        -7.407522321464040E-079
   80.0793000000000        -4.421003767213232E-077
   80.3187000000000        -1.098059317340580E-076
   80.5581000000000        -1.939252345800146E-076
   80.7975000000000        -2.836583636640726E-076
   81.0369000000000        -3.534318216903301E-076
   81.2763000000000        -3.631533877467670E-076
   81.5157000000000        -2.596992746258060E-076
   81.7551000000000         1.605468924191016E-077
   81.9945000000000         5.145348406559465E-076
   82.2339000000000         1.253823101476497E-075
   82.4733000000000         2.187704492923331E-075
   82.7127000000000         3.169269717709747E-075
   82.9521000000000         3.918402002731453E-075
   83.1915000000000         4.006711019992153E-075
   83.4309000000000         2.878375517628828E-075
   83.6703000000000        -7.190717966695544E-077
   83.9097000000000        -5.344609061150744E-075
   84.1491000000000        -1.309498241231557E-074
   84.3885000000000        -2.281671845867746E-074
   84.6279000000000        -3.299137570812520E-074
   84.8673000000000        -4.078750846707015E-074
   85.1067000000000        -4.194093232203516E-074
   85.3461000000000        -3.098949869619686E-074
   85.5855000000000        -2.055017648496118E-075
   85.8249000000000         4.966099124447903E-074
   86.0643000000000         1.255972456033578E-073
   86.3037000000000         2.208859062478709E-073
   86.5431000000000         3.211455744883966E-073
   86.7825000000000         3.997954811274209E-073
   87.0219000000000         4.170812820925276E-073
   87.2613000000000         3.223472319693532E-073
   87.5007000000000         6.121991866559349E-074
   87.7401000000000        -4.109052653313078E-073
   87.9795000000000        -1.108565803655041E-072
   88.2189000000000        -1.990268379091661E-072
   88.4583000000000        -2.930487436787307E-072
   88.6977000000000        -3.696405083495307E-072
   88.9371000000000        -3.939534461755388E-072
   89.1765000000000        -3.215107250082423E-072
   89.4159000000000        -1.042993322382300E-072
   89.6553000000000         2.978569052190797E-072
   89.8947000000000         9.002606760301936E-072
   90.1341000000000         1.671622840442609E-071
   90.3735000000000         2.510656061240566E-071
   90.6129000000000         3.226494786360591E-071
   90.8523000000000         3.531109786409167E-071
   91.0917000000000         3.054008435115993E-071
   91.3311000000000         1.390149813710617E-071
   91.5705000000000        -1.810009533727916E-071
   91.8099000000000        -6.705276307241608E-071
   92.0493000000000        -1.309080973625070E-070
   92.2887000000000        -2.021053277120129E-070
   92.5281000000000        -2.659711053782684E-070
   92.7675000000000        -3.000190312498889E-070
   93.0069000000000        -2.749339326202061E-070
   93.2463000000000        -1.580755324221907E-070
   93.4857000000000         7.981083788298038E-071
   93.7251000000000         4.544184764973379E-070
   93.9645000000000         9.547564367213602E-070
   94.2039000000000         1.528729500703484E-069
   94.4433000000000         2.070478456516920E-069
   94.6827000000000         2.414015219086254E-069
   94.9221000000000         2.338880176216376E-069
   95.1615000000000         1.593959040421499E-069
   95.4009000000000        -5.537618722789212E-071
   95.6403000000000        -2.754595360077371E-069
   95.8797000000000        -6.464990267702046E-069
   96.1191000000000        -1.085738710908399E-068
   96.3585000000000        -1.521553645244129E-068
   96.5979000000000        -1.838056604193385E-068
   96.8373000000000        -1.877650605953122E-068
   97.0767000000000        -1.456033590818369E-068
   97.3161000000000        -3.934203759219926E-069
   97.5555000000000         1.436165320493619E-068
   97.7949000000000         4.039228871211769E-068
   98.0343000000000         7.227733211206438E-068
   98.2737000000000         1.054821125887729E-067
   98.5131000000000         1.323577299769056E-067
   98.7525000000000         1.421977930880784E-067
   98.9919000000000         1.221078039299347E-067
   99.2313000000000         5.895270497261142E-068
   99.4707000000000        -5.746793222195673E-068
   99.7101000000000        -2.300900136032736E-067
   99.9495000000000        -4.495079818135149E-067
   100.188900000000        -6.889864604675443E-067
   100.428300000000        -9.008637148868228E-067
   100.667700000000        -1.016062811117190E-066
   100.907100000000        -9.486488643173804E-067
   101.146500000000        -6.072380318518303E-067
   101.385900000000         8.559480874375421E-068
   101.625300000000         1.166084404201142E-066
   101.864700000000         2.596428758127582E-066
   102.104100000000         4.231186361907445E-066
   102.343500000000         5.790733039927447E-066
   102.582900000000         6.852306982682422E-066
   102.822300000000         6.870834204613029E-066
   103.061700000000         5.241346240939106E-066
   103.301100000000         1.411328542115591E-066
   103.540500000000        -4.956104007659427E-066
   103.779900000000        -1.377911252323036E-065
   104.019300000000        -2.434074714719630E-065
   104.258700000000        -3.510388453882798E-065
   104.498100000000        -4.361927873910062E-065
   104.737500000000        -4.660029049625554E-065
   104.976900000000        -4.023847137736267E-065
   105.216300000000        -2.081740756255584E-065
   105.455700000000         1.435734414818813E-065
   105.695100000000         6.575966448071664E-065
   105.934500000000         1.303123609578858E-064
   106.173900000000         2.001665503196825E-064
   106.413300000000         2.619372062873846E-064
   106.652700000000         2.968200456772497E-064
   106.892100000000         2.820361450867819E-064
   107.131500000000         1.939787087338879E-064
   107.370900000000         1.323891296533938E-065
   107.610300000000        -2.686551928311041E-064
   107.849700000000        -6.414375644869972E-064
   108.089100000000        -1.068479907530077E-063
   108.328500000000        -1.481192716961907E-063
   108.567900000000        -1.777800714410076E-063
   108.807300000000        -1.829062311281600E-063
   109.046700000000        -1.493248147918599E-063
   109.286100000000        -6.417785307138365E-064
   109.525500000000         8.047850672209304E-064
   109.764900000000         2.833207205645175E-063
   110.004300000000         5.292466199778608E-063
   110.243700000000         7.856424833211075E-063
   110.483100000000         1.000665655463242E-062
   110.722500000000         1.104954375896024E-062
   110.961900000000         1.018121655964442E-062
   111.201300000000         6.610039037286779E-063
   111.440700000000        -2.616080414112286E-064
   111.680100000000        -1.060680710409226E-062
   111.919500000000        -2.392147123145703E-062
   112.158900000000        -3.879432978844713E-062
   112.398300000000        -5.276139941544539E-062
   112.637700000000        -6.231871873345946E-062
   112.877100000000        -6.316864688807176E-062
   113.116500000000        -5.076079021229318E-062
   113.355900000000        -2.115413848359874E-062
   113.595300000000         2.782994460788259E-062
   113.834700000000         9.527198235955819E-062
   114.074100000000         1.758356175999436E-061
   114.313500000000         2.587577727805981E-061
   114.552900000000         3.275129340752357E-061
   114.792300000000         3.605462812952749E-061
   115.031700000000         3.334293303626022E-061
   115.271100000000         2.226558940554410E-061
   115.510500000000         1.105032568377474E-062
   115.749900000000        -3.055945343440172E-061
   115.989300000000        -7.114705647095248E-061
   116.228700000000        -1.164587441417987E-060
   116.468100000000        -1.593186706270441E-060
   116.707500000000        -1.896682946315182E-060
   116.946900000000        -1.953028511706511E-060
   117.186300000000        -1.633931007382049E-060
   117.425700000000        -8.283775038123113E-061
   117.665100000000         5.265892123672214E-061
   117.904500000000         2.410864817852416E-060
   118.143900000000         4.687295725478371E-060
   118.383300000000         7.076096399991911E-060
   118.622700000000         9.146636494406496E-060
   118.862100000000         1.033601171184902E-059
   119.101500000000         1.000255049358894E-059
   119.340900000000         7.518951015658457E-060
   119.580300000000         2.403841911027299E-060
   119.819700000000        -5.517644380990942E-060
   120.059100000000        -1.594354249593313E-059
   120.298500000000        -2.794444377058010E-059
   120.537900000000        -3.987079444740198E-059
   120.777300000000        -4.936115065305433E-059
   121.016700000000        -5.349287599333447E-059
   121.256100000000        -4.910643428518182E-059
   121.495500000000        -3.331373913010562E-059
   121.734900000000        -4.169769888317682E-060
   121.974300000000         3.855337884757866E-059
   122.213700000000         9.259549613015614E-059
   122.453100000000         1.525883047382718E-058
   122.692500000000         2.097659782583342E-058
   122.931900000000         2.521954773240877E-058
   123.171300000000         2.656942121009939E-058
   123.410700000000         2.355406594971165E-058
   123.650100000000         1.489777943710234E-058
   123.889500000000        -1.637552072575007E-060
   124.128900000000        -2.153623647271866E-058
   124.368300000000        -4.793790762184866E-058
   124.607700000000        -7.665591789467946E-058
   124.847100000000        -1.034647247123735E-057
   125.086500000000        -1.227833127544624E-057
   125.325900000000        -1.281341792724943E-057
   125.565300000000        -1.129369832904972E-057
   125.804700000000        -7.162305118680393E-058
   126.044100000000        -9.959486275632476E-060
   126.283500000000         9.830623712159967E-058
   126.522900000000         2.204603123878555E-057
   126.762300000000         3.534890269275024E-057
   127.001700000000         4.789739420992450E-057
   127.241100000000         5.727405740018832E-057
   127.480500000000         6.067452975883339E-057
   127.719900000000         5.522750538746235E-057
   127.959300000000         3.843962960182338E-057
   128.198700000000         8.736960483164844E-058
   128.438100000000        -3.394979448305491E-057
   128.677500000000        -8.763285803971135E-057
   128.916900000000        -1.478437382680288E-056
   129.156300000000        -2.074451412899380E-056
   129.395700000000        -2.567836190985617E-056
   129.635100000000        -2.842710668673437E-056
   129.874500000000        -2.774490846728496E-056
   130.113900000000        -2.245394381045835E-056
   130.353300000000        -1.164189384279349E-056
   130.592700000000         5.111727022765590E-057
   130.832100000000         2.750172277391805E-056
   131.071500000000         5.428439329736803E-056
   131.310900000000         8.312017297126734E-056
   131.550300000000         1.105098909149078E-055
   131.789700000000         1.318635954011694E-055
   132.029100000000         1.417380026198396E-055
   132.268500000000         1.342713878556980E-055
   132.507900000000         1.038324086628859E-055
   132.747300000000         4.588113280242446E-056
   132.986700000000        -4.198441545569440E-056
   133.226100000000        -1.588553253943178E-055
   133.465500000000        -2.993118381202304E-055
   133.704900000000        -4.523429035948694E-055
   133.944300000000        -6.005833085677105E-055
   134.183700000000        -7.201167076099874E-055
   134.423100000000        -7.811326905333056E-055
   134.662500000000        -7.497418322895474E-055
   134.901900000000        -5.912269697308396E-055
   135.141300000000        -2.749215951758996E-055
   135.380700000000         2.192625660164645E-055
   135.620100000000         8.929018623110066E-055
   135.859500000000         1.720329061385580E-054
   136.098900000000         2.640162094103384E-054
   136.338300000000         3.548646400174649E-054
   136.577700000000         4.296831947234975E-054
   136.817100000000         4.693942470477107E-054
   137.056500000000         4.519366736229061E-054
   137.295900000000         3.545360999901856E-054
   137.535300000000         1.571655865217513E-054
   137.774700000000        -1.528395183610549E-054
   138.014100000000        -5.752731964364967E-054
   138.253500000000        -1.091201494382341E-053
   138.492900000000        -1.657619802457456E-053
   138.732300000000        -2.203798573863496E-053