  -1.79550000000000         0.000000000000000E+000
  -1.55610000000000         0.000000000000000E+000
  -1.31670000000000         0.000000000000000E+000
  -1.07730000000000         0.000000000000000E+000
 -0.837900000000000         0.000000000000000E+000
 -0.598500000000000         0.000000000000000E+000
 -0.359100000000000         0.000000000000000E+000
 -0.119700000000000         0.000000000000000E+000
  0.119700000000000         0.000000000000000E+000
  0.359100000000000         0.000000000000000E+000
  0.598500000000000         0.000000000000000E+000
  0.837900000000000         0.000000000000000E+000
   1.07730000000000         0.000000000000000E+000
   1.31670000000000         0.000000000000000E+000
   1.55610000000000         0.000000000000000E+000
   1.79550000000000         0.000000000000000E+000
   2.03490000000000         0.000000000000000E+000
   2.27430000000000         0.000000000000000E+000
   2.51370000000000         0.000000000000000E+000
   2.75310000000000         0.000000000000000E+000
   2.99250000000000         0.000000000000000E+000
   3.23190000000000         0.000000000000000E+000
   3.47130000000000         0.000000000000000E+000
   3.71070000000000         0.000000000000000E+000
   3.95010000000000         0.000000000000000E+000
   4.18950000000000         0.000000000000000E+000
   4.42890000000000         0.000000000000000E+000
   4.66830000000000         0.000000000000000E+000
   4.90770000000000         0.000000000000000E+000
   5.14710000000000         0.000000000000000E+000
   5.38650000000000         0.000000000000000E+000
   5.62590000000000         0.000000000000000E+000
   5.86530000000000         0.000000000000000E+000
   6.10470000000000         0.000000000000000E+000
   6.34410000000000         0.000000000000000E+000
   6.58350000000000         0.000000000000000E+000
   6.82290000000000         0.000000000000000E+000
   7.06230000000000         0.000000000000000E+000
   7.30170000000000         0.000000000000000E+000
   7.54110000000000         0.000000000000000E+000
   7.78050000000000         0.000000000000000E+000
   8.01990000000000         0.000000000000000E+000
   8.25930000000000         0.000000000000000E+000
   8.49870000000000         0.000000000000000E+000
   8.73810000000000        -2.336744397534915E-172
   8.97750000000000         3.895954217756769E-166
   9.21690000000000         9.609002389892016E-163
   9.45630000000000         1.733810181332470E-161
   9.69570000000000        -2.800531482237391E-158
   9.93510000000000        -2.022848943627423E-156
   10.1745000000000        -7.198119399585311E-155
   10.4139000000000        -1.693097384694621E-153
   10.6533000000000        -2.976386132170235E-152
   10.8927000000000        -4.203987892284222E-151
   11.1321000000000        -5.024975235347936E-150
   11.3715000000000        -5.298604189017964E-149
   11.6109000000000        -5.095168332200660E-148
   11.8503000000000        -4.569994194080859E-147
   12.0897000000000        -3.860364824693845E-146
   12.3291000000000        -3.065650929923089E-145
   12.5685000000000        -2.269529172160378E-144
   12.8079000000000        -1.550125097337012E-143
   13.0473000000000        -9.670443912352274E-143
   13.2867000000000        -5.454595166304051E-142
   13.5261000000000        -2.746259016577724E-141
   13.7655000000000        -1.208267026445518E-140
   14.0049000000000        -4.441890774724324E-140
   14.2443000000000        -1.198227440871582E-139
   14.4837000000000        -9.025679285279980E-140
   14.7231000000000         1.546416026727104E-138
   14.9625000000000         1.334713793339022E-137
   15.2019000000000         7.182354061830655E-137
   15.4413000000000         2.952007018271354E-136
   15.6807000000000         9.229156566572472E-136
   15.9201000000000         1.757679685382260E-135
   16.1595000000000        -2.102362233635049E-135
   16.3989000000000        -3.963704694397107E-134
   16.6383000000000        -2.241231964889006E-133
   16.8777000000000        -8.363987705803506E-133
   17.1171000000000        -1.830981422923039E-132
   17.3565000000000         2.469069755297196E-132
   17.5959000000000         5.529957020207262E-131
   17.8353000000000         3.906983939836179E-130
   18.0747000000000         2.071521619741960E-129
   18.3141000000000         9.370264887197209E-129
   18.5535000000000         3.784536557788418E-128
   18.7929000000000         1.393443686641965E-127
   19.0323000000000         4.722876497205300E-127
   19.2717000000000         1.477771618824229E-126
   19.5111000000000         4.253909017946089E-126
   19.7505000000000         1.112729439772491E-125
   19.9899000000000         2.565746227326596E-125
   20.2293000000000         4.797990087263697E-125
   20.4687000000000         4.971103205738364E-125
   20.7081000000000        -1.232607479207461E-124
   20.9475000000000        -1.071358228433729E-123
   21.1869000000000        -4.788232191548561E-123
   21.4263000000000        -1.721421295218140E-122
   21.6657000000000        -5.455251142253206E-122
   21.9051000000000        -1.575077209673580E-121
   22.1445000000000        -4.198780382668888E-121
   22.3839000000000        -1.036604149253893E-120
   22.6233000000000        -2.357168283451455E-120
   22.8627000000000        -4.850937740796337E-120
   23.1021000000000        -8.643225451555691E-120
   23.3415000000000        -1.161687737853643E-119
   23.5809000000000        -3.494070722086844E-120
   23.8203000000000         5.004237378722582E-119
   24.0597000000000         2.453551947663404E-118
   24.2991000000000         8.225440763561646E-118
   24.5385000000000         2.320741272217969E-117
   24.7779000000000         5.825536093542446E-117
   25.0173000000000         1.323947440924324E-116
   25.2567000000000         2.720278463520460E-116
   25.4961000000000         4.947235285163069E-116
   25.7355000000000         7.468615365234797E-116
   25.9749000000000         7.270019898295187E-116
   26.2143000000000        -5.358404521138887E-116
   26.4537000000000        -5.558365712830064E-115
   26.6931000000000        -1.997113405435411E-114
   26.9325000000000        -5.478058508484140E-114
   27.1719000000000        -1.282967796501658E-113
   27.4113000000000        -2.637705531621100E-113
   27.6507000000000        -4.720348088963773E-113
   27.8901000000000        -6.952840341917994E-113
   28.1295000000000        -6.668737465236058E-113
   28.3689000000000         3.828659462909699E-113
   28.6083000000000         4.249909283434774E-112
   28.8477000000000         1.450096091544070E-111
   29.0871000000000         3.710296648287005E-111
   29.3265000000000         7.972730371295663E-111
   29.5659000000000         1.466214565681104E-110
   29.8053000000000         2.224748307451964E-110
   30.0447000000000         2.335425006354436E-110
   30.2841000000000        -3.093166261087958E-111
   30.5235000000000        -1.052916206267464E-109
   30.7629000000000        -3.767798234311720E-109
   31.0023000000000        -9.707064210719454E-109
   31.2417000000000        -2.081858435980968E-108
   31.4811000000000        -3.828792318725392E-108
   31.7205000000000        -5.901686764224590E-108
   31.9599000000000        -6.751102243535738E-108
   32.1993000000000        -2.017825633797721E-108
   32.4387000000000         1.803428643839877E-107
   32.6781000000000         7.184440170163010E-107
   32.9175000000000         1.889863421533686E-106
   33.1569000000000         4.068722358431904E-106
   33.3963000000000         7.509476234472099E-106
   33.6357000000000         1.178295099911001E-105
   33.8751000000000         1.453274429724421E-105
   34.1145000000000         9.170312014453808E-106
   34.3539000000000        -1.872652086416305E-105
   34.5933000000000        -9.583839684130097E-105
   34.8327000000000        -2.640137667191230E-104
   35.0721000000000        -5.754670536090091E-104
   35.3115000000000        -1.067391635291918E-103
   35.5509000000000        -1.693541283596423E-103
   35.7903000000000        -2.180215578885456E-103
   36.0297000000000        -1.771184856928800E-103
   36.2691000000000         1.151950106054260E-103
   36.5085000000000         9.508035185337629E-103
   36.7479000000000         2.776013124467451E-102
   36.9873000000000         6.135517409137214E-102
   37.2267000000000         1.141801285813718E-101
   37.4661000000000         1.821149121579658E-101
   37.7055000000000         2.401144979420306E-101
   37.9449000000000         2.203920344815939E-101
   38.1843000000000        -1.840070393728592E-102
   38.4237000000000        -7.242577208331056E-101
   38.6631000000000        -2.265862283669762E-100
   38.9025000000000        -5.080723101906303E-100
   39.1419000000000        -9.472995888959710E-100
   39.3813000000000        -1.513315632858357E-099
   39.6207000000000        -2.022364077505797E-099
   39.8601000000000        -1.990955111332458E-099
   40.0995000000000        -4.397307332765798E-100
   40.3389000000000         4.299451936032663E-099
   40.5783000000000         1.463142535602028E-098
   40.8177000000000         3.331444083976321E-098
   41.0571000000000         6.216637816910571E-098
   41.2965000000000         9.918864483536659E-098
   41.5359000000000         1.333747552261514E-097
   41.7753000000000         1.367963502668523E-097
   42.0147000000000         5.468583728399446E-098
   42.2541000000000        -2.032850966860780E-097
   42.4935000000000        -7.629429535443018E-097
   42.7329000000000        -1.762673406382686E-096
   42.9723000000000        -3.285703450387037E-096
   43.2117000000000        -5.219459354443405E-096
   43.4511000000000        -7.015454900828803E-096
   43.6905000000000        -7.343536379474716E-096
   43.9299000000000        -3.689300334143769E-096
   44.1693000000000         7.948450003984055E-096
   44.4087000000000         3.292843208488128E-095
   44.6481000000000         7.683798979849861E-095
   44.8875000000000         1.425495978246616E-094
   45.1269000000000         2.245174603310437E-094
   45.3663000000000         2.995975435100597E-094
   45.6057000000000         3.146390759201225E-094
   45.8451000000000         1.732811308158634E-094
   46.0845000000000        -2.717383556117019E-094
   46.3239000000000        -1.208727825004076E-093
   46.5633000000000        -2.820671254200895E-093
   46.8027000000000        -5.177397763295598E-093
   47.0421000000000        -8.040903142691795E-093
   47.2815000000000        -1.057115334233705E-092
   47.5209000000000        -1.095620515308370E-092
   47.7603000000000        -6.062587242702782E-093
   47.9997000000000         8.682135230161501E-093
   48.2391000000000         3.880704050990105E-092
   48.4785000000000         8.918327413015433E-092
   48.7179000000000         1.606444317498685E-091
   48.9573000000000         2.443074654350343E-091
   49.1967000000000         3.135569067995358E-091
   49.4361000000000         3.147977777353649E-091
   49.6755000000000         1.600950707694142E-091
   49.9149000000000        -2.722373321755935E-091
   50.1543000000000        -1.119486306093204E-090
   50.3937000000000        -2.486091396312935E-090
   50.6331000000000        -4.351526517715644E-090
   50.8725000000000        -6.426310220959863E-090
   51.1119000000000        -7.963366733064040E-090
   51.3513000000000        -7.562373526948449E-090
   51.5907000000000        -3.053217606830619E-090
   51.8301000000000         8.390751925820078E-090
   52.0695000000000         2.969037123068103E-089
   52.3089000000000         6.258520003419323E-089
   52.5483000000000         1.054091744618010E-088
   52.7877000000000         1.498539415562061E-088
   53.0271000000000         1.770581731454180E-088
   53.2665000000000         1.540679611367553E-088
   53.5059000000000         3.274546402467364E-089
   53.7453000000000        -2.455468010877324E-088
   53.9847000000000        -7.350182749219404E-088
   54.2241000000000        -1.455427076549566E-087
   54.4635000000000        -2.343504864606617E-087
   54.7029000000000        -3.186909659987237E-087
   54.9423000000000        -3.550916905226301E-087
   55.1817000000000        -2.722786761692197E-087
   55.4211000000000         2.813175454183337E-088
   55.6605000000000         6.579964304745519E-087
   55.8999000000000         1.707709887408104E-086
   56.1393000000000         3.181810991976089E-086
   56.3787000000000         4.900971649814237E-086
   56.6181000000000         6.376402228677858E-086
   56.8575000000000         6.681385101952282E-086
   57.0969000000000         4.372893224434105E-086
   57.3363000000000        -2.447791948944456E-086
   57.5757000000000        -1.581001583965478E-085
   57.8151000000000        -3.713666508752372E-085
   58.0545000000000        -6.596455400825928E-085
   58.2939000000000        -9.808254063803467E-085
   58.5333000000000        -1.232520653759776E-084
   58.7727000000000        -1.230274221432801E-084
   59.0121000000000        -6.970287515170470E-085
   59.2515000000000         7.196607706313947E-085
   59.4909000000000         3.380307283383534E-084
   59.7303000000000         7.510873564170602E-084
   59.9697000000000         1.296426993783652E-083
   60.2091000000000         1.888326619169808E-083
   60.4485000000000         2.329976095470626E-083
   60.6879000000000         2.276789815692787E-083
   60.9273000000000         1.221632036124916E-083
   61.1667000000000        -1.469156499968899E-083
   61.4061000000000        -6.430654975116720E-083
   61.6455000000000        -1.404324871989640E-082
   61.8849000000000        -2.401295806070375E-082
   62.1243000000000        -3.478763162191574E-082
   62.3637000000000        -4.287320670523457E-082
   62.6031000000000        -4.221940119179029E-082
   62.8425000000000        -2.398900599046007E-082
   63.0819000000000         2.280766429320229E-082
   63.3213000000000         1.091845930019822E-081
   63.5607000000000         2.418807706246408E-081
   63.8001000000000         4.163786899235065E-081
   64.0395000000000         6.072600907820835E-081
   64.2789000000000         7.569687491266769E-081
   64.5183000000000         7.657281395544364E-081
   64.7577000000000         4.876398937309881E-081
   64.9971000000000        -2.594176601749400E-081
   65.2365000000000        -1.660245712402120E-080
   65.4759000000000        -3.834637928585003E-080
   65.7153000000000        -6.727746540764721E-080
   65.9547000000000        -9.958956538294991E-080
   66.1941000000000        -1.264579151157414E-079
   66.4335000000000        -1.324470972994218E-079
   66.6729000000000        -9.484620361516283E-080
   66.9123000000000         1.492899250324466E-080
   67.1517000000000         2.264060366456540E-079
   67.3911000000000         5.600528958136737E-079
   67.6305000000000         1.011063682881099E-078
   67.8699000000000         1.527002654508727E-078
   68.1093000000000         1.981691297824525E-078
   68.3487000000000         2.151328984698009E-078
   68.5881000000000         1.703615853654574E-078
   68.8275000000000         2.159443394510279E-079
   69.0669000000000        -2.756896481480663E-078
   69.3063000000000        -7.544023114938523E-078
   69.5457000000000        -1.413301064784970E-077
   69.7851000000000        -2.185851874401893E-077
   70.0245000000000        -2.903714818845760E-077
   70.2639000000000        -3.262893542750133E-077
   70.5033000000000        -2.806914565178857E-077
   70.7427000000000        -9.483368632772454E-078
   70.9821000000000         2.944460136622863E-077
   71.2215000000000         9.367019067456932E-077
   71.4609000000000         1.838436889558171E-076
   71.7003000000000         2.922297636596160E-076
   71.9397000000000         3.978941766806228E-076
   72.1791000000000         4.621676067506559E-076
   72.4185000000000         4.261847545134419E-076
   72.6579000000000         2.131540003656853E-076
   72.8973000000000        -2.612943346380437E-076
   73.1367000000000        -1.067180843422082E-075
   73.3761000000000        -2.224071918090816E-075
   73.6155000000000        -3.650743641254137E-075
   73.8549000000000        -5.105289497079139E-075
   74.0943000000000        -6.127513190258032E-075
   74.3337000000000        -6.004710955550126E-075
   74.5731000000000        -3.791984025458681E-075
   74.8125000000000         1.573644883094162E-075
   75.0519000000000         1.102406478216488E-074
   75.2913000000000         2.494453502015216E-074
   75.5307000000000         4.258879630821517E-074
   75.7701000000000         6.137449712106689E-074
   76.0095000000000         7.618824304027190E-074
   76.2489000000000         7.893242163868864E-074
   76.4883000000000         5.865765307798378E-074
   76.7277000000000         2.716574980206508E-075
   76.9671000000000        -1.005985694103848E-073
   77.2065000000000        -2.575709273537672E-073
   77.4459000000000        -4.626560803723705E-073
   77.6853000000000        -6.906392377418238E-073
   77.9247000000000        -8.886639786016840E-073
   78.1641000000000        -9.705245097522191E-073
   78.4035000000000        -8.167975125794607E-073
   78.6429000000000        -2.853898347563452E-073
   78.8823000000000         7.625580575873823E-073
   79.1217000000000         2.417350239742550E-072
   79.3611000000000         4.654736815100634E-072
   79.6005000000000         7.253331391398575E-072
   79.8399000000000         9.707748235653806E-072
   80.0793000000000         1.116051527755012E-071
   80.3187000000000         1.038778443534055E-071
   80.5581000000000         5.884346208820442E-072
   80.7975000000000        -3.901801500916425E-072
   81.0369000000000        -2.014179974147694E-071
   81.2763000000000        -4.298638768623714E-071
   81.5157000000000        -7.074444423910731E-071
   81.7551000000000        -9.898575758445234E-071
   81.9945000000000        -1.197754899429341E-070
   82.2339000000000        -1.213629747822829E-070
   82.4733000000000        -8.875292817330183E-071
   82.7127000000000        -5.645049804437033E-072
   82.9521000000000         1.418129844737217E-070
   83.1915000000000         3.592135744399115E-070
   83.4309000000000         6.361872042158523E-070
   83.6703000000000         9.376439705817631E-070
   83.9097000000000         1.195695474740309E-069
   84.1491000000000         1.305048019923885E-069
   84.3885000000000         1.125670337807682E-069
   84.6279000000000         4.971933961263624E-070
   84.8673000000000        -7.306401189240359E-070
   85.1067000000000        -2.648610407177260E-069
   85.3461000000000        -5.220144405590441E-069
   85.5855000000000        -8.200777659570031E-069
   85.8249000000000        -1.105840909281560E-068
   86.0643000000000        -1.291695594884780E-068
   86.3037000000000        -1.255524983222381E-068
   86.5431000000000        -8.499844120644293E-069
   86.7825000000000         7.486846023563239E-070
   87.0219000000000         1.632563223151807E-068
   87.2613000000000         3.844177911319866E-068
   87.5007000000000         6.568796496661436E-068
   87.7401000000000         9.430023550590913E-068
   87.9795000000000         1.175563626706028E-067
   88.2189000000000         1.255542490072712E-067
   88.4583000000000         1.056886066776014E-067
   88.6977000000000         4.416762320894063E-068
   88.9371000000000        -7.113737691949564E-068
   89.1765000000000        -2.463746888296170E-067
   89.4159000000000        -4.760908766006138E-067
   89.6553000000000        -7.369190015414319E-067
   89.8947000000000        -9.817730981241281E-067
   90.1341000000000        -1.136394688490298E-066
   90.3735000000000        -1.100685747017916E-066
   90.6129000000000        -7.575988116731339E-067
   90.8523000000000         7.809639245552990E-069
   91.0917000000000         1.277498553499599E-066
   91.3311000000000         3.058041255926201E-066
   91.5705000000000         5.230155378200271E-066
   91.8099000000000         7.497868823120568E-066
   92.0493000000000         9.350001428689150E-066
   92.2887000000000         1.005152416868160E-065
   92.5281000000000         8.685852832338454E-066
   92.7675000000000         4.269497019227304E-066
   93.0069000000000        -4.044310942471935E-066
   93.2463000000000        -1.666831579796658E-065
   93.4857000000000        -3.320604390060095E-065
   93.7251000000000        -5.204360601482531E-065
   93.9645000000000        -6.998919145330512E-065
   94.2039000000000        -8.207861034780888E-065
   94.4433000000000        -8.169658630456959E-065
   94.6827000000000        -6.117699326264288E-065
   94.9221000000000        -1.302682557778771E-065
   95.1615000000000         6.814619683049039E-065
   95.4009000000000         1.830457329105993E-064
   95.6403000000000         3.246682548599855E-064
   95.8797000000000         4.753248323982641E-064
   96.1191000000000         6.044448939501084E-064
   96.3585000000000         6.681552583681978E-064
   96.5979000000000         6.117887937514111E-064
   96.8373000000000         3.764559892453811E-064
   97.0767000000000        -8.949135388666205E-065
   97.3161000000000        -8.139536339801560E-064
   97.5555000000000        -1.780491237558652E-063
   97.7949000000000        -2.906124813798424E-063
   98.0343000000000        -4.021817932772145E-063
   98.2737000000000        -4.861772937867665E-063
   98.5131000000000        -5.069124636108354E-063
   98.7525000000000        -4.226122797689317E-063
   98.9919000000000        -1.915799495742863E-063
   99.2313000000000         2.181225084103149E-063
   99.4707000000000         8.157218198302066E-063
   99.7101000000000         1.572643416350734E-062
   99.9495000000000         2.407547689625168E-062
   100.188900000000         3.174994619755562E-062
   100.428300000000         3.662360977288367E-062
   100.667700000000         3.600319069294805E-062
   100.907100000000         2.692036705787183E-062
   101.146500000000         6.648524084397227E-063
   101.385900000000        -2.654847416154183E-062
   101.625300000000        -7.247665965704908E-062
   101.864700000000        -1.279881188394324E-061
   102.104100000000        -1.860565022883496E-061
   102.343500000000        -2.352126999187184E-061
   102.582900000000        -2.596618992258987E-061
   102.822300000000        -2.404243025087128E-061
   103.061700000000        -1.577978712760915E-061
   103.301100000000         4.692063570152177E-063
   103.540500000000         2.549323301287314E-061
   103.779900000000         5.858779056112080E-061
   104.019300000000         9.690938657610730E-061
   104.258700000000         1.349535953325282E-060
   104.498100000000         1.643361839371636E-060
   104.737500000000         1.740841909180071E-060
   104.976900000000         1.516407985808559E-060
   105.216300000000         8.473892023686769E-061
   105.455700000000        -3.580929817214627E-061
   105.695100000000        -2.125331246148772E-060
   105.934500000000        -4.372948688960672E-060
   106.173900000000        -6.874902501053244E-060
   106.413300000000        -9.233761534555630E-060
   106.652700000000        -1.087671068703172E-059
   106.892100000000        -1.108670171408912E-059
   107.131500000000        -9.079979975042072E-060
   107.370900000000        -4.137046502176459E-060
   107.610300000000         4.213632607704885E-060
   107.849700000000         1.597131557368424E-059
   108.089100000000         3.042480220029357E-059
   108.328500000000         4.594328414690967E-059
   108.567900000000         5.985428721244594E-059
   108.807300000000         6.847722365306951E-059
   109.046700000000         6.738236597173621E-059
   109.286100000000         5.193246455406555E-059
   109.525500000000         1.813366320602269E-059
   109.764900000000        -3.622850862530414E-059
   110.004300000000        -1.102627038182327E-058
   110.243700000000        -1.986343090790462E-058
   110.483100000000        -2.904849751748426E-058
   110.722500000000        -3.689531074092543E-058
   110.961900000000        -4.116811916935539E-058
   111.201300000000        -3.926789966777140E-058
   111.440700000000        -2.858119420726463E-058
   111.680100000000        -6.998266152544905E-059
   111.919500000000         2.642356205687160E-058
   112.158900000000         7.071606497716398E-058
   112.398300000000         1.222868536120655E-057
   112.637700000000         1.743934666994370E-057
   112.877100000000         2.169970291960774E-057
   113.116500000000         2.372011253114515E-057
   113.355900000000         2.204602052404007E-057
   113.595300000000         1.526741611928225E-057
   113.834700000000         2.316405278934128E-058
   114.074100000000        -1.716520059983878E-057
   114.313500000000        -4.242838128110008E-057
   114.552900000000        -7.125364604355167E-057
   114.792300000000        -9.970847119861449E-057
   115.031700000000        -1.221272885766992E-056
   115.271100000000        -1.314182847169009E-056
   115.510500000000        -1.197844679838505E-056
   115.749900000000        -7.990523240985262E-057
   115.989300000000        -6.556241308603033E-058
   116.228700000000         1.014488119777737E-056
   116.468100000000         2.392242427914598E-056
   116.707500000000         3.940345547777947E-056
   116.946900000000         5.442247693165003E-056
   117.186300000000         6.593732432234179E-056
   117.425700000000         7.021725831414940E-056
   117.665100000000         6.324356229198544E-056
   117.904500000000         4.133927686913952E-056
   118.143900000000         2.008603013996356E-057
   118.383300000000        -5.508133732558623E-056
   118.622700000000        -1.270992306188413E-055
   118.862100000000        -2.072076660562918E-055
   119.101500000000        -2.841056795464379E-055
   119.340900000000        -3.422044596991444E-055
   119.580300000000        -3.626721300020547E-055
   119.819700000000        -3.255215211919866E-055
   120.059100000000        -2.127947569558454E-055
   120.298500000000        -1.271853800480488E-056
   120.537900000000         2.755271678156073E-055
   120.777300000000         6.370451505625393E-055
   121.016700000000         1.037334465876061E-054
   121.256100000000         1.420353431550972E-054
   121.495500000000         1.709688996249823E-054
   121.734900000000         1.813898101708540E-054
   121.974300000000         1.636764822015797E-054
   122.213700000000         1.092630393255759E-054
   122.453100000000         1.261018892737594E-055
   122.692500000000        -1.265622645499234E-054
   122.931900000000        -3.010753110165280E-054
   123.171300000000        -4.945291544748243E-054
   123.410700000000        -6.804702414380872E-054
   123.650100000000        -8.230067443363274E-054
   123.889500000000        -8.793413564482535E-054
   124.128900000000        -8.045360056256436E-054
   124.368300000000        -5.585527122593616E-054
   124.607700000000        -1.152310404936870E-054
   124.847100000000         5.276107476348378E-054
   125.086500000000         1.338277875783553E-053
   125.325900000000         2.243312032220052E-053
   125.565300000000         3.123772287235954E-053
   125.804700000000         3.817949124600606E-053
   126.044100000000         4.132532445996714E-053
   126.283500000000         3.863566643143046E-053
   126.522900000000         2.827346254832328E-053
   126.762300000000         8.997529605580719E-054
   127.001700000000        -1.939484092760686E-053
   127.241100000000        -5.563297406081794E-053
   127.480500000000        -9.662268806347267E-053
   127.719900000000        -1.372725943812822E-052
   127.959300000000        -1.705928309016082E-052
   128.198700000000        -1.881519440215121E-052
   128.438100000000        -1.809490278162900E-052
   128.677500000000        -1.407094373430721E-052
   128.916900000000        -6.154427368099506E-053
   129.156300000000         5.816919176161691E-053
   129.395700000000         2.139184171936621E-052
   129.635100000000         3.935132768437159E-052
   129.874500000000         5.762468523608686E-052
   130.113900000000         7.331560291054557E-052
   130.353300000000         8.287406469573065E-052
   130.592700000000         8.243891467315850E-052
   130.832100000000         6.835673537448542E-052
   131.071500000000         3.785581718382350E-052
   131.310900000000        -1.017898088719475E-052
   131.550300000000        -7.442050132400283E-052
   131.789700000000        -1.504265416477398E-051
   132.029100000000        -2.302295890359494E-051
   132.268500000000        -3.023489858006054E-051
   132.507900000000        -3.523737656480735E-051
   132.747300000000        -3.642247355007332E-051
   132.986700000000        -3.221334696533530E-051
   133.226100000000        -2.132743254356219E-051
   133.465500000000        -3.085907163284215E-052
   133.704900000000         2.226361629718823E-051
   133.944300000000         5.325775230618646E-051
   134.183700000000         8.701879616824454E-051
   134.423100000000         1.192098880248588E-050
   134.662500000000         1.442042667501458E-050
   134.901900000000         1.555161100553736E-050
   135.141300000000         1.465157641693411E-050
   135.380700000000         1.114155479060500E-050
   135.620100000000         4.646547073349284E-051
   135.859500000000        -4.875502132618027E-051
   136.098900000000        -1.701166620496464E-050
   136.338300000000        -3.080043586930452E-050
   136.577700000000        -4.469066937152142E-050
   136.817100000000        -5.657725606091748E-050
   137.056500000000        -6.393402279982364E-050
   137.295900000000        -6.405643548504234E-050
   137.535300000000        -5.441410910744048E-050
   137.774700000000        -3.309644069430816E-050
   138.014100000000         6.850200662622013E-052
   138.253500000000         4.609455999354761E-050
   138.492900000000         1.002466897471329E-049
   138.732300000000         1.579467167786455E-049