  -1.79550000000000         0.000000000000000E+000
  -1.55610000000000         0.000000000000000E+000
  -1.31670000000000         0.000000000000000E+000
  -1.07730000000000         0.000000000000000E+000
 -0.837900000000000         0.000000000000000E+000
 -0.598500000000000         0.000000000000000E+000
 -0.359100000000000         0.000000000000000E+000
 -0.119700000000000         0.000000000000000E+000
  0.119700000000000         0.000000000000000E+000
  0.359100000000000         0.000000000000000E+000
  0.598500000000000         0.000000000000000E+000
  0.837900000000000         0.000000000000000E+000
   1.07730000000000         0.000000000000000E+000
   1.31670000000000         0.000000000000000E+000
   1.55610000000000         0.000000000000000E+000
   1.79550000000000         0.000000000000000E+000
   2.03490000000000         0.000000000000000E+000
   2.27430000000000         0.000000000000000E+000
   2.51370000000000         0.000000000000000E+000
   2.75310000000000         0.000000000000000E+000
   2.99250000000000         0.000000000000000E+000
   3.23190000000000         0.000000000000000E+000
   3.47130000000000         0.000000000000000E+000
   3.71070000000000         0.000000000000000E+000
   3.95010000000000         0.000000000000000E+000
   4.18950000000000         0.000000000000000E+000
   4.42890000000000         0.000000000000000E+000
   4.66830000000000         0.000000000000000E+000
   4.90770000000000         0.000000000000000E+000
   5.14710000000000         0.000000000000000E+000
   5.38650000000000         0.000000000000000E+000
   5.62590000000000         0.000000000000000E+000
   5.86530000000000         0.000000000000000E+000
   6.10470000000000         0.000000000000000E+000
   6.34410000000000         0.000000000000000E+000
   6.58350000000000         0.000000000000000E+000
   6.82290000000000         0.000000000000000E+000
   7.06230000000000         0.000000000000000E+000
   7.30170000000000         0.000000000000000E+000
   7.54110000000000         0.000000000000000E+000
   7.78050000000000         0.000000000000000E+000
   8.01990000000000         0.000000000000000E+000
   8.25930000000000         0.000000000000000E+000
   8.49870000000000         0.000000000000000E+000
   8.73810000000000        -3.229823257332911E-167
   8.97750000000000         3.913307023651079E-161
   9.21690000000000         1.370146494221016E-157
   9.45630000000000        -4.981936206356593E-156
   9.69570000000000        -6.068227730541314E-153
   9.93510000000000        -1.969362374527616E-151
   10.1745000000000         3.293625506339733E-151
   10.4139000000000         1.577251320064668E-148
   10.6533000000000         4.937364390301742E-147
   10.8927000000000         9.112906586146565E-146
   11.1321000000000         1.192975588207932E-144
   11.3715000000000         1.166438380635245E-143
   11.6109000000000         8.336466174770026E-143
   11.8503000000000         3.520439718062107E-142
   12.0897000000000        -8.825437246018889E-142
   12.3291000000000        -3.719058496802597E-140
   12.5685000000000        -4.840312331340234E-139
   12.8079000000000        -4.724779370991223E-138
   13.0473000000000        -3.983072026489917E-137
   13.2867000000000        -3.066847632572763E-136
   13.5261000000000        -2.209621940870004E-135
   13.7655000000000        -1.500999415895823E-134
   14.0049000000000        -9.645575527688801E-134
   14.2443000000000        -5.879355488909675E-133
   14.4837000000000        -3.399149042281429E-132
   14.7231000000000        -1.859424067089446E-131
   14.9625000000000        -9.592198433409640E-131
   15.2019000000000        -4.651219156276214E-130
   15.4413000000000        -2.113351035015945E-129
   15.6807000000000        -8.966726750691478E-129
   15.9201000000000        -3.535486888241780E-128
   16.1595000000000        -1.284960194690495E-127
   16.3989000000000        -4.239407879664874E-127
   16.6383000000000        -1.228778108239157E-126
   16.8777000000000        -2.867128692339775E-126
   17.1171000000000        -3.572572171946300E-126
   17.3565000000000         1.272295179170688E-125
   17.5959000000000         1.319113785682520E-124
   17.8353000000000         7.305387348298639E-124
   18.0747000000000         3.275377207343155E-123
   18.3141000000000         1.300987592158883E-122
   18.5535000000000         4.741855825575125E-122
   18.7929000000000         1.613915015007898E-121
   19.0323000000000         5.180676110748199E-121
   19.2717000000000         1.578005795134620E-120
   19.5111000000000         4.578307772460224E-120
   19.7505000000000         1.268133369493230E-119
   19.9899000000000         3.356924349685126E-119
   20.2293000000000         8.491126789855358E-119
   20.4687000000000         2.049016775596561E-118
   20.7081000000000         4.700173724636501E-118
   20.9475000000000         1.017820315731005E-117
   21.1869000000000         2.053727786567226E-117
   21.4263000000000         3.759907623353914E-117
   21.6657000000000         5.855748663735816E-117
   21.9051000000000         6.135184628408470E-117
   22.1445000000000        -3.675337834246953E-117
   22.3839000000000        -4.848655609982686E-116
   22.6233000000000        -1.946501733895711E-115
   22.8627000000000        -6.037279361672974E-115
   23.1021000000000        -1.639408522481610E-114
   23.3415000000000        -4.058167491393540E-114
   23.5809000000000        -9.296891692558009E-114
   23.8203000000000        -1.977243554857981E-113
   24.0597000000000        -3.879760707428280E-113
   24.2991000000000        -6.893731218997736E-113
   24.5385000000000        -1.059584234749667E-112
   24.7779000000000        -1.224877086062009E-112
   25.0173000000000        -3.107823241657693E-113
   25.2567000000000         3.873371045770679E-112
   25.4961000000000         1.598767175141420E-111
   25.7355000000000         4.449967169471780E-111
   25.9749000000000         1.018570055679444E-110
   26.2143000000000         1.994653289642391E-110
   26.4537000000000         3.279916986214805E-110
   26.6931000000000         4.042884744148945E-110
   26.9325000000000         1.543699577727424E-110
   27.1719000000000        -1.104458893178888E-109
   27.4113000000000        -4.794891020194906E-109
   27.6507000000000        -1.342329239208950E-108
   27.8901000000000        -3.051946561049475E-108
   28.1295000000000        -5.906469690076629E-108
   28.3689000000000        -9.604506467644572E-108
   28.6083000000000        -1.189572072422802E-107
   28.8477000000000        -5.849603891187064E-108
   29.0871000000000         2.470039938198599E-107
   29.3265000000000         1.108668598854156E-106
   29.5659000000000         3.013954472827415E-106
   29.8053000000000         6.497959827119680E-106
   30.0447000000000         1.156736880804943E-105
   30.2841000000000         1.610509625769599E-105
   30.5235000000000         1.230810983332601E-105
   30.7629000000000        -2.008363128945904E-105
   31.0023000000000        -1.246685056703932E-104
   31.2417000000000        -3.819943942235261E-104
   31.4811000000000        -9.177136678005587E-104
   31.7205000000000        -1.881397264265815E-103
   31.9599000000000        -3.341426611776249E-103
   32.1993000000000        -4.989748634157323E-103
   32.4387000000000        -5.478193315782781E-103
   32.6781000000000        -1.137192594519632E-103
   32.9175000000000         1.617010345019062E-102
   33.1569000000000         6.205986148120016E-102
   33.3963000000000         1.626825576953300E-101
   33.6357000000000         3.550247192450400E-101
   33.8751000000000         6.777300072500615E-101
   34.1145000000000         1.138958365882196E-100
   34.3539000000000         1.637939885356171E-100
   34.5933000000000         1.805685674636693E-100
   34.8327000000000         7.244802363067523E-101
   35.0721000000000        -3.498431164399028E-100
   35.3115000000000        -1.425792594277669E-099
   35.5509000000000        -3.685594981640633E-099
   35.7903000000000        -7.819759245050447E-099
   36.0297000000000        -1.445560645370633E-098
   36.2691000000000        -2.352346685636240E-098
   36.5085000000000        -3.288074094698757E-098
   36.7479000000000        -3.577713079952841E-098
   36.9873000000000        -1.681072262289115E-098
   37.2267000000000         5.351985710116423E-098
   37.4661000000000         2.243221154349003E-097
   37.7055000000000         5.659529620658204E-097
   37.9449000000000         1.159363305088085E-096
   38.1843000000000         2.057959733295457E-096
   38.4237000000000         3.198553482873193E-096
   38.6631000000000         4.231311535925434E-096
   38.9025000000000         4.240939262701368E-096
   39.1419000000000         1.356616460546941E-096
   39.3813000000000        -7.681084549484526E-096
   39.6207000000000        -2.778191450801386E-095
   39.8601000000000        -6.512991583816311E-095
   40.0995000000000        -1.253340122763475E-094
   40.3389000000000        -2.088289972896183E-094
   40.5783000000000        -3.019050212043179E-094
   40.8177000000000        -3.618658700377335E-094
   41.0571000000000        -2.960776777363583E-094
   41.2965000000000         6.191271866995097E-095
   41.5359000000000         9.691681194830173E-094
   41.7753000000000         2.761644136203045E-093
   42.0147000000000         5.776521690162961E-093
   42.2541000000000         1.015307512821386E-092
   42.4935000000000         1.544415726450768E-092
   42.7329000000000         1.997946778553044E-092
   42.9723000000000         1.997887502528764E-092
   43.2117000000000         8.556466613377444E-093
   43.4511000000000        -2.497439298920362E-092
   43.6905000000000        -9.465898931816820E-092
   43.9299000000000        -2.149233265664383E-091
   44.1693000000000        -3.930852829565212E-091
   44.4087000000000        -6.150950620509083E-091
   44.6481000000000        -8.228179921045687E-091
   44.8875000000000        -8.834744622988698E-091
   45.1269000000000        -5.569933716133174E-091
   45.3663000000000         5.239185930562894E-091
   45.6057000000000         2.832864931978966E-090
   45.8451000000000         6.843714224154176E-090
   46.0845000000000         1.278100984833401E-089
   46.3239000000000         2.016657295415191E-089
   46.5633000000000         2.712957859044639E-089
   46.8027000000000         2.952819613399988E-089
   47.0421000000000         2.009175106149708E-089
   47.2815000000000        -1.194730523457076E-089
   47.5209000000000        -7.990994759893227E-089
   47.7603000000000        -1.962137611501975E-088
   47.9997000000000        -3.649520204210981E-088
   48.2391000000000        -5.692316178602266E-088
   48.4785000000000        -7.530275829588217E-088
   48.7179000000000        -7.997537012407057E-088
   48.9573000000000        -5.141081703824529E-088
   49.1967000000000         3.797910704207252E-088
   49.4361000000000         2.203056161396138E-087
   49.6755000000000         5.221300117978261E-087
   49.9149000000000         9.448132645530358E-087
   50.1543000000000         1.433230607757951E-086
   50.3937000000000         1.833934116243332E-086
   50.6331000000000         1.850178764519014E-086
   50.8725000000000         1.011466775153868E-086
   51.1119000000000        -1.310898345681716E-086
   51.3513000000000        -5.795680377558661E-086
   51.5907000000000        -1.291374333130568E-085
   51.8301000000000        -2.246664607997088E-085
   52.0695000000000        -3.290074307802368E-085
   52.3089000000000        -4.045472624120613E-085
   52.5483000000000        -3.833985114357532E-085
   52.7877000000000        -1.636087787637168E-085
   53.0271000000000         3.835752251940429E-085
   53.2665000000000         1.386317388612249E-084
   53.5059000000000         2.914555011586516E-084
   53.7453000000000         4.884267682084528E-084
   53.9847000000000         6.923969810847897E-084
   54.2241000000000         8.220523039766095E-084
   54.4635000000000         7.388617888471639E-084
   54.7029000000000         2.445304376258321E-084
   54.9423000000000        -8.987835019707143E-084
   55.1817000000000        -2.910000810047335E-083
   55.4211000000000        -5.876862960997654E-083
   55.6605000000000        -9.580725680192524E-083
   55.8999000000000        -1.326594423143751E-082
   56.1393000000000        -1.539190197038368E-082
   56.3787000000000        -1.345136970907027E-082
   56.6181000000000        -3.996082428514635E-083
   56.8575000000000         1.693254796797837E-082
   57.0969000000000         5.273586478875539E-082
   57.3363000000000         1.043472948019233E-081
   57.5757000000000         1.674040954341576E-081
   57.8151000000000         2.287149391220875E-081
   58.0545000000000         2.627164380385788E-081
   58.2939000000000         2.292775940274094E-081
   58.5333000000000         7.498041744015605E-082
   58.7727000000000        -2.593213823259606E-081
   59.0121000000000        -8.216303688815842E-081
   59.2515000000000        -1.620282589172960E-080
   59.4909000000000        -2.583648207863500E-080
   59.7303000000000        -3.512191929477033E-080
   59.9697000000000        -4.033592365645380E-080
   60.2091000000000        -3.580102006818508E-080
   60.4485000000000        -1.416311582323624E-080
   60.6879000000000         3.247870877418083E-080
   60.9273000000000         1.102433348244955E-079
   61.1667000000000         2.197192568960796E-079
   61.4061000000000         3.508898625817325E-079
   61.6455000000000         4.773727869564670E-079
   61.8849000000000         5.513979778131259E-079
   62.1243000000000         5.018922748201296E-079
   62.3637000000000         2.389430245152338E-079
   62.6031000000000        -3.315652413988695E-079
   62.8425000000000        -1.279699369416959E-078
   63.0819000000000        -2.607979082182525E-078
   63.3213000000000        -4.194814347320288E-078
   63.5607000000000        -5.733183025749378E-078
   63.8001000000000        -6.681038520723851E-078
   64.0395000000000        -6.249065788565176E-078
   64.2789000000000        -3.459183766485643E-078
   64.5183000000000         2.689962927851079E-078
   64.7577000000000         1.292103259372282E-077
   64.9971000000000         2.723140132414733E-077
   65.2365000000000         4.433376532948904E-077
   65.4759000000000         6.107515929263479E-077
   65.7153000000000         7.199990985370403E-077
   65.9547000000000         6.929858057809921E-077
   66.1941000000000         4.344154872800395E-077
   66.4335000000000        -1.519896182116826E-077
   66.6729000000000        -1.135180198239112E-076
   66.9123000000000        -2.516255008620875E-076
   67.1517000000000        -4.179126941054129E-076
   67.3911000000000        -5.840709506546087E-076
   67.6305000000000        -7.014737401788987E-076
   67.8699000000000        -7.008875144868609E-076
   68.1093000000000        -4.978345533616237E-076
   68.3487000000000        -5.872006235962813E-078
   68.5881000000000         8.406596703858438E-076
   68.8275000000000         2.054422579983510E-075
   69.0669000000000         3.555886433308424E-075
   69.3063000000000         5.132927389909772E-075
   69.5457000000000         6.408721404083241E-075
   69.7851000000000         6.830946141246427E-075
   70.0245000000000         5.697725182910923E-075
   70.2639000000000         2.236082454235475E-075
   70.5033000000000        -4.253995782925668E-075
   70.7427000000000        -1.418311885834766E-074
   70.9821000000000        -2.738712428559770E-074
   71.2215000000000        -4.279024819417851E-074
   71.4609000000000        -5.805186440566913E-074
   71.7003000000000        -6.925312167326837E-074
   71.9397000000000        -7.070595459333539E-074
   72.1791000000000        -5.500021130657173E-074
   72.4185000000000        -1.344771376635564E-074
   72.6579000000000         6.286444385271046E-074
   72.8973000000000         1.811414783251632E-073
   73.1367000000000         3.437584991095578E-073
   73.3761000000000         5.436566036253708E-073
   73.6155000000000         7.581202483113528E-073
   73.8549000000000         9.411936783766672E-073
   74.0943000000000         1.015754166855320E-072
   74.3337000000000         8.674910794097190E-073
   74.5731000000000         3.447643991478440E-073
   74.8125000000000        -7.296269240560032E-073
   75.0519000000000        -2.526814480539552E-072
   75.2913000000000        -5.151519487506685E-072
   75.5307000000000        -8.545663448854523E-072
   75.7701000000000        -1.235431382717475E-071
   76.0095000000000        -1.576422443363655E-071
   76.2489000000000        -1.734474449558081E-071
   76.4883000000000        -1.494807754419627E-071
   76.7277000000000        -5.758092849178213E-072
   76.9671000000000         1.339274798435762E-071
   77.2065000000000         4.530260013644339E-071
   77.4459000000000         9.115595199126673E-071
   77.6853000000000         1.487072952674307E-070
   77.9247000000000         2.099934306412677E-070
   78.1641000000000         2.589188393076637E-070
   78.4035000000000         2.693951388643743E-070
   78.6429000000000         2.051111525455890E-070
   78.8823000000000         2.238342517732442E-071
   79.1217000000000        -3.222516278905513E-070
   79.3611000000000        -8.581930511951938E-070
   79.6005000000000        -1.579921916983538E-069
   79.8399000000000        -2.419983683028287E-069
   80.0793000000000        -3.219261337404749E-069
   80.3187000000000        -3.701587761821266E-069
   80.5581000000000        -3.463968205259429E-069
   80.7975000000000        -1.997715368821338E-069
   81.0369000000000         1.241743739451843E-069
   81.2763000000000         6.699694842040458E-069
   81.5157000000000         1.451182377697047E-068
   81.7551000000000         2.422407041564238E-068
   81.9945000000000         3.447275066242433E-068
   82.2339000000000         4.268936210771009E-068
   82.4733000000000         4.493516241147382E-068
   82.7127000000000         3.601032665773402E-068
   82.9521000000000         1.000895885272865E-068
   83.1915000000000        -3.851275783052759E-068
   83.4309000000000        -1.126430444609161E-067
   83.6703000000000        -2.105099803654164E-067
   83.9097000000000        -3.221926404485865E-067
   84.1491000000000        -4.266726650904303E-067
   84.3885000000000        -4.897102202374735E-067
   84.6279000000000        -4.638901438101140E-067
   84.8673000000000        -2.923492524710022E-067
   85.1067000000000         8.227553869464249E-068
   85.3461000000000         7.025152334647373E-067
   85.5855000000000         1.574142169410982E-066
   85.8249000000000         2.639092453881232E-066
   86.0643000000000         3.747056104839499E-066
   86.3037000000000         4.632484576919214E-066
   86.5431000000000         4.906829089258364E-066
   86.7825000000000         4.078284385115114E-066
   87.0219000000000         1.612119730839963E-066
   87.2613000000000        -2.957457963322619E-066
   87.5007000000000        -9.859383210624634E-066
   87.7401000000000        -1.886899188006945E-065
   87.9795000000000        -2.906714414055110E-065
   88.2189000000000        -3.862207443600829E-065
   88.4583000000000        -4.466498595783820E-065
   88.6977000000000        -4.335152197171814E-065
   88.9371000000000        -3.021197672934089E-065
   89.1765000000000        -8.842262151618821E-067
   89.4159000000000         4.771503392020322E-065
   89.6553000000000         1.158015065088613E-064
   89.8947000000000         1.988560075393990E-064
   90.1341000000000         2.857737023946640E-064
   90.3735000000000         3.575023171261589E-064
   90.6129000000000         3.868092240101949E-064
   90.8523000000000         3.399270106303799E-064
   91.0917000000000         1.808172623062676E-064
   91.3311000000000        -1.214060989342853E-064
   91.5705000000000        -5.818025601674576E-064
   91.8099000000000        -1.186328394583231E-063
   92.0493000000000        -1.877625790287651E-063
   92.2887000000000        -2.542760650966990E-063
   92.5281000000000        -3.007021171172896E-063
   92.7675000000000        -3.038844158583068E-063
   93.0069000000000        -2.371228221236962E-063
   93.2463000000000        -7.441710181772221E-064
   93.4857000000000         2.029709875146455E-063
   93.7251000000000         5.978467300718266E-063
   93.9645000000000         1.087130810446026E-062
   94.2039000000000         1.612230210880542E-062
   94.4433000000000         2.072171556016291E-062
   94.6827000000000         2.322673368487861E-062
   94.9221000000000         2.184741927942403E-062
   95.1615000000000         1.466177689551613E-062
   95.4009000000000        -1.713940057519027E-065
   95.6403000000000        -2.312142733265069E-062
   95.8797000000000        -5.418994167758303E-062
   96.1191000000000        -9.069141120929131E-062
   96.3585000000000        -1.274420509875339E-061
   96.5979000000000        -1.563020384312009E-061
   96.8373000000000        -1.663726136560131E-061
   97.0767000000000        -1.449229537357197E-061
   97.3161000000000        -7.923561050238838E-062
   97.5555000000000         4.054519472411911E-062
   97.7949000000000         2.176573787553932E-061
   98.0343000000000         4.444053230095384E-061
   98.2737000000000         6.979433682221609E-061
   98.5131000000000         9.371449477431738E-061
   98.7525000000000         1.101825744643121E-060
   98.9919000000000         1.115739007814716E-060
   99.2313000000000         8.946770918968824E-061
   99.4707000000000         3.605928579204666E-061
   99.7101000000000        -5.381835646423730E-061
   99.9495000000000        -1.801844590656329E-060
   100.188900000000        -3.352019997372230E-060
   100.428300000000        -5.007528316682021E-060
   100.667700000000        -6.469650442712222E-060
   100.907100000000        -7.324984307383156E-060
   101.146500000000        -7.074279150052777E-060
   101.385900000000        -5.194361990530760E-060
   101.625300000000        -1.236818355823758E-060
   101.864700000000         5.038870687137564E-060
   102.104100000000         1.350848424710387E-059
   102.343500000000         2.352364595522431E-059
   102.582900000000         3.378205841077238E-059
   102.822300000000         4.226940457414506E-059
   103.061700000000         4.632075119963166E-059
   103.301100000000         4.284797210259534E-059
   103.540500000000         2.876805983416797E-059
   103.779900000000         1.642626826171839E-060
   104.019300000000        -3.949973633234041E-059
   104.258700000000        -9.323806356532860E-059
   104.498100000000        -1.548702894597072E-058
   104.737500000000        -2.157609298353913E-058
   104.976900000000        -2.631728067040352E-058
   105.216300000000        -2.808507271254014E-058
   105.455700000000        -2.506004570983279E-058
   105.695100000000        -1.550207811680584E-058
   105.934500000000         1.861141919159618E-059
   106.173900000000         2.735352861331776E-058
   106.413300000000         5.983059082122548E-058
   106.652700000000         9.620531405347606E-058
   106.892100000000         1.311360586980883E-057
   107.131500000000         1.570145950100479E-057
   107.370900000000         1.643971363320595E-057
   107.610300000000         1.429998730176155E-057
   107.849700000000         8.332535243573899E-058
   108.089100000000        -2.110741724382459E-058
   108.328500000000        -1.710870505884685E-057
   108.567900000000        -3.589053230778801E-057
   108.807300000000        -5.659110964417594E-057
   109.046700000000        -7.610611254465578E-057
   109.286100000000        -9.012021769000682E-057
   109.525500000000        -9.338158436371047E-057
   109.764900000000        -8.028120366647471E-057
   110.004300000000        -4.576343757990879E-057
   110.243700000000         1.345757095226121E-057
   110.483100000000         9.747057147858426E-057
   110.722500000000         2.017061460148697E-056
   110.961900000000         3.157037776255547E-056
   111.201300000000         4.224410505417598E-056
   111.440700000000         4.985995190250133E-056
   111.680100000000         5.161294268029960E-056
   111.919500000000         4.453897854036783E-056
   112.158900000000         2.599659536138210E-056
   112.398300000000        -5.700150820409194E-057
   112.637700000000        -5.054953311168250E-056
   112.877100000000        -1.061232622733619E-055
   113.116500000000        -1.669542275306689E-055
   113.355900000000        -2.242178167489250E-055
   113.595300000000        -2.658908325227882E-055
   113.834700000000        -2.775625555055100E-055
   114.074100000000        -2.440271869742123E-055
   114.313500000000        -1.516991163047126E-055
   114.552900000000         8.239390297249660E-057
   114.792300000000         2.362186452016876E-055
   115.031700000000         5.206441481191040E-055
   115.271100000000         8.348867452810813E-055
   115.510500000000         1.135699844143304E-054
   115.749900000000         1.363937276659790E-054
   115.989300000000         1.448393872304040E-054
   116.228700000000         1.313372199222969E-054
   116.468100000000         8.901649809818368E-055
   116.707500000000         1.320285138841200E-055
   116.946900000000        -9.685634313272345E-055
   117.186300000000        -2.362483148556651E-054
   117.425700000000        -3.929301401874076E-054
   117.665100000000        -5.469101469984273E-054
   117.904500000000        -6.704766899729993E-054
   118.143900000000        -7.298531649610943E-054
   118.383300000000        -6.885614611973117E-054
   118.622700000000        -5.125928895193088E-054
   118.862100000000        -1.772140652655026E-054
   119.101500000000         3.251121609244571E-054
   119.340900000000         9.766034680569008E-054
   119.580300000000         1.727133870629106E-053
   119.819700000000         2.489926509095836E-053
   120.059100000000         3.141744890620863E-053
   120.298500000000         3.529288917680281E-053
   120.537900000000         3.483111008911151E-053
   120.777300000000         2.839607862464007E-053
   121.016700000000         1.470504459960120E-053
   121.256100000000        -6.822220726258806E-054
   121.495500000000        -3.569707736059002E-053
   121.734900000000        -7.003267367480690E-053
   121.974300000000        -1.063198343545423E-052
   122.213700000000        -1.393844831165372E-052
   122.453100000000        -1.626014087021125E-052
   122.692500000000        -1.684248743935662E-052
   122.931900000000        -1.492671458012365E-052
   123.171300000000        -9.871081106846048E-053
   123.410700000000        -1.298147206054716E-053
   123.650100000000         1.074614351547913E-052
   123.889500000000         2.564285421802281E-052
   124.128900000000         4.208736679121508E-052
   124.368300000000         5.804502346837044E-052
   124.607700000000         7.080684459133642E-052
   124.847100000000         7.717246089685002E-052
   125.086500000000         7.377684581202518E-052
   125.325900000000         5.756053905324108E-052
   125.565300000000         2.636029124986251E-052
   125.804700000000        -2.043000361955325E-052
   126.044100000000        -8.120680430952527E-052
   126.283500000000        -1.516176980200203E-051
   126.522900000000        -2.242590617951331E-051
   126.762300000000        -2.887401468361484E-051
   127.001700000000        -3.322309543220894E-051
   127.241100000000        -3.405767736141146E-051
   127.480500000000        -3.000032492417632E-051
   127.719900000000        -1.993532209247100E-051
   127.959300000000        -3.269516805059134E-052
   128.198700000000         1.979678030683097E-051
   128.438100000000         4.802660391833687E-051
   128.677500000000         7.897706139922012E-051
   128.916900000000         1.089544312517039E-050
   129.156300000000         1.331420889671251E-050
   129.395700000000         1.459397566730523E-050
   129.635100000000         1.415335642556814E-050
   129.874500000000         1.146882841733724E-050
   130.113900000000         6.171713985088595E-051
   130.353300000000        -1.845635065772759E-051
   130.592700000000        -1.232714378822004E-050
   130.832100000000        -2.457009207548118E-050
   131.071500000000        -3.738057196741788E-050
   131.310900000000        -4.908625780181696E-050
   131.550300000000        -5.762307172160137E-050
   131.789700000000        -6.070680756230557E-050
   132.029100000000        -5.609190978635136E-050
   132.268500000000        -4.190764734943411E-050
   132.507900000000        -1.704766087085859E-050
   132.747300000000         1.842634459945304E-050
   132.986700000000         6.292023002783776E-050
   133.226100000000         1.130467745508167E-049
   133.465500000000         1.635381918124596E-049
   133.704900000000         2.073979126246498E-049
   133.944300000000         2.363439698674665E-049
   134.183700000000         2.415709717025386E-049
   134.423100000000         2.148208655897588E-049
   134.662500000000         1.497062949545357E-049
   134.901900000000         4.317804091822290E-050
   135.141300000000        -1.030245565334504E-049
   135.380700000000        -2.811469027371909E-049
   135.620100000000        -4.766530774046632E-049
   135.859500000000        -6.681634156546155E-049
   136.098900000000        -8.283130469533530E-049
   136.338300000000        -9.256855589454277E-049
   136.577700000000        -9.278734322256532E-049
   136.817100000000        -8.055779042919893E-049
   137.056500000000        -5.374942085578035E-049
   137.295900000000        -1.155486685814615E-049
   137.535300000000         4.501172380868748E-049
   137.774700000000         1.127158509324310E-048
   138.014100000000         1.858852883752656E-048
   138.253500000000         2.564548271525452E-048
   138.492900000000         3.143414160207359E-048
   138.732300000000         3.481931011303089E-048