  -1.79550000000000         0.000000000000000E+000
  -1.55610000000000         0.000000000000000E+000
  -1.31670000000000         0.000000000000000E+000
  -1.07730000000000         0.000000000000000E+000
 -0.837900000000000         0.000000000000000E+000
 -0.598500000000000         0.000000000000000E+000
 -0.359100000000000         0.000000000000000E+000
 -0.119700000000000         0.000000000000000E+000
  0.119700000000000         0.000000000000000E+000
  0.359100000000000         0.000000000000000E+000
  0.598500000000000         0.000000000000000E+000
  0.837900000000000         0.000000000000000E+000
   1.07730000000000         0.000000000000000E+000
   1.31670000000000         0.000000000000000E+000
   1.55610000000000         0.000000000000000E+000
   1.79550000000000         0.000000000000000E+000
   2.03490000000000         0.000000000000000E+000
   2.27430000000000         0.000000000000000E+000
   2.51370000000000         0.000000000000000E+000
   2.75310000000000         0.000000000000000E+000
   2.99250000000000         0.000000000000000E+000
   3.23190000000000         0.000000000000000E+000
   3.47130000000000         0.000000000000000E+000
   3.71070000000000         0.000000000000000E+000
   3.95010000000000         0.000000000000000E+000
   4.18950000000000         0.000000000000000E+000
   4.42890000000000         0.000000000000000E+000
   4.66830000000000         0.000000000000000E+000
   4.90770000000000         0.000000000000000E+000
   5.14710000000000         0.000000000000000E+000
   5.38650000000000         0.000000000000000E+000
   5.62590000000000         0.000000000000000E+000
   5.86530000000000         0.000000000000000E+000
   6.10470000000000         0.000000000000000E+000
   6.34410000000000         0.000000000000000E+000
   6.58350000000000         0.000000000000000E+000
   6.82290000000000         0.000000000000000E+000
   7.06230000000000         0.000000000000000E+000
   7.30170000000000         0.000000000000000E+000
   7.54110000000000         0.000000000000000E+000
   7.78050000000000         0.000000000000000E+000
   8.01990000000000         0.000000000000000E+000
   8.25930000000000         0.000000000000000E+000
   8.49870000000000        -5.635474193233206E-166
   8.73810000000000         6.828044567171191E-160
   8.97750000000000         2.389299328265847E-156
   9.21690000000000        -9.170668198152307E-155
   9.45630000000000        -1.057036709617119E-151
   9.69570000000000        -3.224518479572038E-150
   9.93510000000000         1.251330075761938E-149
   10.1745000000000         2.737096686783549E-147
   10.4139000000000         8.065002887404120E-146
   10.6533000000000         1.420497467088577E-144
   10.8927000000000         1.772139239904452E-143
   11.1321000000000         1.634823918574990E-142
   11.3715000000000         1.068336214443155E-141
   11.6109000000000         3.436938072645456E-141
   11.8503000000000        -2.622936843756938E-140
   12.0897000000000        -6.119701500167849E-139
   12.3291000000000        -7.163072798303427E-138
   12.5685000000000        -6.619702084665859E-137
   12.8079000000000        -5.385433919672956E-136
   13.0473000000000        -4.043597264158537E-135
   13.2867000000000        -2.854677655256827E-134
   13.5261000000000        -1.901410976703018E-133
   13.7655000000000        -1.197741445298040E-132
   14.0049000000000        -7.154373550420012E-132
   14.2443000000000        -4.047527792916540E-131
   14.4837000000000        -2.160769184033355E-130
   14.7231000000000        -1.084105628080730E-129
   14.9625000000000        -5.092656935263582E-129
   15.2019000000000        -2.231681243094509E-128
   15.4413000000000        -9.082066409910891E-128
   15.6807000000000        -3.408473567665129E-127
   15.9201000000000        -1.164722730924102E-126
   16.1595000000000        -3.529842740916726E-126
   16.3989000000000        -8.888005166341614E-126
   16.6383000000000        -1.454334220101855E-125
   16.8777000000000         1.627759011309473E-125
   17.1171000000000         2.966370158768499E-124
   17.3565000000000         1.795300399650120E-123
   17.5959000000000         8.365367077626322E-123
   17.8353000000000         3.395796502275724E-122
   18.0747000000000         1.254469409693195E-121
   18.3141000000000         4.305211584362736E-121
   18.5535000000000         1.388256580445755E-120
   18.7929000000000         4.234743889956578E-120
   19.0323000000000         1.227068776239138E-119
   19.2717000000000         3.385593950878668E-119
   19.5111000000000         8.903356876503556E-119
   19.7505000000000         2.230737641836224E-118
   19.9899000000000         5.313708002913051E-118
   20.2293000000000         1.197793726508562E-117
   20.4687000000000         2.532181282412577E-117
   20.7081000000000         4.932395880458613E-117
   20.9475000000000         8.516566541124223E-117
   21.1869000000000         1.169507530226409E-116
   21.4263000000000         6.798903475536742E-117
   21.6657000000000        -3.169307764868258E-116
   21.9051000000000        -1.760520492844485E-115
   22.1445000000000        -6.107006551976655E-115
   22.3839000000000        -1.768421314776855E-114
   22.6233000000000        -4.587389971168208E-114
   22.8627000000000        -1.093311850247636E-113
   23.1021000000000        -2.413228808929900E-113
   23.3415000000000        -4.920343940212096E-113
   23.5809000000000        -9.137330333033451E-113
   23.8203000000000        -1.491759834995661E-112
   24.0597000000000        -1.939290859771186E-112
   24.2991000000000        -1.200684489226195E-112
   24.5385000000000         3.575463678996156E-112
   24.7779000000000         1.883341766433245E-111
   25.0173000000000         5.705677811976698E-111
   25.2567000000000         1.383671399277062E-110
   25.4961000000000         2.861110454648886E-110
   25.7355000000000         5.033004037859014E-110
   25.9749000000000         7.023090572970324E-110
   26.2143000000000         5.394655927787064E-110
   26.4537000000000        -9.113146599411888E-110
   26.6931000000000        -5.691883782757604E-109
   26.9325000000000        -1.760371295667249E-108
   27.1719000000000        -4.242720551141826E-108
   27.4113000000000        -8.615888867390168E-108
   27.6507000000000        -1.477477431833318E-107
   27.8901000000000        -1.997659505186368E-107
   28.1295000000000        -1.471783134634105E-107
   28.3689000000000         2.454658159225172E-107
   28.6083000000000         1.454717811240786E-106
   28.8477000000000         4.275497718141783E-106
   29.0871000000000         9.704094759011252E-106
   29.3265000000000         1.820935778842405E-105
   29.5659000000000         2.754588155711973E-105
   29.8053000000000         2.766250816817670E-105
   30.0447000000000        -9.276908703169772E-106
   30.2841000000000        -1.454261153094471E-104
   30.5235000000000        -4.989282363946459E-104
   30.7629000000000        -1.259643351942741E-103
   31.0023000000000        -2.665062373494983E-103
   31.2417000000000        -4.857475508317918E-103
   31.4811000000000        -7.467225619189722E-103
   31.7205000000000        -8.660361413230527E-103
   31.9599000000000        -3.285376398226143E-103
   32.1993000000000         2.023782201178968E-102
   32.4387000000000         8.426533827761784E-102
   32.6781000000000         2.262390751915831E-101
   32.9175000000000         4.987137501631293E-101
   33.1569000000000         9.549936206277357E-101
   33.3963000000000         1.600343544317147E-100
   33.6357000000000         2.274607544608378E-100
   33.8751000000000         2.416984235636310E-100
   34.1145000000000         6.587263348052782E-101
   34.3539000000000        -5.779481602109096E-100
   34.5933000000000        -2.179200485916934E-099
   34.8327000000000        -5.481724993310063E-099
   35.0721000000000        -1.140518969672838E-098
   35.3115000000000        -2.065615356836114E-098
   35.5509000000000        -3.270432200046990E-098
   35.7903000000000        -4.364997262799987E-098
   36.0297000000000        -4.243435785928502E-098
   36.2691000000000        -5.049760435080839E-099
   36.5085000000000         1.127310799639789E-097
   36.7479000000000         3.814674187065074E-097
   36.9873000000000         8.962145608280330E-097
   37.2267000000000         1.753054290726829E-096
   37.4661000000000         2.980658767099868E-096
   37.7055000000000         4.393109904937525E-096
   37.9449000000000         5.324961058750789E-096
   38.1843000000000         4.222428135403332E-096
   38.4237000000000        -1.881543466810560E-096
   38.6631000000000        -1.785182683589204E-095
   38.9025000000000        -5.049435285740040E-095
   39.1419000000000        -1.073656399400939E-094
   39.3813000000000        -1.930321652868225E-094
   39.6207000000000        -3.009328419143778E-094
   39.8601000000000        -3.987987077837163E-094
   40.0995000000000        -4.063850899716294E-094
   40.3389000000000        -1.671722975886661E-094
   40.5783000000000         5.778016309445958E-094
   40.8177000000000         2.194099861439855E-093
   41.0571000000000         5.098415142997669E-093
   41.2965000000000         9.583709419866099E-093
   41.5359000000000         1.544554465924909E-092
   41.7753000000000         2.132875940268188E-092
   42.0147000000000         2.375885208864159E-092
   42.2541000000000         1.595691920979921E-092
   42.4935000000000        -1.318688700432275E-092
   42.7329000000000        -7.914354392779423E-092
   42.9723000000000        -1.992906181435800E-091
   43.2117000000000        -3.857536348297449E-091
   43.4511000000000        -6.308191937373284E-091
   43.6905000000000        -8.825276243956028E-091
   43.9299000000000        -1.010211743885836E-090
   44.1693000000000        -7.650674776663197E-091
   44.4087000000000         2.492804177096651E-091
   44.6481000000000         2.566051369361851E-090
   44.8875000000000         6.754870343497516E-090
   45.1269000000000         1.316349342417681E-089
   45.3663000000000         2.142704251322176E-089
   45.6057000000000         2.969521676044286E-089
   45.8451000000000         3.361310425891757E-089
   46.0845000000000         2.526972334829839E-089
   46.3239000000000        -7.372885526323349E-090
   46.5633000000000        -7.964055384808767E-089
   46.8027000000000        -2.065010517112941E-088
   47.0421000000000        -3.943758593009433E-088
   47.2815000000000        -6.268034690648526E-088
   47.5209000000000        -8.434685151144304E-088
   47.7603000000000        -9.148889649568679E-088
   47.9997000000000        -6.201339147127768E-088
   48.2391000000000         3.574034002531584E-088
   48.4785000000000         2.391628033057995E-087
   48.7179000000000         5.799301392232607E-087
   48.9573000000000         1.061295870463065E-086
   49.1967000000000         1.621580144618427E-086
   49.4361000000000         2.085028195674911E-086
   49.6755000000000         2.108774740684168E-086
   49.9149000000000         1.146944401691112E-086
   50.1543000000000        -1.530452326854710E-086
   50.3937000000000        -6.708131722541171E-086
   50.6331000000000        -1.491749140396289E-085
   50.8725000000000        -2.588714077505163E-085
   51.1119000000000        -3.773037632792234E-085
   51.3513000000000        -4.594612613876077E-085
   51.5907000000000        -4.248367707974659E-085
   51.8301000000000        -1.537529163670131E-085
   52.0695000000000         5.025292685330653E-085
   52.3089000000000         1.687045911355464E-084
   52.5483000000000         3.465936173204670E-084
   52.7877000000000         5.712454892552376E-084
   53.0271000000000         7.948689592619216E-084
   53.2665000000000         9.168972618752077E-084
   53.5059000000000         7.702964029464955E-084
   53.7453000000000         1.221193094567241E-084
   53.9847000000000        -1.296664279476820E-083
   54.2241000000000        -3.713785962072865E-083
   54.4635000000000        -7.173685328817139E-083
   54.7029000000000        -1.132360608383975E-082
   54.9423000000000        -1.514338911327462E-082
   55.1817000000000        -1.667432370388679E-082
   55.4211000000000        -1.285936520925950E-082
   55.6605000000000         3.253079780676190E-084
   55.8999000000000         2.720636198367716E-082
   56.1393000000000         7.095310680383036E-082
   56.3787000000000         1.311192737350588E-081
   56.6181000000000         2.001896818755561E-081
   56.8575000000000         2.595371473846834E-081
   57.0969000000000         2.758238047149150E-081
   57.3363000000000         1.997016109451147E-081
   57.5757000000000        -3.046388151359320E-082
   57.8151000000000        -4.765000912794120E-081
   58.0545000000000        -1.176715510016700E-080
   58.2939000000000        -2.108765588715666E-080
   58.5333000000000        -3.140764456024204E-080
   58.7727000000000        -3.978324863772957E-080
   59.0121000000000        -4.123774238850969E-080
   59.2515000000000        -2.873959446080460E-080
   59.4909000000000         6.075809315304126E-081
   59.7303000000000         7.103935092625557E-080
   59.9697000000000         1.701013175858088E-079
   60.2091000000000         2.984173162068368E-079
   60.4485000000000         4.362744851628565E-079
   60.6879000000000         5.430382111798833E-079
   60.9273000000000         5.533064075754278E-079
   61.1667000000000         3.785341174934786E-079
   61.4061000000000        -8.179180391311984E-080
   61.6455000000000        -9.152952961294151E-079
   61.8849000000000        -2.155397087986868E-078
   62.1243000000000        -3.724214939184141E-078
   62.3637000000000        -5.366364526067464E-078
   62.6031000000000        -6.588907909288424E-078
   62.8425000000000        -6.632872642960053E-078
   63.0819000000000        -4.511340178143003E-078
   63.3213000000000         8.456567956488149E-079
   63.5607000000000         1.030341768258400E-077
   63.8001000000000         2.407557858607017E-077
   64.0395000000000         4.114137491321005E-077
   64.2789000000000         5.861326722991671E-077
   64.5183000000000         7.122238504111531E-077
   64.7577000000000         7.117660247375547E-077
   64.9971000000000         4.871541278211554E-077
   65.2365000000000        -6.298293111573378E-078
   65.4759000000000        -1.014902091289988E-076
   65.7153000000000        -2.377511558880853E-076
   65.9547000000000        -4.040263317457239E-076
   66.1941000000000        -5.720141117740931E-076
   66.4335000000000        -6.923209488070423E-076
   66.6729000000000        -6.942380846894662E-076
   66.9123000000000        -4.916864740022765E-076
   67.1517000000000         2.249718806376560E-078
   67.3911000000000         8.506972496841076E-076
   67.6305000000000         2.058701041386660E-075
   67.8699000000000         3.532688855130036E-075
   68.1093000000000         5.040964741295292E-075
   68.3487000000000         6.186608429597845E-075
   68.5881000000000         6.407539891497403E-075
   68.8275000000000         5.019876056879331E-075
   69.0669000000000         1.318687684060397E-075
   69.3063000000000        -5.256229937623855E-075
   69.5457000000000        -1.489328439816966E-074
   69.7851000000000        -2.713979489762238E-074
   70.0245000000000        -4.062686949795709E-074
   70.2639000000000        -5.284087949764600E-074
   70.5033000000000        -6.000529097494564E-074
   70.7427000000000        -5.714094397487775E-074
   70.9821000000000        -3.837075425494175E-074
   71.2215000000000         2.469060724250390E-075
   71.4609000000000         7.084613064078073E-074
   71.7003000000000         1.700928795731355E-073
   71.9397000000000         2.993870119260600E-073
   72.1791000000000         4.509804561084621E-073
   72.4185000000000         6.064950052458153E-073
   72.6579000000000         7.322133803840334E-073
   72.8973000000000         7.736548680239554E-073
   73.1367000000000         6.504894185376199E-073
   73.3761000000000         2.541430883350297E-073
   73.6155000000000        -5.477041011863402E-073
   73.8549000000000        -1.893360203395242E-072
   74.0943000000000        -3.887879960348049E-072
   74.3337000000000        -6.533731865452324E-072
   74.5731000000000        -9.625578896802924E-072
   74.8125000000000        -1.261152451721935E-071
   75.0519000000000        -1.443872579114840E-071
   75.2913000000000        -1.342535806204294E-071
   75.5307000000000        -7.232408802785087E-072
   75.7701000000000         6.957308543190752E-072
   76.0095000000000         3.191965126750200E-071
   76.2489000000000         6.939492656259146E-071
   76.4883000000000         1.185314606418844E-070
   76.7277000000000         1.737994411418021E-070
   76.9671000000000         2.226223334469202E-070
   77.2065000000000         2.432895749317878E-070
   77.4459000000000         2.041094001597650E-070
   77.6853000000000         6.516556110537343E-071
   77.9247000000000        -2.156729666592151E-070
   78.1641000000000        -6.708694094901278E-070
   78.4035000000000        -1.304435655336749E-069
   78.6429000000000        -2.066635208347370E-069
   78.8823000000000        -2.824998406968604E-069
   79.1217000000000        -3.337960088133995E-069
   79.3611000000000        -3.241664494076000E-069
   79.6005000000000        -2.064701231224878E-069
   79.8399000000000         7.116111021826075E-070
   80.0793000000000         5.530242166959185E-069
   80.3187000000000         1.256179262166747E-068
   80.5581000000000         2.143749236423448E-068
   80.7975000000000         3.093933440945531E-068
   81.0369000000000         3.870878802260860E-068
   81.2763000000000         4.107626753358959E-068
   81.5157000000000         3.315371594786701E-068
   81.7551000000000         9.359824095710465E-069
   81.9945000000000        -3.545603080201507E-068
   82.2339000000000        -1.041801653521516E-067
   82.4733000000000        -1.949079754786501E-067
   82.7127000000000        -2.979554855403883E-067
   82.9521000000000        -3.929405258874500E-067
   83.1915000000000        -4.468245583872718E-067
   83.4309000000000        -4.141628310910902E-067
   83.6703000000000        -2.410601165031387E-067
   83.9097000000000         1.256733354083863E-067
   84.1491000000000         7.230982897022723E-067
   84.3885000000000         1.550409572636727E-066
   84.6279000000000         2.542572228952929E-066
   84.8673000000000         3.543457289606162E-066
   85.1067000000000         4.285548590294490E-066
   85.3461000000000         4.386265740516528E-066
   85.5855000000000         3.373152815972070E-066
   85.8249000000000         7.505076826013999E-067
   86.0643000000000        -3.882847938534589E-066
   86.3037000000000        -1.066234159159673E-065
   86.5431000000000        -1.924347935562940E-065
   86.7825000000000        -2.857359128348407E-065
   87.0219000000000        -3.670086242980449E-065
   87.2613000000000        -4.069536751129133E-065
   87.5007000000000        -3.677537309827774E-065
   87.7401000000000        -2.073799772050602E-065
   87.9795000000000         1.122309332619443E-065
   88.2189000000000         6.127855795202434E-065
   88.4583000000000         1.283558294921018E-064
   88.6977000000000         2.063443427605706E-064
   88.9371000000000         2.824557437837450E-064
   89.1765000000000         3.362539881656610E-064
   89.4159000000000         3.400176236555777E-064
   89.6553000000000         2.611658016155610E-064
   89.8947000000000         6.740594567606816E-065
   90.1341000000000        -2.650227651377474E-064
   90.3735000000000        -7.401842787046096E-064
   90.6129000000000        -1.329366305345847E-063
   90.8523000000000        -1.958173331970576E-063
   91.0917000000000        -2.497081134269127E-063
   91.3311000000000        -2.759842728385629E-063
   91.5705000000000        -2.514804366503159E-063
   91.8099000000000        -1.514011310800086E-063
   92.0493000000000         4.564902758337087E-064
   92.2887000000000         3.504904360480577E-063
   92.5281000000000         7.545275273880436E-063
   92.7675000000000         1.220398051583074E-062
   93.0069000000000         1.674056461317658E-062
   93.2463000000000         2.001005874237136E-062
   93.4857000000000         2.049953155389405E-062
   93.7251000000000         1.647259645511343E-062
   93.9645000000000         6.249144174191433E-063
   94.2039000000000        -1.136893600242035E-062
   94.4433000000000        -3.654351917530142E-062
   94.6827000000000        -6.777477895117719E-062
   94.9221000000000        -1.013102231081275E-061
   95.1615000000000        -1.307444661532595E-061
   95.4009000000000        -1.470079339951131E-061
   95.6403000000000        -1.389617599564363E-061
   95.8797000000000        -9.479552380631248E-062
   96.1191000000000        -4.347583078664028E-063
   96.3585000000000         1.376780215397808E-061
   96.5979000000000         3.278422354070676E-061
   96.8373000000000         5.499727309276002E-061
   97.0767000000000         7.718698604112251E-061
   97.3161000000000         9.438358844964014E-061
   97.5555000000000         1.000331844732386E-060
   97.7949000000000         8.660568195563951E-061
   98.0343000000000         4.674401989113204E-061
   98.2737000000000        -2.501461411048092E-061
   98.5131000000000        -1.300256744288063E-060
   98.7525000000000        -2.630628606610391E-060
   98.9919000000000        -4.099904088567060E-060
   99.2313000000000        -5.461689556294366E-060
   99.4707000000000        -6.363238027302030E-060
   99.7101000000000        -6.366595328671087E-060
   99.9495000000000        -4.999172616551562E-060
   100.188900000000        -1.837874283904738E-060
   100.428300000000         3.374249346556129E-060
   100.667700000000         1.058738920119962E-059
   100.907100000000         1.929843792859545E-059
   101.146500000000         2.842688736237064E-059
   101.385900000000         3.625093217562469E-059
   101.625300000000         4.044756503229527E-059
   101.864700000000         3.828012870181891E-059
   102.104100000000         2.696710008371927E-059
   102.343500000000         4.244298218178870E-060
   102.582900000000        -3.090199552374743E-059
   102.822300000000        -7.740039910912858E-059
   103.061700000000        -1.312827760455677E-058
   103.301100000000        -1.850758400350468E-058
   103.540500000000        -2.276214195257142E-058
   103.779900000000        -2.445708072484912E-058
   104.019300000000        -2.197774454668409E-058
   104.258700000000        -1.377346642397974E-058
   104.498100000000         1.293936454011744E-059
   104.737500000000         2.351807447301123E-058
   104.976900000000         5.188053056492119E-058
   105.216300000000         8.362627267214208E-058
   105.455700000000         1.139883367273585E-057
   105.695100000000         1.361879434547541E-057
   105.934500000000         1.418396774830541E-057
   106.173900000000         1.218703175676169E-057
   106.413300000000         6.800733776000213E-058
   106.652700000000        -2.519488968240505E-058
   106.892100000000        -1.579451331728924E-057
   107.131500000000        -3.227226202157429E-057
   107.370900000000        -5.021570327317807E-057
   107.610300000000        -6.678708967390725E-057
   107.849700000000        -7.809528188629300E-057
   108.089100000000        -7.947127576857805E-057
   108.328500000000        -6.602177810295689E-057
   108.567900000000        -3.347881831156100E-057
   108.807300000000         2.068619117949585E-057
   109.046700000000         9.598100226772760E-057
   109.286100000000         1.876163967361903E-056
   109.525500000000         2.854837485481214E-056
   109.764900000000         3.736957506082489E-056
   110.004300000000         4.310281838961800E-056
   110.243700000000         4.325767076098942E-056
   110.483100000000         3.528483909921435E-056
   110.722500000000         1.703307467080295E-056
   110.961900000000        -1.266805047720889E-056
   111.201300000000        -5.335464188344684E-056
   111.440700000000        -1.022965390105564E-055
   111.680100000000        -1.540148567905779E-055
   111.919500000000        -2.001037653841858E-055
   112.158900000000        -2.295205258133764E-055
   112.398300000000        -2.294903945585565E-055
   112.637700000000        -1.871210131707390E-055
   112.877100000000        -9.172953435572286E-056
   113.116500000000         6.224444498622974E-056
   113.355900000000         2.720281182696485E-055
   113.595300000000         5.234698552134581E-055
   113.834700000000         7.887843305356742E-055
   114.074100000000         1.025829369759016E-054
   114.313500000000         1.179683334144025E-054
   114.552900000000         1.187191529060671E-054
   114.792300000000         9.848878673462117E-055
   115.031700000000         5.202559141616435E-055
   115.271100000000        -2.343211534083657E-055
   115.510500000000        -1.266317882316061E-054
   115.749900000000        -2.508723020169400E-054
   115.989300000000        -3.829510226508239E-054
   116.228700000000        -5.028331500570928E-054
   116.468100000000        -5.843927014287739E-054
   116.707500000000        -5.975246493315542E-054
   116.946900000000        -5.118054325769561E-054
   117.186300000000        -3.016775719722695E-054
   117.425700000000         4.714198683709112E-055
   117.665100000000         5.306615158832719E-054
   117.904500000000         1.120003922129134E-053
   118.143900000000         1.756482873011640E-053
   118.383300000000         2.349874755013061E-053
   118.622700000000         2.781428867626517E-053
   118.862100000000         2.912938883273231E-053
   119.101500000000         2.602668620564292E-053
   119.340900000000         1.728058231065020E-053
   119.580300000000         2.139544749950012E-054
   119.819700000000        -1.936305832488889E-053
   120.059100000000        -4.611123228316019E-053
   120.298500000000        -7.567685850461356E-053
   120.537900000000        -1.042227606188287E-052
   120.777300000000        -1.266044978878453E-052
   121.016700000000        -1.367284701035018E-052
   121.256100000000        -1.282025606426121E-052
   121.495500000000        -9.528031440139002E-053
   121.734900000000        -3.405136981828181E-053
   121.974300000000         5.622717190044906E-053
   122.213700000000         1.718254696965831E-052
   122.453100000000         3.034853196434703E-052
   122.692500000000         4.358779551877346E-052
   122.931900000000         5.478505184648882E-052
   123.171300000000         6.137071353393470E-052
   123.410700000000         6.056907830601484E-052
   123.650100000000         4.976971775389885E-052
   123.889500000000         2.700642358207847E-052
   124.128900000000        -8.494780114392236E-053
   124.368300000000        -5.576171621949295E-052
   124.607700000000        -1.116025376978426E-051
   124.847100000000        -1.703163399716651E-051
   125.086500000000        -2.236985472934502E-051
   125.325900000000        -2.614434485788839E-051
   125.565300000000        -2.720189338920469E-051
   125.804700000000        -2.440399561378430E-051
   126.044100000000        -1.680979987654137E-051
   126.283500000000        -3.891778430722199E-052
   126.522900000000         1.423825285522623E-051
   126.762300000000         3.662434692110776E-051
   127.001700000000         6.132183039385563E-051
   127.241100000000         8.535566091568473E-051
   127.480500000000         1.048229455996960E-050
   127.719900000000         1.151724070637909E-050
   127.959300000000         1.116773384393565E-050
   128.198700000000         9.009446652721682E-051
   128.438100000000         4.747028161774116E-051
   128.677500000000        -1.697866966915155E-051
   128.916900000000        -1.010203058653065E-050
   129.156300000000        -1.987353165965254E-050
   129.395700000000        -3.001771367170725E-050
   129.635100000000        -3.915226604686683E-050
   129.874500000000        -4.558504350575933E-050
   130.113900000000        -4.746331539327143E-050
   130.353300000000        -4.299525742066669E-050
   130.592700000000        -3.073402604279199E-050
   130.832100000000        -9.902429505180802E-051
   131.071500000000         1.927671548576262E-050
   131.310900000000         5.529124807658703E-050
   131.550300000000         9.514663292665386E-050
   131.789700000000         1.343276322360198E-049
   132.029100000000         1.669686026009583E-049
   132.268500000000         1.862726302259800E-049
   132.507900000000         1.851959855035832E-049
   132.747300000000         1.573810598285094E-049
   132.986700000000         9.828000617308819E-050
   133.226100000000         6.366388308977621E-051
   133.465500000000        -1.157114529824405E-049
   133.704900000000        -2.602172300944069E-049
   133.944300000000        -4.138558490305508E-049
   134.183700000000        -5.579443587360901E-049
   134.423100000000        -6.693925101399281E-049
   134.662500000000        -7.225960229362373E-049
   134.901900000000        -6.922475957256066E-049
   135.141300000000        -5.569435415339233E-049
   135.380700000000        -3.033172681029323E-049
   135.620100000000         6.972032590387052E-050
   135.859500000000         5.471892441912177E-049
   136.098900000000         1.095350449827268E-048
   136.338300000000         1.660804732379710E-048
   136.577700000000         2.172016668200180E-048
   136.817100000000         2.543747418541518E-048
   137.056500000000         2.684618889226614E-048
   137.295900000000         2.507667921753606E-048
   137.535300000000         1.943304455951533E-048
   137.774700000000         9.536006402617466E-049
   138.014100000000        -4.536366440947652E-049
   138.253500000000        -2.212951954707289E-048
   138.492900000000        -4.193668478949009E-048
   138.732300000000        -6.198851329298984E-048