  -1.79550000000000         0.000000000000000E+000
  -1.55610000000000         0.000000000000000E+000
  -1.31670000000000         0.000000000000000E+000
  -1.07730000000000         0.000000000000000E+000
 -0.837900000000000         0.000000000000000E+000
 -0.598500000000000         0.000000000000000E+000
 -0.359100000000000         0.000000000000000E+000
 -0.119700000000000         0.000000000000000E+000
  0.119700000000000         0.000000000000000E+000
  0.359100000000000         0.000000000000000E+000
  0.598500000000000         0.000000000000000E+000
  0.837900000000000         0.000000000000000E+000
   1.07730000000000         0.000000000000000E+000
   1.31670000000000         0.000000000000000E+000
   1.55610000000000         0.000000000000000E+000
   1.79550000000000         0.000000000000000E+000
   2.03490000000000         0.000000000000000E+000
   2.27430000000000         0.000000000000000E+000
   2.51370000000000         0.000000000000000E+000
   2.75310000000000         0.000000000000000E+000
   2.99250000000000         0.000000000000000E+000
   3.23190000000000         0.000000000000000E+000
   3.47130000000000         0.000000000000000E+000
   3.71070000000000         0.000000000000000E+000
   3.95010000000000         0.000000000000000E+000
   4.18950000000000         0.000000000000000E+000
   4.42890000000000         0.000000000000000E+000
   4.66830000000000         0.000000000000000E+000
   4.90770000000000         0.000000000000000E+000
   5.14710000000000         0.000000000000000E+000
   5.38650000000000         0.000000000000000E+000
   5.62590000000000         0.000000000000000E+000
   5.86530000000000         0.000000000000000E+000
   6.10470000000000         0.000000000000000E+000
   6.34410000000000         0.000000000000000E+000
   6.58350000000000         0.000000000000000E+000
   6.82290000000000         0.000000000000000E+000
   7.06230000000000         0.000000000000000E+000
   7.30170000000000         0.000000000000000E+000
   7.54110000000000         0.000000000000000E+000
   7.78050000000000         0.000000000000000E+000
   8.01990000000000         0.000000000000000E+000
   8.25930000000000         0.000000000000000E+000
   8.49870000000000         0.000000000000000E+000
   8.73810000000000         8.513199440918012E-168
   8.97750000000000        -7.303243801286899E-161
   9.21690000000000         7.479312136405196E-158
   9.45630000000000         3.219756317493733E-155
   9.69570000000000         3.340321261752169E-153
   9.93510000000000        -5.000318849052289E-152
   10.1745000000000        -8.253030449047935E-150
   10.4139000000000        -2.947338137756892E-148
   10.6533000000000        -6.183911906193984E-147
   10.8927000000000        -9.102671491931608E-146
   11.1321000000000        -1.008591643009773E-144
   11.3715000000000        -8.654625224211770E-144
   11.6109000000000        -5.733031307902523E-143
   11.8503000000000        -2.770710698093286E-142
   12.0897000000000        -7.278666094703351E-142
   12.3291000000000         2.630629914647312E-141
   12.5685000000000         5.836874596391494E-140
   12.8079000000000         6.611349289420620E-139
   13.0473000000000         7.195206407326168E-138
   13.2867000000000         7.843640979826178E-137
   13.5261000000000         8.003317121439630E-136
   13.7655000000000         7.398919741152935E-135
   14.0049000000000         6.224616750446317E-134
   14.2443000000000         4.797935614503692E-133
   14.4837000000000         3.394032187376842E-132
   14.7231000000000         2.209196974530955E-131
   14.9625000000000         1.329656951924863E-130
   15.2019000000000         7.442877490447518E-130
   15.4413000000000         3.896730177393811E-129
   15.6807000000000         1.917880697012749E-128
   15.9201000000000         8.912121849246354E-128
   16.1595000000000         3.924130228364804E-127
   16.3989000000000         1.642112761568841E-126
   16.6383000000000         6.546803581651789E-126
   16.8777000000000         2.491754137134349E-125
   17.1171000000000         9.068888627806395E-125
   17.3565000000000         3.160508320503439E-124
   17.5959000000000         1.055747556904925E-123
   17.8353000000000         3.382792732347693E-123
   18.0747000000000         1.040097670395681E-122
   18.3141000000000         3.068839038682085E-122
   18.5535000000000         8.685970839800672E-122
   18.7929000000000         2.356356086540338E-121
   19.0323000000000         6.118024763820300E-121
   19.2717000000000         1.516843615859986E-120
   19.5111000000000         3.578649617747841E-120
   19.7505000000000         7.991135624695323E-120
   19.9899000000000         1.674281785881721E-119
   20.2293000000000         3.241705016982527E-119
   20.4687000000000         5.627905042178642E-119
   20.7081000000000         8.132946361025243E-119
   20.9475000000000         7.263313381518746E-119
   21.1869000000000        -8.158013600592758E-119
   21.4263000000000        -6.816289992928278E-118
   21.6657000000000        -2.457105369940209E-117
   21.9051000000000        -7.064963917310032E-117
   22.1445000000000        -1.808996960461018E-116
   22.3839000000000        -4.299452354910617E-116
   22.6233000000000        -9.673140439330444E-116
   22.8627000000000        -2.077377470922347E-115
   23.1021000000000        -4.252987237715555E-115
   23.3415000000000        -8.188210179870963E-115
   23.5809000000000        -1.430055273698201E-114
   23.8203000000000        -2.052257647715464E-114
   24.0597000000000        -1.482247352811100E-114
   24.2991000000000         4.648862657654935E-114
   24.5385000000000         2.952255711951124E-113
   24.7779000000000         1.085676775026368E-112
   25.0173000000000         3.288399702043444E-112
   25.2567000000000         8.879041674601463E-112
   25.4961000000000         2.200570741922748E-111
   25.7355000000000         5.068227693470954E-111
   25.9749000000000         1.089352551415818E-110
   26.2143000000000         2.182093019126946E-110
   26.4537000000000         4.043775259746316E-110
   26.6931000000000         6.817956322288667E-110
   26.9325000000000         1.007707646777803E-109
   27.1719000000000         1.180108124304592E-109
   27.4113000000000         6.470667378529273E-110
   27.6507000000000        -1.783164495272254E-109
   27.8901000000000        -8.245505149954790E-109
   28.1295000000000        -2.178511539057782E-108
   28.3689000000000        -4.506294316555568E-108
   28.6083000000000        -7.582575794059149E-108
   28.8477000000000        -9.561296157096438E-108
   29.0871000000000        -4.660769887429109E-108
   29.3265000000000         2.081716517216505E-107
   29.5659000000000         9.392510266548361E-107
   29.8053000000000         2.594189524897945E-106
   30.0447000000000         5.747481512175594E-106
   30.2841000000000         1.075785080202713E-105
   30.5235000000000         1.673244276587408E-105
   30.7629000000000         1.910894102954907E-105
   31.0023000000000         4.874358947752391E-106
   31.2417000000000        -5.556743477748972E-105
   31.4811000000000        -2.198888278834210E-104
   31.7205000000000        -5.853440792329878E-104
   31.9599000000000        -1.288835450420586E-103
   32.1993000000000        -2.467882364999398E-103
   32.4387000000000        -4.127025023361164E-103
   32.6781000000000        -5.813907803160568E-103
   32.9175000000000        -5.964725124050307E-103
   33.1569000000000        -7.593792475839393E-104
   33.3963000000000         1.759680074357689E-102
   33.6357000000000         6.293743767913336E-102
   33.8751000000000         1.565428427273422E-101
   34.1145000000000         3.253227780143895E-101
   34.3539000000000         5.914993448004438E-101
   34.5933000000000         9.445126016680640E-101
   34.8327000000000         1.281108510735267E-100
   35.0721000000000         1.296180115349556E-100
   35.3115000000000         3.100727839173252E-101
   35.5509000000000        -2.962259214929583E-100
   35.7903000000000        -1.064209678337847E-099
   36.0297000000000        -2.575062049104748E-099
   36.2691000000000        -5.174739985151412E-099
   36.5085000000000        -9.089863942699057E-099
   36.7479000000000        -1.404721007878196E-098
   36.9873000000000        -1.854425604218117E-098
   37.2267000000000        -1.864059629285867E-098
   37.4661000000000        -6.228397386800173E-099
   37.7055000000000         3.299669272100752E-098
   37.9449000000000         1.210837351475184E-097
   38.1843000000000         2.871270679283767E-097
   38.4237000000000         5.610600311006036E-097
   38.6631000000000         9.567840258979344E-097
   38.9025000000000         1.437658201071685E-096
   39.1419000000000         1.856802474855307E-096
   39.3813000000000         1.867486841088826E-096
   39.6207000000000         8.084198129430382E-097
   39.8601000000000        -2.410680662792565E-096
   40.0995000000000        -9.361937092195084E-096
   40.3389000000000        -2.197596219757433E-095
   40.5783000000000        -4.206099870700646E-095
   40.8177000000000        -7.021871992137194E-095
   41.0571000000000        -1.038812750791580E-094
   41.2965000000000        -1.342528656323947E-094
   41.5359000000000        -1.421564476731070E-094
   41.7753000000000        -9.323294604814761E-095
   42.0147000000000         6.634539933911205E-095
   42.2541000000000         4.115469635802380E-094
   42.4935000000000         1.034440600175244E-093
   42.7329000000000         2.030578110405895E-093
   42.9723000000000         3.471673495844497E-093
   43.2117000000000         5.360628235185810E-093
   43.4511000000000         7.564520180883090E-093
   43.6905000000000         9.717305855679390E-093
   43.9299000000000         1.107145961731623E-092
   44.1693000000000         1.024956680317152E-092
   44.4087000000000         4.797772385300906E-093
   44.6481000000000        -9.621273194801907E-093
   44.8875000000000        -4.060333991901463E-092
   45.1269000000000        -1.010881902256993E-091
   45.3663000000000        -2.119448708223872E-091
   45.6057000000000        -4.039100177343432E-091
   45.8451000000000        -7.158256956786388E-091
   46.0845000000000        -1.182878147178198E-090
   46.3239000000000        -1.803910654178967E-090
   46.5633000000000        -2.471729698435200E-090
   46.8027000000000        -2.847319022929119E-090
   47.0421000000000        -2.163700710823830E-090
   47.2815000000000         1.032365052790745E-090
   47.5209000000000         9.138419169528768E-090
   47.7603000000000         2.558927508921656E-089
   47.9997000000000         5.445766968325622E-089
   48.2391000000000         9.901932880121763E-089
   48.4785000000000         1.585179223102914E-088
   48.7179000000000         2.222617760772526E-088
   48.9573000000000         2.604321468918988E-088
   49.1967000000000         2.119516019039499E-088
   49.4361000000000        -2.806287333731973E-089
   49.6755000000000        -6.148585781413407E-088
   49.9149000000000        -1.742389619269299E-087
   50.1543000000000        -3.593930891799779E-087
   50.3937000000000        -6.228640750154030E-087
   50.6331000000000        -9.375691051094508E-087
   50.8725000000000        -1.211772742544858E-086
   51.1119000000000        -1.247863397152976E-086
   51.3513000000000        -6.999910815900029E-087
   51.5907000000000         9.493225587395011E-087
   51.8301000000000         4.356895389125369E-086
   52.0695000000000         1.017479479813193E-085
   52.3089000000000         1.872221725112319E-085
   52.5483000000000         2.940040779052542E-085
   52.7877000000000         3.981181005452066E-085
   53.0271000000000         4.463970085086271E-085
   53.2665000000000         3.452881845071920E-085
   53.5059000000000        -4.499720948223268E-086
   53.7453000000000        -9.017392417415853E-085
   53.9847000000000        -2.402874680777862E-084
   54.2241000000000        -4.645624024371423E-084
   54.4635000000000        -7.505331957040082E-084
   54.7029000000000        -1.042888127989666E-083
   54.9423000000000        -1.218030135220083E-083
   55.1817000000000        -1.059806960558507E-083
   55.4211000000000        -2.486214464950173E-084
   55.6605000000000         1.616017506951067E-083
   55.8999000000000         4.931734601544667E-083
   56.1393000000000         9.916551051296809E-083
   56.3787000000000         1.631293749322305E-082
   56.6181000000000         2.296944085354180E-082
   56.8575000000000         2.734605146191488E-082
   57.0969000000000         2.507217318923522E-082
   57.3363000000000         9.802048727567713E-083
   57.5757000000000        -2.625251179263627E-082
   57.8151000000000        -9.061555289251166E-082
   58.0545000000000        -1.871399041195605E-081
   58.2939000000000        -3.105318163536992E-081
   58.5333000000000        -4.389154568084825E-081
   58.7727000000000        -5.254652506393090E-081
   59.0121000000000        -4.915691243832022E-081
   59.2515000000000        -2.258670623355445E-081
   59.4909000000000         4.044834123116641E-081
   59.7303000000000         1.522519805730329E-080
   59.9697000000000         3.182631881429251E-080
   60.2091000000000         5.280169345897774E-080
   60.4485000000000         7.434112340777663E-080
   60.6879000000000         8.862591603766963E-080
   60.9273000000000         8.293124411202420E-080
   61.1667000000000         3.976347024003164E-080
   61.4061000000000        -6.102164471054095E-080
   61.6455000000000        -2.370380699949760E-079
   61.8849000000000        -4.941987174980775E-079
   62.1243000000000        -8.132850772803957E-079
   62.3637000000000        -1.133364421176589E-078
   62.6031000000000        -1.335397284311928E-078
   62.8425000000000        -1.232411543857194E-078
   63.0819000000000        -5.760309417687923E-079
   63.3213000000000         9.080099525618270E-079
   63.5607000000000         3.442041253504825E-078
   63.8001000000000         7.066664790336582E-078
   64.0395000000000         1.145989465505000E-077
   64.2789000000000         1.572582314223682E-077
   64.5183000000000         1.820304172249804E-077
   64.7577000000000         1.638049465814243E-077
   64.9971000000000         7.046814633539674E-078
   65.2365000000000        -1.317474291760202E-077
   65.4759000000000        -4.676009483072290E-077
   65.7153000000000        -9.360595868458268E-077
   65.9547000000000        -1.488083800117734E-076
   66.1941000000000        -2.002214207227141E-076
   66.4335000000000        -2.264754695724625E-076
   66.6729000000000        -1.965521568476916E-076
   66.9123000000000        -7.239484642091565E-077
   67.1517000000000         1.837853271628597E-076
   67.3911000000000         5.961003250303196E-076
   67.6305000000000         1.155023838843315E-075
   67.8699000000000         1.792342778427408E-075
   68.1093000000000         2.355477273520473E-075
   68.3487000000000         2.589535229716264E-075
   68.5881000000000         2.139692997163021E-075
   68.8275000000000         5.898284755116037E-076
   69.0669000000000        -2.446097901498399E-075
   69.3063000000000        -7.168050142574991E-075
   69.5457000000000        -1.336988486493204E-074
   69.7851000000000        -2.017811753152249E-074
   70.0245000000000        -2.580469346436443E-074
   70.2639000000000        -2.740851425139720E-074
   70.5033000000000        -2.119950758023576E-074
   70.7427000000000        -2.943998634158964E-075
   70.9821000000000         3.097842863190838E-074
   71.2215000000000         8.188195752727597E-074
   71.4609000000000         1.465060785792554E-073
   71.7003000000000         2.144709735054333E-073
   71.9397000000000         2.660816462848707E-073
   72.1791000000000         2.714777717079477E-073
   72.4185000000000         1.924581088853099E-073
   72.6579000000000        -1.153977857632369E-074
   72.8973000000000        -3.720393012085200E-073
   73.1367000000000        -8.942319699155225E-073
   73.3761000000000        -1.534871719862612E-072
   73.6155000000000        -2.178819959705664E-072
   73.8549000000000        -2.620779483979046E-072
   74.0943000000000        -2.562052926811290E-072
   74.3337000000000        -1.634793467699622E-072
   74.5731000000000         5.331546836490762E-073
   74.8125000000000         4.202791961468063E-072
   75.0519000000000         9.356369044065765E-072
   75.2913000000000         1.549150053097687E-071
   75.5307000000000         2.141319012890009E-071
   75.7701000000000         2.508751670560706E-071
   76.0095000000000         2.364866625670482E-071
   76.2489000000000         1.367093673887687E-071
   76.4883000000000        -8.182678756220632E-072
   76.7277000000000        -4.405815487571523E-071
   76.9671000000000        -9.336027407322082E-071
   77.2065000000000        -1.509019843566369E-070
   77.4459000000000        -2.050991146538840E-070
   77.6853000000000        -2.367925665549466E-070
   77.9247000000000        -2.195098641634506E-070
   78.1641000000000        -1.221277094753846E-070
   78.4035000000000         8.513413913139716E-071
   78.6429000000000         4.207876726155730E-070
   78.8823000000000         8.783609851935917E-070
   79.1217000000000         1.410252513956666E-069
   79.3611000000000         1.912188634439043E-069
   79.6005000000000         2.213270771814439E-069
   79.8399000000000         2.078456410073240E-069
   80.0793000000000         1.231480865505168E-069
   80.3187000000000        -5.941156340153053E-070
   80.5581000000000        -3.570963500682457E-069
   80.7975000000000        -7.662009178083886E-069
   81.0369000000000        -1.248384420754017E-068
   81.2763000000000        -1.717363445769312E-068
   81.5157000000000        -2.029964478717414E-068
   81.7551000000000        -1.987021259208517E-068
   81.9945000000000        -1.350556058987240E-068
   82.2339000000000         1.165088799328800E-069
   82.4733000000000         2.583902820341693E-068
   82.7127000000000         6.061149782547704E-068
   82.9521000000000         1.028605636486802E-067
   83.1915000000000         1.461247210505785E-067
   83.4309000000000         1.792721302099178E-067
   83.6703000000000         1.863773395897570E-067
   83.9097000000000         1.478027660286301E-067
   84.1491000000000         4.298389382334494E-068
   84.3885000000000        -1.447117969584962E-067
   84.6279000000000        -4.209902924952198E-067
   84.8673000000000        -7.719583555873824E-067
   85.1067000000000        -1.154957808495309E-066
   85.3461000000000        -1.490969545215119E-066
   85.5855000000000        -1.661545038460174E-066
   85.8249000000000        -1.513917581959964E-066
   86.0643000000000        -8.781401354476830E-067
   86.3037000000000         4.005625713962965E-067
   86.5431000000000         2.412905522718692E-066
   86.7825000000000         5.122130215309339E-066
   87.0219000000000         8.292934141429975E-066
   87.2613000000000         1.142569673811748E-065
   87.5007000000000         1.371550771756647E-065
   87.7401000000000         1.406119372812693E-065
   87.9795000000000         1.115247369096276E-065
   88.2189000000000         3.661224489901309E-066
   88.4583000000000        -9.446843653789255E-066
   88.6977000000000        -2.848307732846232E-065
   88.9371000000000        -5.252213261775638E-065
   89.1765000000000        -7.887576011417261E-065
   89.4159000000000        -1.026714072563789E-064
   89.6553000000000        -1.166964798144895E-064
   89.8947000000000        -1.117000663379286E-064
   90.1341000000000        -7.734801003365959E-065
   90.3735000000000        -3.988370787293736E-066
   90.6129000000000         1.147125347650262E-064
   90.8523000000000         2.783683896119546E-064
   91.0917000000000         4.760439174116595E-064
   91.3311000000000         6.826244681073501E-064
   91.5705000000000         8.563158617568635E-064
   91.8099000000000         9.384728301415124E-064
   92.0493000000000         8.571012225377297E-064
   92.2887000000000         5.353090249001006E-064
   92.5281000000000        -9.440721750730852E-065
   92.7675000000000        -1.069946681033387E-063
   93.0069000000000        -2.374606106045758E-063
   93.2463000000000        -3.910105418912573E-063
   93.4857000000000        -5.472387117244206E-063
   93.7251000000000        -6.736903255671612E-063
   93.9645000000000        -7.261682513612341E-063
   94.2039000000000        -6.517130016070016E-063
   94.4433000000000        -3.950639113358518E-063
   94.6827000000000         9.089242853639645E-064
   94.9221000000000         8.307448529261013E-063
   95.1615000000000         1.809155419563477E-062
   95.4009000000000         2.952433958478370E-062
   95.6403000000000         4.112345832113535E-062
   95.8797000000000         5.056647497557043E-062
   96.1191000000000         5.471808679157955E-062
   96.3585000000000         4.983739621305896E-062
   96.5979000000000         3.201721960084991E-062
   96.8373000000000        -2.112257339932980E-063
   97.0767000000000        -5.441917955026250E-062
   97.3161000000000        -1.241022295351289E-061
   97.5555000000000        -2.064456538824552E-061
   97.7949000000000        -2.917027148997443E-061
   98.0343000000000        -3.643923644084221E-061
   98.2737000000000        -4.033578313575712E-061
   98.5131000000000        -3.829647151684991E-061
   98.7525000000000        -2.757873873100106E-061
   98.9919000000000        -5.702309107091471E-062
   99.2313000000000         2.893359746974548E-061
   99.4707000000000         7.628609618954284E-061
   99.7101000000000         1.338286112637914E-060
   99.9495000000000         1.957560315188518E-060
   100.188900000000         2.524082222477043E-060
   100.428300000000         2.901308821041185E-060
   100.667700000000         2.918206998124970E-060
   100.907100000000         2.383979726583938E-060
   101.146500000000         1.113993378949957E-060
   101.385900000000        -1.032278015724455E-060
   101.625300000000        -4.102289057183338E-060
   101.864700000000        -7.993971160313445E-060
   102.104100000000        -1.239847527991438E-059
   102.343500000000        -1.675229479265163E-059
   102.582900000000        -2.021234759859080E-059
   102.822300000000        -2.167020903310123E-059
   103.061700000000        -1.982265294817715E-059
   103.301100000000        -1.331397547397757E-059
   103.540500000000        -9.602191544560464E-061
   103.779900000000         1.794449057657883E-059
   104.019300000000         4.325422852092914E-059
   104.258700000000         7.356470475486061E-059
   104.498100000000         1.058318790979213E-058
   104.737500000000         1.350985432532916E-058
   104.976900000000         1.544337858135507E-058
   105.216300000000         1.552043446690556E-058
   105.455700000000         1.277962218602228E-058
   105.695100000000         6.288221181374862E-059
   105.934500000000        -4.672088064703567E-059
   106.173900000000        -2.036478375204036E-058
   106.413300000000        -4.031981836822246E-058
   106.652700000000        -6.304854919562574E-058
   106.892100000000        -8.580144210958596E-058
   107.131500000000        -1.044346821531358E-057
   107.370900000000        -1.134651561420861E-057
   107.610300000000        -1.063986348861361E-057
   107.849700000000        -7.640834398131716E-058
   108.089100000000        -1.741532543110714E-058
   108.328500000000         7.442629271736633E-058
   108.567900000000         1.989091141103810E-057
   108.807300000000         3.497841626022691E-057
   109.046700000000         5.128855202338026E-057
   109.286100000000         6.647682583236970E-057
   109.525500000000         7.723645118753282E-057
   109.764900000000         7.942255116773004E-057
   110.004300000000         6.839065113416676E-057
   110.243700000000         3.959323647881123E-057
   110.483100000000        -1.054771891674257E-057
   110.722500000000        -8.351621928488902E-057
   110.961900000000        -1.774076163974864E-056
   111.201300000000        -2.856169109817726E-056
   111.440700000000        -3.957405676810101E-056
   111.680100000000        -4.889951972113973E-056
   111.919500000000        -5.405087182229711E-056
   112.158900000000        -5.208518632098398E-056
   112.398300000000        -3.991287114427495E-056
   112.637700000000        -1.478140180573081E-056
   112.877100000000         2.507024117538120E-056
   113.116500000000         7.962323133552172E-056
   113.355900000000         1.462351098563727E-055
   113.595300000000         2.188660544432292E-055
   113.834700000000         2.875470902253828E-055
   114.074100000000         3.382991219226782E-055
   114.313500000000         3.537281883569950E-055
   114.552900000000         3.145059204395828E-055
   114.792300000000         2.018825925241752E-055
   115.031700000000         1.263743274885251E-057
   115.271100000000        -2.932940403536163E-055
   115.510500000000        -6.740423285028684E-055
   115.749900000000        -1.114596830601102E-054
   115.989300000000        -1.566006758049851E-054
   116.228700000000        -1.954990383329654E-054
   116.468100000000        -2.185627855932314E-054
   116.707500000000        -2.145774275868578E-054
   116.946900000000        -1.719192597726517E-054
   117.186300000000        -8.038493430499745E-055
   117.425700000000         6.640649796399186E-055
   117.665100000000         2.682022121120088E-054
   117.904500000000         5.152013165496194E-054
   118.143900000000         7.854966498566701E-054
   118.383300000000         1.043470963440763E-053
   118.622700000000         1.239841737727017E-053
   118.862100000000         1.314066117291757E-053
   119.101500000000         1.199719171537624E-053
   119.340900000000         8.332124733821430E-054
   119.580300000000         1.658052961523673E-054
   119.819700000000        -8.217225454090732E-054
   120.059100000000        -2.103090119104911E-053
   120.298500000000        -3.591378496887808E-053
   120.537900000000        -5.127656068983148E-053
   120.777300000000        -6.476877605231797E-053
   121.016700000000        -7.334814360146552E-053
   121.256100000000        -7.349485239197395E-053
   121.495500000000        -6.159567243081829E-053
   121.734900000000        -3.450444736416271E-053
   121.974300000000         9.741209401710830E-054
   122.213700000000         7.110158175060474E-053
   122.453100000000         1.467087590342430E-052
   122.692500000000         2.301663282197559E-052
   122.931900000000         3.111419387075294E-052
   123.171300000000         3.754392154602513E-052
   123.410700000000         4.057318386732141E-052
   123.650100000000         3.831073222460147E-052
   123.889500000000         2.894943711381348E-052
   124.128900000000         1.109326287948116E-052
   124.368300000000        -1.585102796836694E-052
   124.607700000000        -5.125522711148249E-052
   124.847100000000        -9.288117980558888E-052
   125.086500000000        -1.365971052560635E-051
   125.325900000000        -1.762857468989949E-051
   125.565300000000        -2.040344166538219E-051
   125.804700000000        -2.106867034695619E-051
   126.044100000000        -1.868085135048047E-051
   126.283500000000        -1.240751366596816E-051
   126.522900000000        -1.702139212661848E-052
   126.762300000000         1.349831287154815E-051
   127.001700000000         3.257601529201758E-051
   127.241100000000         5.406625085280475E-051
   127.480500000000         7.556087495221115E-051
   127.719900000000         9.372281128939189E-051
   127.959300000000         1.044512926078233E-050
   128.198700000000         1.032287858053337E-050
   128.438100000000         8.566365288818041E-051
   128.677500000000         4.821726311632897E-051
   128.916900000000        -1.092863892785073E-051
   129.156300000000        -9.094661081116555E-051
   129.395700000000        -1.875017862389257E-050
   129.635100000000        -2.921099982753808E-050
   129.874500000000        -3.918951320108716E-050
   130.113900000000        -4.699288977852221E-050
   130.353300000000        -5.063132013236416E-050
   130.592700000000        -4.801094171516266E-050
   130.832100000000        -3.721270485831264E-050
   131.071500000000        -1.684578197923350E-050
   131.310900000000         1.355126906958024E-050
   131.550300000000         5.310513901895125E-050
   131.789700000000         9.925781063379808E-050
   132.029100000000         1.475443002887681E-049
   132.268500000000         1.915765842432154E-049
   132.507900000000         2.233087367498138E-049
   132.747300000000         2.336423812748834E-049
   132.986700000000         2.134012744043464E-049
   133.226100000000         1.546588306826183E-049
   133.465500000000         5.234436437748624E-050
   133.704900000000        -9.401299552616257E-050
   133.944300000000        -2.786123995647048E-049
   134.183700000000        -4.880519484938372E-049
   134.423100000000        -7.006540230229412E-049
   134.662500000000        -8.867668948025954E-049
   134.901900000000        -1.010329750332553E-048
   135.141300000000        -1.031900199317341E-048
   135.380700000000        -9.131969128986194E-049
   135.620100000000        -6.230074394396340E-049
   135.859500000000        -1.440636026265715E-049
   136.098900000000         5.197844909430431E-049
   136.338300000000         1.337028266135942E-048
   136.577700000000         2.243741591708743E-048
   136.817100000000         3.141869593199444E-048
   137.056500000000         3.901808524968182E-048
   137.295900000000         4.370310601954751E-048
   137.535300000000         4.384323604480171E-048
   137.774700000000         3.790728516530562E-048
   138.014100000000         2.471091212413819E-048
   138.253500000000         3.695534778442333E-049
   138.492900000000        -2.479050109765065E-048
   138.732300000000        -5.924717817024031E-048