  -1.79550000000000         0.000000000000000E+000
  -1.55610000000000         0.000000000000000E+000
  -1.31670000000000         0.000000000000000E+000
  -1.07730000000000         0.000000000000000E+000
 -0.837900000000000         0.000000000000000E+000
 -0.598500000000000         0.000000000000000E+000
 -0.359100000000000         0.000000000000000E+000
 -0.119700000000000         0.000000000000000E+000
  0.119700000000000         0.000000000000000E+000
  0.359100000000000         0.000000000000000E+000
  0.598500000000000         0.000000000000000E+000
  0.837900000000000         0.000000000000000E+000
   1.07730000000000         0.000000000000000E+000
   1.31670000000000         0.000000000000000E+000
   1.55610000000000         0.000000000000000E+000
   1.79550000000000         0.000000000000000E+000
   2.03490000000000         0.000000000000000E+000
   2.27430000000000         0.000000000000000E+000
   2.51370000000000         0.000000000000000E+000
   2.75310000000000         0.000000000000000E+000
   2.99250000000000         0.000000000000000E+000
   3.23190000000000         0.000000000000000E+000
   3.47130000000000         0.000000000000000E+000
   3.71070000000000         0.000000000000000E+000
   3.95010000000000         0.000000000000000E+000
   4.18950000000000         0.000000000000000E+000
   4.42890000000000         0.000000000000000E+000
   4.66830000000000         0.000000000000000E+000
   4.90770000000000         0.000000000000000E+000
   5.14710000000000         0.000000000000000E+000
   5.38650000000000         0.000000000000000E+000
   5.62590000000000         0.000000000000000E+000
   5.86530000000000         0.000000000000000E+000
   6.10470000000000         0.000000000000000E+000
   6.34410000000000         0.000000000000000E+000
   6.58350000000000         0.000000000000000E+000
   6.82290000000000         0.000000000000000E+000
   7.06230000000000         0.000000000000000E+000
   7.30170000000000         0.000000000000000E+000
   7.54110000000000         0.000000000000000E+000
   7.78050000000000         0.000000000000000E+000
   8.01990000000000         0.000000000000000E+000
   8.25930000000000         0.000000000000000E+000
   8.49870000000000        -4.594658574455471E-168
   8.73810000000000         5.128541777832333E-162
   8.97750000000000        -6.323324148790801E-159
   9.21690000000000        -5.944744755104493E-156
   9.45630000000000        -2.330475801785575E-155
   9.69570000000000        -1.153855019006967E-152
   9.93510000000000        -6.136995442695423E-151
   10.1745000000000        -9.383591742097586E-150
   10.4139000000000         1.218399002939164E-148
   10.6533000000000         8.552307838187886E-147
   10.8927000000000         2.099449865797807E-145
   11.1321000000000         3.430718715741206E-144
   11.3715000000000         4.247526567600130E-143
   11.6109000000000         4.179341692090783E-142
   11.8503000000000         3.301971027322316E-141
   12.0897000000000         2.025889778626684E-140
   12.3291000000000         8.140086980763921E-140
   12.5685000000000        -4.134727797154450E-140
   12.8079000000000        -4.763198650200060E-138
   13.0473000000000        -5.820654973407103E-137
   13.2867000000000        -5.022974823385438E-136
   13.5261000000000        -3.594957110135218E-135
   13.7655000000000        -2.253458110995800E-134
   14.0049000000000        -1.267542085676493E-133
   14.2443000000000        -6.471490192549343E-133
   14.4837000000000        -3.013093152535098E-132
   14.7231000000000        -1.278581503472636E-131
   14.9625000000000        -4.909783101214802E-131
   15.2019000000000        -1.674757479836561E-130
   15.4413000000000        -4.845329534967726E-130
   15.6807000000000        -1.025850408623392E-129
   15.9201000000000        -3.217880808924080E-130
   16.1595000000000         1.220354513107252E-128
   16.3989000000000         8.956682748381488E-128
   16.6383000000000         4.543788765040079E-127
   16.8777000000000         1.932515894173357E-126
   17.1171000000000         7.285054600749420E-126
   17.3565000000000         2.486776931323182E-125
   17.5959000000000         7.739346777033817E-125
   17.8353000000000         2.188677253093445E-124
   18.0747000000000         5.534216867494699E-124
   18.3141000000000         1.198136181436514E-123
   18.5535000000000         1.934493836174383E-123
   18.7929000000000         6.596479472156154E-124
   19.0323000000000        -1.205596337315326E-122
   19.2717000000000        -6.967724361867308E-122
   19.5111000000000        -2.762334614142184E-121
   19.7505000000000        -9.260369716015739E-121
   19.9899000000000        -2.791400368511099E-120
   20.2293000000000        -7.773335715718957E-120
   20.4687000000000        -2.029475701353466E-119
   20.7081000000000        -5.013934113406340E-119
   20.9475000000000        -1.179779983093283E-118
   21.1869000000000        -2.656426366892085E-118
   21.4263000000000        -5.741397998036851E-118
   21.6657000000000        -1.192146146157920E-117
   21.9051000000000        -2.370765930931611E-117
   22.1445000000000        -4.467857029235805E-117
   22.3839000000000        -7.772004988557475E-117
   22.6233000000000        -1.165828021166507E-116
   22.8627000000000        -1.168978790326583E-116
   23.1021000000000         8.875356627439929E-117
   23.3415000000000         1.013830652314265E-115
   23.5809000000000         4.051693050582031E-115
   23.8203000000000         1.264668458332946E-114
   24.0597000000000         3.463959951305833E-114
   24.2991000000000         8.649952199136703E-114
   24.5385000000000         1.999830974833211E-113
   24.7779000000000         4.305070825885722E-113
   25.0173000000000         8.627542174681610E-113
   25.2567000000000         1.600514404087020E-112
   25.4961000000000         2.711887331578375E-112
   25.7355000000000         4.076618017966012E-112
   25.9749000000000         5.054180494413253E-112
   26.2143000000000         3.877116097209913E-112
   26.4537000000000        -3.286230992514946E-112
   26.6931000000000        -2.349802989707487E-111
   26.9325000000000        -6.800231252009050E-111
   27.1719000000000        -1.519920486097042E-110
   27.4113000000000        -2.917376036088904E-110
   27.6507000000000        -4.978329725394280E-110
   27.8901000000000        -7.654186282287480E-110
   28.1295000000000        -1.067490693599623E-109
   28.3689000000000        -1.365037551036019E-109
   28.6083000000000        -1.649642735678342E-109
   28.8477000000000        -2.004617491371725E-109
   29.0871000000000        -2.551324107767093E-109
   29.3265000000000        -2.834780909728253E-109
   29.5659000000000         4.368136333708827E-110
   29.8053000000000         1.941572163602958E-108
   30.0447000000000         8.814892078995579E-108
   30.2841000000000         2.857991907769115E-107
   30.5235000000000         7.684643458984018E-107
   30.7629000000000         1.791105619395570E-106
   31.0023000000000         3.658851820332003E-106
   31.2417000000000         6.460372204040976E-106
   31.4811000000000         9.286709264769748E-106
   31.7205000000000         8.430911815670527E-106
   31.9599000000000        -6.124375649366608E-106
   32.1993000000000        -5.653652061105578E-105
   32.4387000000000        -1.848878796955095E-104
   32.6781000000000        -4.595406017025763E-104
   32.9175000000000        -9.696513622134315E-104
   33.1569000000000        -1.783808834564069E-103
   33.3963000000000        -2.826258175136348E-103
   33.6357000000000        -3.593810695980654E-103
   33.8751000000000        -2.609066197174790E-103
   34.1145000000000         3.486581827475254E-103
   34.3539000000000         2.118117628811401E-102
   34.5933000000000         6.130518448325482E-102
   34.8327000000000         1.390227885402168E-101
   35.0721000000000         2.698882492115204E-101
   35.3115000000000         4.568079495176242E-101
   35.5509000000000         6.595434155974324E-101
   35.7903000000000         7.355583131505357E-101
   36.0297000000000         3.416843445235289E-101
   36.2691000000000        -1.203182746104579E-100
   36.5085000000000        -5.061892272812111E-100
   36.7479000000000        -1.292637034132668E-099
   36.9873000000000        -2.673765586935271E-099
   37.2267000000000        -4.765169986868021E-099
   37.4661000000000        -7.358022259493641E-099
   37.7055000000000        -9.443964406135159E-099
   37.9449000000000        -8.432704764858539E-099
   38.1843000000000         9.336190999524287E-100
   38.4237000000000         2.773623144807853E-098
   38.6631000000000         8.539888431671614E-098
   38.9025000000000         1.900493487111746E-097
   39.1419000000000         3.540236372764136E-097
   39.3813000000000         5.704576254232553E-097
   39.6207000000000         7.840010572122233E-097
   39.8601000000000         8.435868991183188E-097
   40.0995000000000         4.382965395395150E-097
   40.3389000000000        -9.697760339106266E-097
   40.5783000000000        -4.176925553087276E-096
   40.8177000000000        -1.015472700203477E-095
   41.0571000000000        -1.971970868102063E-095
   41.2965000000000        -3.276732595004044E-095
   41.5359000000000        -4.685583411810441E-095
   41.7753000000000        -5.499107109205228E-095
   42.0147000000000        -4.271827681298257E-095
   42.2541000000000         1.479751531538470E-095
   42.4935000000000         1.539930771152722E-094
   42.7329000000000         4.191823032777542E-094
   42.9723000000000         8.487417349009640E-094
   43.2117000000000         1.444389965136973E-093
   43.4511000000000         2.116559188973407E-093
   43.6905000000000         2.602342408870357E-093
   43.9299000000000         2.362788638558244E-093
   44.1693000000000         4.870370957494369E-094
   44.4087000000000        -4.335288819513738E-093
   44.6481000000000        -1.366557220277714E-092
   44.8875000000000        -2.883317761420208E-092
   45.1269000000000        -4.992642814755037E-092
   45.3663000000000        -7.409069680082511E-092
   45.6057000000000        -9.311031391336633E-092
   45.8451000000000        -9.059037357436911E-092
   46.0845000000000        -3.966110488965843E-092
   46.3239000000000         9.697671807226671E-092
   46.5633000000000         3.617617188417208E-091
   46.8027000000000         7.878789945053031E-091
   47.0421000000000         1.371725247681168E-090
   47.2815000000000         2.029813941262496E-090
   47.5209000000000         2.542475812870698E-090
   47.7603000000000         2.496005256700713E-090
   47.9997000000000         1.249434335491894E-090
   48.2391000000000        -2.029196181247886E-090
   48.4785000000000        -8.193797033440071E-090
   48.7179000000000        -1.774653630283085E-089
   48.9573000000000        -3.020446025395393E-089
   49.1967000000000        -4.321486042650854E-089
   49.4361000000000        -5.156014876417699E-089
   49.6755000000000        -4.640763699122940E-089
   49.9149000000000        -1.544411980709543E-089
   50.1543000000000         5.517249543986891E-089
   50.3937000000000         1.759498484558077E-088
   50.6331000000000         3.453905520807483E-088
   50.8725000000000         5.374968844875957E-088
   51.1119000000000         6.873323600745854E-088
   51.3513000000000         6.796656676521656E-088
   51.5907000000000         3.499668575775642E-088
   51.8301000000000        -4.884944324294145E-088
   52.0695000000000        -1.974969288744378E-087
   52.3089000000000        -4.074920334119349E-087
   52.5483000000000        -6.395413630750789E-087
   52.7877000000000        -7.968250161189502E-087
   53.0271000000000        -7.073933597103748E-087
   53.2665000000000        -1.245122820235724E-087
   53.5059000000000         1.233861615170657E-086
   53.7453000000000         3.579921141240192E-086
   53.9847000000000         6.860037413402966E-086
   54.2241000000000         1.045821295130126E-085
   54.4635000000000         1.282708826812985E-085
   54.7029000000000         1.114273878841357E-085
   54.9423000000000         1.180005066748135E-086
   55.1817000000000        -2.227238855010085E-085
   55.4211000000000        -6.402520906680245E-085
   55.6605000000000        -1.256593493334828E-084
   55.8999000000000        -2.009149538311854E-084
   56.1393000000000        -2.693948825784400E-084
   56.3787000000000        -2.895524288253768E-084
   56.6181000000000        -1.933387519052599E-084
   56.8575000000000         1.132186464380533E-084
   57.0969000000000         7.371457799093122E-084
   57.3363000000000         1.765410659046709E-083
   57.5757000000000         3.203741300586411E-083
   57.8151000000000         4.883125398212547E-083
   58.0545000000000         6.338905213599034E-083
   58.2939000000000         6.684112605995982E-083
   58.5333000000000         4.523905046228889E-083
   58.7727000000000        -2.009948067417884E-083
   59.0121000000000        -1.499263025330803E-082
   59.2515000000000        -3.607455800727761E-082
   59.4909000000000        -6.536120845207547E-082
   59.7303000000000        -9.975056670557547E-082
   59.9697000000000        -1.308338573691344E-081
   60.2091000000000        -1.427418328393635E-081
   60.4485000000000        -1.107198878602022E-081
   60.6879000000000        -1.707561729108661E-083
   60.9273000000000         2.213177041722966E-081
   61.1667000000000         5.891866576576372E-081
   61.4061000000000         1.108735685264974E-080
   61.6455000000000         1.736605738048212E-080
   61.8849000000000         2.346285556541726E-080
   62.1243000000000         2.694074374071777E-080
   62.3637000000000         2.395358391237649E-080
   62.6031000000000         9.294826725348108E-081
   62.8425000000000        -2.301849558705330E-080
   63.0819000000000        -7.833886474905250E-080
   63.3213000000000        -1.588995475681230E-079
   63.5607000000000        -2.601306119948051E-079
   63.8001000000000        -3.659812097645836E-079
   64.0395000000000        -4.439741147632838E-079
   64.2789000000000        -4.414551748009996E-079
   64.5183000000000        -2.853816538700274E-079
   64.7577000000000         1.111551022971034E-079
   64.9971000000000         8.319684921366314E-079
   65.2365000000000         1.926968916879050E-078
   65.4759000000000         3.365784193284052E-078
   65.7153000000000         4.977759790028176E-078
   65.9547000000000         6.386415952956876E-078
   66.1941000000000         6.955039784792080E-078
   66.4335000000000         5.770411629702646E-078
   66.6729000000000         1.701782608382967E-078
   66.9123000000000        -6.421275976497290E-078
   67.1517000000000        -1.947062770167879E-077
   67.3911000000000        -3.749633132246178E-077
   67.6305000000000        -5.903203048109378E-077
   67.8699000000000        -8.030699577267371E-077
   68.1093000000000        -9.453394144345287E-077
   68.3487000000000        -9.155220550984805E-077
   68.5881000000000        -5.821678637910123E-077
   68.8275000000000         1.999844263378471E-077
   69.0669000000000         1.557191324096961E-076
   69.3063000000000         3.543932073387647E-076
   69.5457000000000         6.070539869582759E-076
   69.7851000000000         8.817683746616250E-076
   70.0245000000000         1.115288282438495E-075
   70.2639000000000         1.207499955714978E-075
   70.5033000000000         1.022379248135947E-075
   70.7427000000000         4.000145865239664E-076
   70.9821000000000        -8.155801585264464E-076
   71.2215000000000        -2.729215196857366E-075
   71.4609000000000        -5.327068806055960E-075
   71.7003000000000        -8.393398764486445E-075
   71.9397000000000        -1.142332996003565E-074
   72.1791000000000        -1.355311155196232E-074
   72.4185000000000        -1.353937784038363E-074
   72.6579000000000        -9.827395959458181E-075
   72.8973000000000        -7.515849369413760E-076
   73.1367000000000         1.509460003227284E-074
   73.3761000000000         3.830263595883961E-074
   73.6155000000000         6.792824708312795E-074
   73.8549000000000         1.006853229780800E-073
   74.0943000000000         1.302082687917602E-073
   74.3337000000000         1.466192056486789E-073
   74.5731000000000         1.367106581558598E-073
   74.8125000000000         8.509586920448776E-074
   75.0519000000000        -2.334313574724711E-074
   75.2913000000000        -1.994983478582404E-073
   75.5307000000000        -4.446020221612120E-073
   75.7701000000000        -7.437320693484142E-073
   76.0095000000000        -1.059181972338041E-072
   76.2489000000000        -1.325206043841881E-072
   76.4883000000000        -1.446214322624756E-072
   76.7277000000000        -1.300886748420827E-072
   76.9671000000000        -7.547183755084221E-073
   77.2065000000000         3.170035935145490E-073
   77.4459000000000         1.995029024549393E-072
   77.6853000000000         4.272081367150341E-072
   77.9247000000000         7.003047355039003E-072
   78.1641000000000         9.856957266300388E-072
   78.4035000000000         1.228177061711621E-071
   78.6429000000000         1.349586725869879E-071
   78.8823000000000         1.252160345383267E-071
   79.1217000000000         8.275463952807277E-072
   79.3611000000000        -2.744897917119738E-073
   79.6005000000000        -1.388037246408073E-071
   79.8399000000000        -3.272233043471687E-071
   80.0793000000000        -5.607225294375314E-071
   80.3187000000000        -8.194711602888616E-071
   80.5581000000000        -1.067994437086252E-070
   80.7975000000000        -1.253045527274103E-070
   81.0369000000000        -1.303145681719165E-070
   81.2763000000000        -1.130586656594450E-070
   81.5157000000000        -6.367997521136139E-071
   81.7551000000000         2.778505958750559E-071
   81.9945000000000         1.698580493895089E-070
   82.2339000000000         3.673510284680459E-070
   82.4733000000000         6.182187826200669E-070
   82.7127000000000         9.093983410697196E-070
   82.9521000000000         1.211616312225532E-069
   83.1915000000000         1.473405600261436E-069
   83.4309000000000         1.615050975018874E-069
   83.6703000000000         1.523935060933998E-069
   83.9097000000000         1.053793382339885E-069
   84.1491000000000         3.162706807664360E-071
   84.3885000000000        -1.722764748104156E-069
   84.6279000000000        -4.358911042797454E-069
   84.8673000000000        -7.934077205867456E-069
   85.1067000000000        -1.232488158866778E-068
   85.3461000000000        -1.711425080822521E-068
   85.5855000000000        -2.146477021173199E-068
   85.8249000000000        -2.400247740417385E-068
   86.0643000000000        -2.275160137011193E-068
   86.3037000000000        -1.517857523984203E-068
   86.5431000000000         1.581242485007327E-069
   86.7825000000000         3.023470194294649E-068
   87.0219000000000         7.251205929075850E-068
   87.2613000000000         1.279895745979731E-067
   87.5007000000000         1.926007709588952E-067
   87.7401000000000         2.570021548840276E-067
   87.9795000000000         3.051186329654071E-067
   88.2189000000000         3.133801494948057E-067
   88.4583000000000         2.513431557955593E-067
   88.6977000000000         8.451703453366814E-068
   88.9371000000000        -2.197852194134489E-067
   89.1765000000000        -6.829677923467118E-067
   89.4159000000000        -1.301958547725890E-066
   89.6553000000000        -2.033107338482026E-066
   89.8947000000000        -2.775267298894814E-066
   90.1341000000000        -3.355760340618493E-066
   90.3735000000000        -3.524667599792573E-066
   90.6129000000000        -2.964399472619518E-066
   90.8523000000000        -1.322261445216967E-066
   91.0917000000000         1.726933509720904E-066
   91.3311000000000         6.383994848501582E-066
   91.5705000000000         1.259570878134797E-065
   91.8099000000000         1.990284709162792E-065
   92.0493000000000         2.728831559832914E-065
   92.2887000000000         3.306209165051114E-065
   92.5281000000000         3.483374875350124E-065
   92.7675000000000         2.963407828683022E-065
   93.0069000000000         1.424991698581287E-065
   93.2463000000000        -1.417478859324878E-065
   93.4857000000000        -5.724905382371549E-065
   93.7251000000000        -1.141876158934995E-064
   93.9645000000000        -1.805173667841016E-064
   94.2039000000000        -2.468495509344701E-064
   94.4433000000000        -2.980418373056789E-064
   94.6827000000000        -3.131776950389575E-064
   94.9221000000000        -2.668560994769527E-064
   95.1615000000000        -1.322753280994661E-064
   95.4009000000000         1.135308851252577E-064
   95.6403000000000         4.822267751220626E-064
   95.8797000000000         9.648596153161636E-064
   96.1191000000000         1.521717219191533E-063
   96.3585000000000         2.073153518304453E-063
   96.5979000000000         2.493991806638612E-063
   96.8373000000000         2.614808051498406E-063
   97.0767000000000         2.233745767134369E-063
   97.3161000000000         1.142249580035304E-063
   97.5555000000000        -8.330561835549874E-064
   97.7949000000000        -3.772415660037339E-063
   98.0343000000000        -7.592546377438127E-063
   98.2737000000000        -1.197216324942092E-062
   98.5131000000000        -1.628730126457440E-062
   98.7525000000000        -1.957584890594788E-062
   98.9919000000000        -2.055506388013693E-062
   99.2313000000000        -1.771745730300232E-062
   99.4707000000000        -9.527480013503577E-063
   99.7101000000000         5.267888641307906E-063
   99.9495000000000         2.721867763974358E-062
   100.188900000000         5.567104321475767E-062
   100.428300000000         8.824816888487040E-062
   100.667700000000         1.204121592518708E-061
   100.907100000000         1.452418996902964E-061
   101.146500000000         1.535882288363455E-061
   101.385900000000         1.347743833080534E-061
   101.625300000000         7.798490646943593E-062
   101.864700000000        -2.558102020295021E-062
   102.104100000000        -1.798335607404387E-061
   102.343500000000        -3.804051251315620E-061
   102.582900000000        -6.111777165378482E-061
   102.822300000000        -8.413870646852764E-061
   103.061700000000        -1.024189081503436E-060
   103.301100000000        -1.097731714687142E-060
   103.540500000000        -9.898023432480143E-061
   103.779900000000        -6.269465827392278E-061
   104.019300000000         5.148698084512620E-062
   104.258700000000         1.074674971587369E-060
   104.498100000000         2.418389585822596E-060
   104.737500000000         3.982512590275763E-060
   104.976900000000         5.572154296264205E-060
   105.216300000000         6.887901817059757E-060
   105.455700000000         7.531672093510076E-060
   105.695100000000         7.034797502044765E-060
   105.934500000000         4.913906798553115E-060
   106.173900000000         7.574978222722942E-061
   106.413300000000        -5.658427672434686E-060
   106.652700000000        -1.423370605636894E-059
   106.892100000000        -2.440233522764509E-059
   107.131500000000        -3.501052429828183E-059
   107.370900000000        -4.424742970528379E-059
   107.610300000000        -4.966741202518052E-059
   107.849700000000        -4.834395172530040E-059
   108.089100000000        -3.718968155985750E-059
   108.328500000000        -1.346209737317766E-059
   108.567900000000         2.455114543565102E-059
   108.807300000000         7.671010259422395E-059
   109.046700000000         1.401523015983847E-058
   109.286100000000         2.085141749517157E-058
   109.525500000000         2.714329732991966E-058
   109.764900000000         3.145549083318599E-058
   110.004300000000         3.202876808800192E-058
   110.243700000000         2.695097456809265E-058
   110.483100000000         1.443717157368965E-058
   110.722500000000        -6.781227567060279E-059
   110.961900000000        -3.697864036248010E-058
   111.201300000000        -7.491480987113010E-058
   111.440700000000        -1.173467447710921E-057
   111.680100000000        -1.586771291467937E-057
   111.919500000000        -1.908665119310763E-057
   112.158900000000        -2.037474938737631E-057
   112.398300000000        -1.858700530621040E-057
   112.637700000000        -1.259706392693070E-057
   112.877100000000        -1.508783992466841E-058
   113.116500000000         1.507582836227103E-057
   113.355900000000         3.675449625308733E-057
   113.595300000000         6.202675508716857E-057
   113.834700000000         8.805534597663413E-057
   114.074100000000         1.105564655494244E-056
   114.313500000000         1.238970105504461E-056
   114.552900000000         1.214755521875322E-056
   114.792300000000         9.644815193252759E-057
   115.031700000000         4.282669767600746E-057
   115.271100000000        -4.307584441970022E-057
   115.510500000000        -1.609514496493198E-056
   115.749900000000        -3.047402032387865E-056
   115.989300000000        -4.610905924644149E-056
   116.228700000000        -6.084037394377412E-056
   116.468100000000        -7.168895648512622E-056
   116.707500000000        -7.500763547248621E-056
   116.946900000000        -6.681576305118801E-056
   117.186300000000        -4.334103914003109E-056
   117.425700000000        -1.766229560212884E-057
   117.665100000000         5.885799677540865E-056
   117.904500000000         1.366187157667068E-055
   118.143900000000         2.258007256919120E-055
   118.383300000000         3.161868371637850E-055
   118.622700000000         3.928243473296807E-055
   118.862100000000         4.365018773766134E-055
   119.101500000000         4.251649775063631E-055
   119.340900000000         3.364370373622149E-055
   119.580300000000         1.512948480587383E-055
   119.819700000000        -1.412280343911911E-055
   120.059100000000        -5.386672909097292E-055
   120.298500000000        -1.019708550418405E-054
   120.537900000000        -1.539624511985152E-054
   120.777300000000        -2.027711012781682E-054
   121.016700000000        -2.388013704170579E-054
   121.256100000000        -2.504630111188014E-054
   121.495500000000        -2.252644077748195E-054
   121.734900000000        -1.515246346460773E-054
   121.974300000000        -2.067855872248367E-055
   122.213700000000         1.699613013732494E-054
   122.453100000000         4.142567049550285E-054
   122.692500000000         6.945249148247581E-054
   122.931900000000         9.796004238974149E-054
   123.171300000000         1.224328128302517E-053
   123.410700000000         1.371171004603027E-053
   123.650100000000         1.354546481013478E-053
   123.889500000000         1.108305743592367E-053
   124.128900000000         5.764187336003327E-054
   124.368300000000        -2.735788652513107E-054
   124.607700000000        -1.435460702925902E-053
   124.847100000000        -2.849313200360466E-053
   125.086500000000        -4.389191053071638E-053
   125.325900000000        -5.856540103269918E-053
   125.565300000000        -6.982819858038157E-053
   125.804700000000        -7.444637245001245E-053
   126.044100000000        -6.893988980142414E-053
   126.283500000000        -5.004782173157293E-053
   126.522900000000        -1.534611469164801E-053
   126.762300000000         3.602128034634591E-053
   127.001700000000         1.025712539209288E-052
   127.241100000000         1.797794014852260E-052
   127.480500000000         2.595880340107122E-052
   127.719900000000         3.302872793874201E-052
   127.959300000000         3.769361849177554E-052
   128.198700000000         3.824692368803644E-052
   128.438100000000         3.295803287845780E-052
   128.677500000000         2.033871941098962E-052
   128.916900000000        -5.244742372672702E-054
   129.156300000000        -2.959927747952824E-052
   129.395700000000        -6.554229154010470E-052
   129.635100000000        -1.053994321501750E-051
   129.874500000000        -1.444452156894928E-051
   130.113900000000        -1.762398325061780E-051
   130.353300000000        -1.929786030154640E-051
   130.592700000000        -1.861905737950202E-051
   130.832100000000        -1.478094317420619E-051
   131.071500000000        -7.159000458340710E-052
   131.310900000000         4.522084328398998E-052
   131.550300000000         2.001243731864112E-051
   131.789700000000         3.837626593552495E-051
   132.029100000000         5.787717298441484E-051
   132.268500000000         7.594460459260051E-051
   132.507900000000         8.925692709230869E-051
   132.747300000000         9.397165433004877E-051
   132.986700000000         8.612179957273502E-051
   133.226100000000         6.217860375562240E-051
   133.465500000000         1.975529196524978E-051
   133.704900000000        -4.160449411800131E-051
   133.944300000000        -1.196435084745656E-050
   134.183700000000        -2.087347567910095E-050
   134.423100000000        -2.994988712561481E-050
   134.662500000000        -3.788525863917576E-050
   134.901900000000        -4.306368967743138E-050
   135.141300000000        -4.369385965118308E-050
   135.380700000000        -3.801542929129871E-050
   135.620100000000        -2.457509909572394E-050
   135.859500000000        -2.555569456231749E-051
   136.098900000000         2.787327476275742E-050
   136.338300000000         6.522581971044290E-050
   136.577700000000         1.064520865459777E-049
   136.817100000000         1.468344047836214E-049
   137.056500000000         1.800959540873674E-049
   137.295900000000         1.987793344582816E-049
   137.535300000000         1.949333330525881E-049
   137.774700000000         1.611134759881605E-049
   138.014100000000         9.165733027251669E-050
   138.253500000000        -1.585862158333637E-050
   138.492900000000        -1.591325802829256E-049
   138.732300000000        -3.298300306854488E-049