  -1.79550000000000         0.000000000000000E+000
  -1.55610000000000         0.000000000000000E+000
  -1.31670000000000         0.000000000000000E+000
  -1.07730000000000         0.000000000000000E+000
 -0.837900000000000         0.000000000000000E+000
 -0.598500000000000         0.000000000000000E+000
 -0.359100000000000         0.000000000000000E+000
 -0.119700000000000         0.000000000000000E+000
  0.119700000000000         0.000000000000000E+000
  0.359100000000000         0.000000000000000E+000
  0.598500000000000         0.000000000000000E+000
  0.837900000000000         0.000000000000000E+000
   1.07730000000000         0.000000000000000E+000
   1.31670000000000         0.000000000000000E+000
   1.55610000000000         0.000000000000000E+000
   1.79550000000000         0.000000000000000E+000
   2.03490000000000         0.000000000000000E+000
   2.27430000000000         0.000000000000000E+000
   2.51370000000000         0.000000000000000E+000
   2.75310000000000         0.000000000000000E+000
   2.99250000000000         0.000000000000000E+000
   3.23190000000000         0.000000000000000E+000
   3.47130000000000         0.000000000000000E+000
   3.71070000000000         0.000000000000000E+000
   3.95010000000000         0.000000000000000E+000
   4.18950000000000         0.000000000000000E+000
   4.42890000000000         0.000000000000000E+000
   4.66830000000000         0.000000000000000E+000
   4.90770000000000         0.000000000000000E+000
   5.14710000000000         0.000000000000000E+000
   5.38650000000000         0.000000000000000E+000
   5.62590000000000         0.000000000000000E+000
   5.86530000000000         0.000000000000000E+000
   6.10470000000000         0.000000000000000E+000
   6.34410000000000         0.000000000000000E+000
   6.58350000000000         0.000000000000000E+000
   6.82290000000000         0.000000000000000E+000
   7.06230000000000         0.000000000000000E+000
   7.30170000000000         0.000000000000000E+000
   7.54110000000000         0.000000000000000E+000
   7.78050000000000         0.000000000000000E+000
   8.01990000000000         0.000000000000000E+000
   8.25930000000000         0.000000000000000E+000
   8.49870000000000         0.000000000000000E+000
   8.73810000000000        -2.199922525449280E-168
   8.97750000000000         2.455545803226121E-162
   9.21690000000000        -3.027607604640958E-159
   9.45630000000000        -2.846341333198228E-156
   9.69570000000000        -1.116134574655397E-155
   9.93510000000000        -5.527504172338558E-153
   10.1745000000000        -2.938505031420034E-151
   10.4139000000000        -4.498391230288663E-150
   10.6533000000000         5.804309375758517E-149
   10.8927000000000         4.090346601694071E-147
   11.1321000000000         1.005797026681566E-145
   11.3715000000000         1.646718467698584E-144
   11.6109000000000         2.043773690833758E-143
   11.8503000000000         2.017535986850053E-142
   12.0897000000000         1.601421464790262E-141
   12.3291000000000         9.901713858749560E-141
   12.5685000000000         4.057615792868792E-140
   12.8079000000000        -9.895362834025921E-141
   13.0473000000000        -2.240043355787100E-138
   13.2867000000000        -2.787919137550724E-137
   13.5261000000000        -2.427400778994819E-136
   13.7655000000000        -1.749144655708250E-135
   14.0049000000000        -1.103229751334737E-134
   14.2443000000000        -6.243905971789872E-134
   14.4837000000000        -3.208872479326099E-133
   14.7231000000000        -1.505108061151704E-132
   14.9625000000000        -6.442735486559594E-132
   15.2019000000000        -2.501314954976817E-131
   15.4413000000000        -8.663012362113411E-131
   15.6807000000000        -2.570075276840229E-130
   15.9201000000000        -5.778072992700140E-130
   16.1595000000000        -4.110796608153085E-130
   16.3989000000000         5.265250109487503E-129
   16.6383000000000         4.247351733843525E-128
   16.8777000000000         2.228218561796065E-127
   17.1171000000000         9.677621274686391E-127
   17.3565000000000         3.710905999018429E-126
   17.5959000000000         1.287445007464403E-125
   17.8353000000000         4.076689836745634E-125
   18.0747000000000         1.176683169527582E-124
   18.3141000000000         3.057452019831024E-124
   18.5535000000000         6.913359206245613E-124
   18.7929000000000         1.231980850743397E-123
   19.0323000000000         1.007175357751400E-123
   19.2717000000000        -4.540414412322384E-123
   19.5111000000000        -3.235428888686927E-122
   19.7505000000000        -1.368009957374502E-121
   19.9899000000000        -4.757407908897027E-121
   20.2293000000000        -1.473323492180564E-120
   20.4687000000000        -4.197613931575940E-120
   20.7081000000000        -1.119045315026096E-119
   20.9475000000000        -2.820433046656549E-119
   21.1869000000000        -6.767831874076733E-119
   21.4263000000000        -1.553940249133585E-118
   21.6657000000000        -3.425764548867718E-118
   21.9051000000000        -7.261935996937704E-118
   22.1445000000000        -1.477699182616827E-117
   22.3839000000000        -2.865403545291873E-117
   22.6233000000000        -5.198935171138146E-117
   22.8627000000000        -8.447388110637110E-117
   23.1021000000000        -1.079600561922182E-116
   23.3415000000000        -4.197867357418863E-117
   23.5809000000000         3.774620601358521E-116
   23.8203000000000         1.897971959044488E-115
   24.0597000000000         6.432694638633998E-115
   24.2991000000000         1.848341220589682E-114
   24.5385000000000         4.784866576810054E-114
   24.7779000000000         1.142353192809110E-113
   25.0173000000000         2.539754569115089E-113
   25.2567000000000         5.273220386046665E-113
   25.4961000000000         1.020301753588374E-112
   25.7355000000000         1.825773692964392E-112
   25.9749000000000         2.972186460590500E-112
   26.2143000000000         4.245715313689458E-112
   26.4537000000000         4.828549647934606E-112
   26.6931000000000         2.672267914473303E-112
   26.9325000000000        -6.422307066784847E-112
   27.1719000000000        -2.988723932014602E-111
   27.4113000000000        -7.919609994111116E-111
   27.6507000000000        -1.695712039280827E-110
   27.8901000000000        -3.175585271929893E-110
   28.1295000000000        -5.360536431240073E-110
   28.3689000000000        -8.286730712884887E-110
   28.6083000000000        -1.189633622560052E-109
   28.8477000000000        -1.618522013131278E-109
   29.0871000000000        -2.149444477428834E-109
   29.3265000000000        -2.840095995930165E-109
   29.5659000000000        -3.506737577006728E-109
   29.8053000000000        -2.630949628272202E-109
   30.0447000000000         5.789509942324229E-109
   30.2841000000000         3.957475364595865E-108
   30.5235000000000         1.426301624863096E-107
   30.7629000000000         4.075154824621134E-107
   31.0023000000000         1.000211533052908E-106
   31.2417000000000         2.159373734037075E-106
   31.4811000000000         4.093437744347726E-106
   31.7205000000000         6.605850130008831E-106
   31.9599000000000         8.130158321690772E-106
   32.1993000000000         3.673499069092096E-106
   32.4387000000000        -1.893952774688274E-105
   32.6781000000000        -8.485081772911787E-105
   32.9175000000000        -2.389675678420763E-104
   33.1569000000000        -5.491198899569090E-104
   33.3963000000000        -1.093055237831353E-103
   33.6357000000000        -1.902332304212192E-103
   33.8751000000000        -2.813771799066888E-103
   34.1145000000000        -3.151553199419481E-103
   34.3539000000000        -1.144396420071736E-103
   34.5933000000000         6.989994007329513E-103
   34.8327000000000         2.820852591051067E-102
   35.0721000000000         7.355410516038529E-102
   35.3115000000000         1.574310196329867E-101
   35.5509000000000         2.922737513894238E-101
   35.7903000000000         4.732204070210372E-101
   36.0297000000000         6.444590717259000E-101
   36.2691000000000         6.368188711789028E-101
   36.5085000000000         6.837517289102797E-102
   36.7479000000000        -1.786815149043535E-100
   36.9873000000000        -6.120770946536185E-100
   37.2267000000000        -1.458880477928961E-099
   37.4661000000000        -2.893640484366026E-099
   37.7055000000000        -4.981901535774517E-099
   37.9449000000000        -7.415410642023541E-099
   38.1843000000000        -9.019480577188783E-099
   38.4237000000000        -6.968393816966317E-099
   38.6631000000000         4.260627040151216E-099
   38.9025000000000         3.392059199387737E-098
   39.1419000000000         9.525625520306162E-098
   39.3813000000000         2.034271095218242E-097
   39.6207000000000         3.683913662557163E-097
   39.8601000000000         5.788068157150368E-097
   40.0995000000000         7.723007735535672E-097
   40.3389000000000         7.886631988465567E-097
   40.5783000000000         3.079720085171593E-097
   40.8177000000000        -1.211248755971632E-096
   41.0571000000000        -4.554111280057087E-096
   41.2965000000000        -1.065304527244431E-095
   41.5359000000000        -2.024310694493645E-095
   41.7753000000000        -3.308761864819270E-095
   42.0147000000000        -4.657283178381108E-095
   42.2541000000000        -5.354112958624875E-095
   42.4935000000000        -3.948778145080487E-095
   42.7329000000000         2.019075573654356E-095
   42.9723000000000         1.612167053585838E-094
   43.2117000000000         4.265682984071253E-094
   43.4511000000000         8.527906206661664E-094
   43.6905000000000         1.439976838087592E-093
   43.9299000000000         2.098792166033294E-093
   44.1693000000000         2.571280038229279E-093
   44.4087000000000         2.331985527478123E-093
   44.6481000000000         4.955437514461020E-094
   44.8875000000000        -4.211090443211572E-093
   45.1269000000000        -1.330978169023385E-092
   45.3663000000000        -2.811586424025870E-092
   45.6057000000000        -4.878440731846892E-092
   45.8451000000000        -7.269708254197849E-092
   46.0845000000000        -9.215907818587685E-092
   46.3239000000000        -9.168681956314692E-092
   46.5633000000000        -4.572662557287555E-092
   46.8027000000000         8.152469141826896E-092
   47.0421000000000         3.315098369962636E-091
   47.2815000000000         7.383067400080119E-091
   47.5209000000000         1.303384752072746E-090
   47.7603000000000         1.955644159210503E-090
   47.9997000000000         2.498472068981048E-090
   48.2391000000000         2.553873319044022E-090
   48.4785000000000         1.526892937399560E-090
   48.7179000000000        -1.369316700567086E-090
   48.9573000000000        -6.970148644395851E-090
   49.1967000000000        -1.583121227016023E-089
   49.4361000000000        -2.766142381660814E-089
   49.6755000000000        -4.051821149844817E-089
   49.9149000000000        -4.988140040800878E-089
   50.1543000000000        -4.791285606208545E-089
   50.3937000000000        -2.346480959139954E-089
   50.6331000000000         3.633193137855525E-089
   50.8725000000000         1.419081867448628E-088
   51.1119000000000         2.936854396712162E-088
   51.3513000000000         4.710029207485742E-088
   51.5907000000000         6.191093613430731E-088
   51.8301000000000         6.385670521567122E-088
   52.0695000000000         3.852182270958692E-088
   52.3089000000000        -3.070482432940965E-088
   52.5483000000000        -1.565853628880476E-087
   52.7877000000000        -3.369172289697575E-087
   53.0271000000000        -5.381051806058010E-087
   53.2665000000000        -6.756171695990852E-087
   53.5059000000000        -5.977216612386875E-087
   53.7453000000000        -8.484422825537441E-088
   53.9847000000000         1.116344581187117E-086
   54.2241000000000         3.199741685281967E-086
   54.4635000000000         6.123736942270157E-086
   54.7029000000000         9.341351548062542E-086
   54.9423000000000         1.145888027416258E-085
   55.1817000000000         9.906337974021547E-086
   55.4211000000000         7.948606363742873E-087
   55.6605000000000        -2.074893212716346E-085
   55.8999000000000        -5.937083582449730E-085
   56.1393000000000        -1.169470120215350E-084
   56.3787000000000        -1.883571056030544E-084
   56.6181000000000        -2.555847149431254E-084
   56.8575000000000        -2.809277000152928E-084
   57.0969000000000        -2.013756270285855E-084
   57.3363000000000         7.201769940528591E-085
   57.5757000000000         6.439029965229787E-084
   57.8151000000000         1.605969034126059E-083
   58.0545000000000         2.981943437187148E-083
   58.2939000000000         4.641036850397277E-083
   58.5333000000000         6.182296552938024E-083
   58.7727000000000         6.807082586531669E-083
   59.0121000000000         5.219933418258341E-083
   59.2515000000000        -3.713887787522161E-084
   59.4909000000000        -1.205256495562618E-082
   59.7303000000000        -3.166633538560596E-082
   59.9697000000000        -5.981313629425570E-082
   60.2091000000000        -9.430958629394751E-082
   60.4485000000000        -1.281579258577430E-081
   60.6879000000000        -1.473222686014123E-081
   60.9273000000000        -1.289755064136402E-081
   61.1667000000000        -4.135535184371668E-082
   61.4061000000000         1.531270652728365E-081
   61.6455000000000         4.895072942611529E-081
   61.8849000000000         9.846138926503207E-081
   62.1243000000000         1.612908818733332E-080
   62.3637000000000         2.274536702955887E-080
   62.6031000000000         2.759806416457919E-080
   62.8425000000000         2.719573006565555E-080
   63.0819000000000         1.657680847749806E-080
   63.3213000000000        -1.031291837619080E-080
   63.5607000000000        -5.950429489811924E-080
   63.8001000000000        -1.348634553993035E-079
   64.0395000000000        -2.347360981334018E-079
   64.2789000000000        -3.474382615479638E-079
   64.5183000000000        -4.461048358281204E-079
   64.7577000000000        -4.840789974209330E-079
   64.9971000000000        -3.928837728482673E-079
   65.2365000000000        -8.573248338591376E-080
   65.4759000000000         5.297489445534218E-079
   65.7153000000000         1.525804988358490E-078
   65.9547000000000         2.913100332018912E-078
   66.1941000000000         4.583620946634242E-078
   66.4335000000000         6.243173380977359E-078
   66.6729000000000         7.346494034935870E-078
   66.9123000000000         7.057986893871127E-078
   67.1517000000000         4.271987097388966E-078
   67.3911000000000        -2.264549649692681E-078
   67.6305000000000        -1.368125633980574E-077
   67.8699000000000        -3.052908584404039E-077
   68.1093000000000        -5.213224591576191E-077
   68.3487000000000        -7.579193700716563E-077
   68.5881000000000        -9.596744191387715E-077
   68.8275000000000        -1.036661343254793E-076
   69.0669000000000        -8.639218758082102E-077
   69.3063000000000        -2.910781372771681E-077
   69.5457000000000         8.329128009297949E-077
   69.7851000000000         2.615496352279058E-076
   70.0245000000000         5.054819778809657E-076
   70.2639000000000         7.955496648594572E-076
   70.5033000000000         1.083632956677297E-075
   70.7427000000000         1.285064848866949E-075
   70.9821000000000         1.275159940704972E-075
   71.2215000000000         8.945650689644858E-076
   71.4609000000000        -3.158829555033484E-077
   71.7003000000000        -1.656035475375108E-075
   71.9397000000000        -4.050347623986444E-075
   72.1791000000000        -7.125525860240177E-075
   72.4185000000000        -1.053957743506601E-074
   72.6579000000000        -1.360817997021586E-074
   72.8973000000000        -1.524493462045458E-074
   73.1367000000000        -1.396803883802339E-074
   73.3761000000000        -8.017640125002339E-075
   73.6155000000000         4.371263259069015E-075
   73.8549000000000         2.450640457839932E-074
   74.0943000000000         5.257939590097374E-074
   74.3337000000000         8.685012367589406E-074
   74.5731000000000         1.227806715655612E-073
   74.8125000000000         1.523071868009197E-073
   75.0519000000000         1.635245737406699E-073
   75.2913000000000         1.411304934051378E-073
   75.5307000000000         6.800476478614442E-074
   75.7701000000000        -7.174495480565047E-074
   76.0095000000000        -2.880941500178764E-073
   76.2489000000000        -5.788812831611044E-073
   76.4883000000000        -9.226028038093692E-073
   76.7277000000000        -1.271328700833838E-072
   76.9671000000000        -1.545467378953261E-072
   77.2065000000000        -1.632687859027270E-072
   77.4459000000000        -1.393686058378495E-072
   77.6853000000000        -6.774679620730208E-073
   77.9247000000000         6.517865002130887E-073
   78.1641000000000         2.675591111519653E-072
   78.4035000000000         5.371297639317714E-072
   78.6429000000000         8.556102882994894E-072
   78.8823000000000         1.183311888278269E-071
   79.1217000000000         1.455144661668998E-071
   79.3611000000000         1.579541102338682E-071
   79.6005000000000         1.442002090441828E-071
   79.8399000000000         9.149488687584963E-072
   80.0793000000000        -1.247430907724146E-072
   80.3187000000000        -1.769790602188403E-071
   80.5581000000000        -4.048371006235484E-071
   80.7975000000000        -6.883347966957375E-071
   81.0369000000000        -1.004795299082388E-070
   81.2763000000000        -1.312280949102873E-070
   81.5157000000000        -1.546120190259811E-070
   81.7551000000000        -1.617180670414872E-070
   81.9945000000000        -1.413085324954834E-070
   82.2339000000000        -8.039003299379017E-071
   82.4733000000000         3.457913993501707E-071
   82.7127000000000         2.156131201246979E-070
   82.9521000000000         4.699990656391988E-070
   83.1915000000000         7.957350104182826E-070
   83.4309000000000         1.175465667044374E-069
   83.6703000000000         1.569021417257320E-069
   83.9097000000000         1.905125774219572E-069
   84.1491000000000         2.073577688721656E-069
   84.3885000000000         1.920268814414669E-069
   84.6279000000000         1.248717927329388E-069
   84.8673000000000        -1.667777928767505E-070
   85.1067000000000        -2.550118238839951E-069
   85.3461000000000        -6.067931097530887E-069
   85.5855000000000        -1.074442152581818E-068
   85.8249000000000        -1.634526307490816E-068
   86.0643000000000        -2.223680770693663E-068
   86.3037000000000        -2.723872981091776E-068
   86.5431000000000        -2.950430953177299E-068
   86.7825000000000        -2.648163090909625E-068
   87.0219000000000        -1.502793424149020E-068
   87.2613000000000         8.237143079318924E-069
   87.5007000000000         4.625347407601931E-068
   87.7401000000000         1.004543922144379E-067
   87.9795000000000         1.693061058344918E-067
   88.2189000000000         2.465451936782748E-067
   88.4583000000000         3.193525214126047E-067
   88.6977000000000         3.668882966731887E-067
   88.9371000000000         3.598192775473251E-067
   89.1765000000000         2.616551336180293E-067
   89.4159000000000         3.281429857171957E-068
   89.6553000000000        -3.617226190331267E-067
   89.8947000000000        -9.406374950934748E-067
   90.1341000000000        -1.690520601743964E-066
   90.3735000000000        -2.547375546181609E-066
   90.6129000000000        -3.378131448524648E-066
   90.8523000000000        -3.966730013671835E-066
   91.0917000000000        -4.011230228494532E-066
   91.3311000000000        -3.139874249217466E-066
   91.5705000000000        -9.545734950319732E-067
   91.8099000000000         2.890951115291942E-066
   92.0493000000000         8.574909692439476E-066
   92.2887000000000         1.595659662377193E-065
   92.5281000000000         2.440503917470421E-065
   92.7675000000000         3.263499552694832E-065
   93.0069000000000         3.859383585843850E-065
   93.2463000000000         3.945785577975553E-065
   93.4857000000000         3.180694707999100E-065
   93.7251000000000         1.204700880896055E-065
   93.9645000000000        -2.286608340981657E-065
   94.2039000000000        -7.438470640726728E-065
   94.4433000000000        -1.410576483972408E-064
   94.6827000000000        -2.170871381092263E-064
   94.9221000000000        -2.910071287818936E-064
   95.1615000000000        -3.448578385387912E-064
   95.4009000000000        -3.543405558759180E-064
   95.6403000000000        -2.904992507408179E-064
   95.8797000000000        -1.234503759474745E-064
   96.1191000000000         1.714755330725613E-064
   96.3585000000000         6.051478286014315E-064
   96.5979000000000         1.164101437636734E-063
   96.8373000000000         1.799271105619999E-063
   97.0767000000000         2.416071532694170E-063
   97.3161000000000         2.868788578923936E-063
   97.5555000000000         2.962980631615075E-063
   97.7949000000000         2.469921278237808E-063
   98.0343000000000         1.156748013589196E-063
   98.2737000000000        -1.165389927279567E-063
   98.5131000000000        -4.575523750233540E-063
   98.7525000000000        -8.963749772757790E-063
   98.9919000000000        -1.394844020640138E-062
   99.2313000000000        -1.880551435856735E-062
   99.4707000000000        -2.243155876307889E-062
   99.7101000000000        -2.336727178903287E-062
   99.9495000000000        -1.990929368162067E-062
   100.188900000000        -1.033496893512364E-062
   100.428300000000         6.746001809605301E-063
   100.667700000000         3.191825432695230E-062
   100.907100000000         6.439934365940106E-062
   101.146500000000         1.014600758986662E-061
   101.385900000000         1.379373876262433E-061
   101.625300000000         1.659900506265622E-061
   101.864700000000         1.752765608438092E-061
   102.104100000000         1.537418581533897E-061
   102.343500000000         8.917225196128720E-062
   102.582900000000        -2.839611575960218E-062
   102.822300000000        -2.034596387170346E-061
   103.061700000000        -4.312522423309125E-061
   103.301100000000        -6.938413709408795E-061
   103.540500000000        -9.568461873231157E-061
   103.779900000000        -1.167758732888029E-060
   104.019300000000        -1.257028211138658E-060
   104.258700000000        -1.143106766459382E-060
   104.498100000000        -7.424738347426260E-061
   104.737500000000         1.481816723247660E-062
   104.976900000000         1.164353193481409E-060
   105.216300000000         2.682765644283777E-060
   105.455700000000         4.462280583489622E-060
   105.695100000000         6.288930242656401E-060
   105.934500000000         7.830541627468653E-060
   106.173900000000         8.641708817803632E-060
   106.413300000000         8.193231584772626E-060
   106.652700000000         5.932453648241905E-060
   106.892100000000         1.378133124983180E-060
   107.131500000000        -5.751384458754564E-060
   107.370900000000        -1.538490590903416E-059
   107.610300000000        -2.693705380164444E-059
   107.849700000000        -3.916566278669059E-059
   108.089100000000        -5.008413788771828E-059
   108.328500000000        -5.697208231755036E-059
   108.567900000000        -5.652979010999573E-059
   108.807300000000        -4.521699388296063E-059
   109.046700000000        -1.980099298788129E-059
   109.286100000000         2.188792812234595E-059
   109.525500000000         8.003559397900020E-059
   109.764900000000         1.518500357380013E-058
   110.004300000000         2.306444840882948E-058
   110.243700000000         3.052037773433545E-058
   110.483100000000         3.596857503203224E-058
   110.722500000000         3.743289548381804E-058
   110.961900000000         3.272172327292377E-058
   111.201300000000         1.972752247826257E-058
   111.440700000000        -3.147487693373322E-059
   111.680100000000        -3.645809891813633E-058
   111.919500000000        -7.912209712885815E-058
   112.158900000000        -1.278449848307357E-057
   112.398300000000        -1.766763971956159E-057
   112.637700000000        -2.168395662368710E-057
   112.877100000000        -2.369911392777601E-057
   113.116500000000        -2.240636239928023E-057
   113.355900000000        -1.648080730792064E-057
   113.595300000000        -4.808309593302016E-058
   113.834700000000         1.321760302781567E-057
   114.074100000000         3.735259006031041E-057
   114.313500000000         6.615203873288007E-057
   114.552900000000         9.667447871186397E-057
   114.792300000000         1.243145331202705E-056
   115.031700000000         1.428538538571582E-056
   115.271100000000         1.448199559675428E-056
   115.510500000000         1.222291395490057E-056
   115.749900000000         6.775640187544856E-057
   115.989300000000        -2.368046976172523E-057
   116.228700000000        -1.530137737965133E-056
   116.468100000000        -3.149841802045157E-056
   116.707500000000        -4.962604974472975E-056
   116.946900000000        -6.741207388467798E-056
   117.186300000000        -8.161743709363860E-056
   117.425700000000        -8.816376342492485E-056
   117.665100000000        -8.246310780706851E-056
   117.904500000000        -5.998255456885919E-056
   118.143900000000        -1.705006669796929E-056
   118.383300000000         4.813083289242825E-056
   118.622700000000         1.343401909360509E-055
   118.862100000000         2.362151303938794E-055
   119.101500000000         3.433372898239736E-055
   119.340900000000         4.397841216239260E-055
   119.580300000000         5.044233433130019E-055
   119.819700000000         5.122240948744498E-055
   120.059100000000         4.368033604464997E-055
   120.298500000000         2.543101959868715E-055
   120.537900000000        -5.143309349383252E-056
   120.777300000000        -4.828620203516192E-055
   121.016700000000        -1.022301126413702E-054
   121.256100000000        -1.626242981908493E-054
   121.495500000000        -2.221518023650523E-054
   121.734900000000        -2.704808966334329E-054
   121.974300000000        -2.947017974335942E-054
   122.213700000000        -2.803817905497581E-054
   122.453100000000        -2.133243263360823E-054
   122.692500000000        -8.203568021729045E-055
   122.931900000000         1.192142028820119E-054
   123.171300000000         3.869970027447918E-054
   123.410700000000         7.054225107132568E-054
   123.650100000000         1.043513679748721E-053
   123.889500000000         1.353979365822511E-053
   124.128900000000         1.574170469780746E-053
   124.368300000000         1.629968655470350E-053
   124.607700000000         1.443180909098419E-053
   124.847100000000         9.426700709094278E-054
   125.086500000000         7.892974876582722E-055
   125.325900000000        -1.158874605301272E-053
   125.565300000000        -2.725181652679809E-053
   125.804700000000        -4.502248753329942E-053
   126.044100000000        -6.289673965586405E-053
   126.283500000000        -7.803090677022128E-053
   126.522900000000        -8.685963670094116E-053
   126.762300000000        -8.537862648458232E-053
   127.001700000000        -6.961264767111073E-053
   127.241100000000        -3.626751010724162E-053
   127.480500000000         1.646572976001550E-053
   127.719900000000         8.802324057708738E-053
   127.959300000000         1.746072791307122E-052
   128.198700000000         2.685002859157086E-052
   128.438100000000         3.577335497490307E-052
   128.677500000000         4.263033473377647E-052
   128.916900000000         4.551153382888490E-052
   129.156300000000         4.237921646897288E-052
   129.395700000000         3.133939977168678E-052
   129.635100000000         1.099756727957075E-052
   129.874500000000        -1.912584834181702E-052
   130.113900000000        -5.816280199255840E-052
   130.353300000000        -1.035094801457751E-051
   130.592700000000        -1.505609571163626E-051
   130.832100000000        -1.926575268788307E-051
   131.071500000000        -2.213321130344618E-051
   131.310900000000        -2.269348210733661E-051
   131.550300000000        -1.996803732700874E-051
   131.789700000000        -1.311152711917124E-051
   132.029100000000        -1.593481197079389E-052
   132.268500000000         1.460006330576659E-051
   132.507900000000         3.476879548185773E-051
   132.747300000000         5.733627999756399E-051
   132.986700000000         7.976242357508510E-051
   133.226100000000         9.857139763298951E-051
   133.465500000000         1.095335390532771E-050
   133.704900000000         1.080302314259511E-050
   133.944300000000         8.961330726957807E-051
   134.183700000000         5.074491956832911E-051
   134.423100000000        -1.032889428195725E-051
   134.662500000000        -9.265513998911459E-051
   134.901900000000        -1.917235126463307E-050
   135.141300000000        -2.988440861646562E-050
   135.380700000000        -4.009297126561954E-050
   135.620100000000        -4.808619616113943E-050
   135.859500000000        -5.185952871265217E-050
   136.098900000000        -4.930980281678319E-050
   136.338300000000        -3.851380475624391E-050
   136.577700000000        -1.807968033942314E-050
   136.817100000000         1.245545428197023E-050
   137.056500000000         5.222463267097476E-050
   137.295900000000         9.868539709900172E-050
   137.535300000000         1.474001780096000E-049
   137.774700000000         1.920194769645809E-049
   138.014100000000         2.245413103127312E-049
   138.253500000000         2.359050066990619E-049
   138.492900000000         2.169482022986297E-049
   138.732300000000         1.597123272595971E-049