  -1.79550000000000         0.000000000000000E+000
  -1.55610000000000         0.000000000000000E+000
  -1.31670000000000         0.000000000000000E+000
  -1.07730000000000         0.000000000000000E+000
 -0.837900000000000         0.000000000000000E+000
 -0.598500000000000         0.000000000000000E+000
 -0.359100000000000         0.000000000000000E+000
 -0.119700000000000         0.000000000000000E+000
  0.119700000000000         0.000000000000000E+000
  0.359100000000000         0.000000000000000E+000
  0.598500000000000         0.000000000000000E+000
  0.837900000000000         0.000000000000000E+000
   1.07730000000000         0.000000000000000E+000
   1.31670000000000         0.000000000000000E+000
   1.55610000000000         0.000000000000000E+000
   1.79550000000000         0.000000000000000E+000
   2.03490000000000         0.000000000000000E+000
   2.27430000000000         0.000000000000000E+000
   2.51370000000000         0.000000000000000E+000
   2.75310000000000         0.000000000000000E+000
   2.99250000000000         0.000000000000000E+000
   3.23190000000000         0.000000000000000E+000
   3.47130000000000         0.000000000000000E+000
   3.71070000000000         0.000000000000000E+000
   3.95010000000000         0.000000000000000E+000
   4.18950000000000         0.000000000000000E+000
   4.42890000000000         0.000000000000000E+000
   4.66830000000000         0.000000000000000E+000
   4.90770000000000         0.000000000000000E+000
   5.14710000000000         0.000000000000000E+000
   5.38650000000000         0.000000000000000E+000
   5.62590000000000         0.000000000000000E+000
   5.86530000000000         0.000000000000000E+000
   6.10470000000000         0.000000000000000E+000
   6.34410000000000         0.000000000000000E+000
   6.58350000000000         0.000000000000000E+000
   6.82290000000000         0.000000000000000E+000
   7.06230000000000         0.000000000000000E+000
   7.30170000000000         0.000000000000000E+000
   7.54110000000000         0.000000000000000E+000
   7.78050000000000         0.000000000000000E+000
   8.01990000000000         0.000000000000000E+000
   8.25930000000000         0.000000000000000E+000
   8.49870000000000         3.904961701611753E-168
   8.73810000000000        -5.160697309847186E-160
   8.97750000000000         1.875161316323154E-157
   9.21690000000000        -2.033414836990965E-155
   9.45630000000000         4.392977960184759E-153
   9.69570000000000         3.754751973681864E-151
   9.93510000000000         1.226540740510942E-149
   10.1745000000000         2.194320259732088E-148
   10.4139000000000         2.125190277199831E-147
   10.6533000000000         2.190888962789172E-147
   10.8927000000000        -2.734189012117535E-145
   11.1321000000000        -4.612165323120836E-144
   11.3715000000000        -3.633711568818163E-143
   11.6109000000000         2.227588872204936E-143
   11.8503000000000         5.299359372767962E-141
   12.0897000000000         9.503228693251178E-140
   12.3291000000000         1.152763972192185E-138
   12.5685000000000         1.125961992844433E-137
   12.8079000000000         9.431126143504168E-137
   13.0473000000000         6.988809588509069E-136
   13.2867000000000         4.665174275519244E-135
   13.5261000000000         2.840989196653815E-134
   13.7655000000000         1.594274619319956E-133
   14.0049000000000         8.307102624109331E-133
   14.2443000000000         4.041217889351036E-132
   14.4837000000000         1.842782027708632E-131
   14.7231000000000         7.898651112584175E-131
   14.9625000000000         3.188287848813843E-130
   15.2019000000000         1.213309264386508E-129
   15.4413000000000         4.355385741780333E-129
   15.6807000000000         1.474974031760818E-128
   15.9201000000000         4.712662895068221E-128
   16.1595000000000         1.421350341608014E-127
   16.3989000000000         4.055346305304607E-127
   16.6383000000000         1.101303181855508E-126
   16.8777000000000         2.887619257666428E-126
   17.1171000000000         7.517975314124363E-126
   17.3565000000000         2.028972050998006E-125
   17.5959000000000         5.920344067489779E-125
   17.8353000000000         1.886299375736825E-124
   18.0747000000000         6.359325205522867E-124
   18.3141000000000         2.167177401671618E-123
   18.5535000000000         7.212444036346476E-123
   18.7929000000000         2.301949253603148E-122
   19.0323000000000         7.003162420470068E-122
   19.2717000000000         2.034687922647305E-121
   19.5111000000000         5.691403483007348E-121
   19.7505000000000         1.554331207732221E-120
   19.9899000000000         4.225026149343465E-120
   20.2293000000000         1.167213589529590E-119
   20.4687000000000         3.326962647347588E-119
   20.7081000000000         9.803119665647355E-119
   20.9475000000000         2.951753566492619E-118
   21.1869000000000         8.919015434774695E-118
   21.4263000000000         2.658488044134143E-117
   21.6657000000000         7.719971565899791E-117
   21.9051000000000         2.167390834041786E-116
   22.1445000000000         5.859287831159214E-116
   22.3839000000000         1.522632577023166E-115
   22.6233000000000         3.802321385470164E-115
   22.8627000000000         9.128850931312125E-115
   23.1021000000000         2.109166053452627E-114
   23.3415000000000         4.695383053911447E-114
   23.5809000000000         1.008589527556232E-113
   23.8203000000000         2.093631597480939E-113
   24.0597000000000         4.206033415264167E-113
   24.2991000000000         8.187557492014724E-113
   24.5385000000000         1.545069809345723E-112
   24.7779000000000         2.823514865095605E-112
   25.0173000000000         4.976839107576724E-112
   25.2567000000000         8.382436851591488E-112
   25.4961000000000         1.322340144505428E-111
   25.7355000000000         1.867330784372734E-111
   25.9749000000000         2.070413145142482E-111
   26.2143000000000         6.879068826370297E-112
   26.4537000000000        -5.482068657298804E-111
   26.6931000000000        -2.377058980049599E-110
   26.9325000000000        -6.940758537905364E-110
   27.1719000000000        -1.711412716362840E-109
   27.4113000000000        -3.775778203062322E-109
   27.6507000000000        -7.592801742297940E-109
   27.8901000000000        -1.393136366905885E-108
   28.1295000000000        -2.299291902376425E-108
   28.3689000000000        -3.274527494903899E-108
   28.6083000000000        -3.530994005015025E-108
   28.8477000000000        -1.019765384573169E-108
   29.0871000000000         8.663096111724267E-108
   29.3265000000000         3.372888401765083E-107
   29.5659000000000         8.746159280812305E-107
   29.8053000000000         1.876434062920942E-106
   30.0447000000000         3.503622176908683E-106
   30.2841000000000         5.709199652487638E-106
   30.5235000000000         7.797673070426159E-106
   30.7629000000000         7.567639575086122E-106
   31.0023000000000        -1.283883605563849E-107
   31.2417000000000        -2.542065705434669E-105
   31.4811000000000        -8.556730091609764E-105
   31.7205000000000        -2.055479992998539E-104
   31.9599000000000        -4.131800825803047E-104
   32.1993000000000        -7.210956714258312E-104
   32.4387000000000        -1.082824593346975E-103
   32.6781000000000        -1.305306656123469E-103
   32.9175000000000        -9.000161549280324E-104
   33.1569000000000         1.130369400411195E-103
   33.3963000000000         6.524912764300241E-103
   33.6357000000000         1.786354900166622E-102
   33.8751000000000         3.817766589147721E-102
   34.1145000000000         6.940464114904956E-102
   34.3539000000000         1.086316232730051E-101
   34.5933000000000         1.407836830796274E-101
   34.8327000000000         1.266452994765670E-101
   35.0721000000000        -1.331222512697721E-102
   35.3115000000000        -4.145751707665447E-101
   35.5509000000000        -1.270391525901614E-100
   35.7903000000000        -2.792128148660714E-100
   36.0297000000000        -5.081177997619581E-100
   36.2691000000000        -7.846634824796357E-100
   36.5085000000000        -9.900492035518637E-100
   36.7479000000000        -8.407563700870915E-100
   36.9873000000000         1.987648978502862E-100
   37.2267000000000         2.972215122785269E-099
   37.4661000000000         8.558592263179196E-099
   37.7055000000000         1.789534096925042E-098
   37.9449000000000         3.083934459899429E-098
   38.1843000000000         4.436933659304849E-098
   38.4237000000000         4.974458839363476E-098
   38.6631000000000         2.886941676510757E-098
   38.9025000000000        -4.889450272394758E-098
   39.1419000000000        -2.264465435840509E-097
   39.3813000000000        -5.495524742241645E-097
   39.6207000000000        -1.039664904644650E-096
   39.8601000000000        -1.638274001488143E-096
   40.0995000000000        -2.114109127085014E-096
   40.3389000000000        -1.935595348979658E-096
   40.5783000000000        -1.380851590815682E-097
   40.8177000000000         4.734266588416062E-096
   41.0571000000000         1.445542090424794E-095
   41.2965000000000         3.046272549429666E-095
   41.5359000000000         5.239307185032205E-095
   41.7753000000000         7.549662137585034E-095
   42.0147000000000         8.684743841819212E-095
   42.2541000000000         6.090004252232361E-095
   42.4935000000000        -4.383876713101848E-095
   42.7329000000000        -2.833304242258040E-094
   42.9723000000000        -7.155529669236104E-094
   43.2117000000000        -1.368593226763801E-093
   43.4511000000000        -2.180228707438787E-093
   43.6905000000000        -2.903912670668386E-093
   43.9299000000000        -2.988560621871738E-093
   44.1693000000000        -1.465011901040023E-093
   44.4087000000000         3.086447291200528E-093
   44.6481000000000         1.235761436819606E-092
   44.8875000000000         2.773635574112915E-092
   45.1269000000000         4.911894709801580E-092
   45.3663000000000         7.295249006706240E-092
   45.6057000000000         8.956661413888432E-092
   45.8451000000000         8.032310120313015E-092
   46.0845000000000         1.590089945559234E-092
   46.3239000000000        -1.418796479256551E-091
   46.5633000000000        -4.311186784774832E-091
   46.8027000000000        -8.694846980770472E-091
   47.0421000000000        -1.418826255374705E-090
   47.2815000000000        -1.934609584185679E-090
   47.5209000000000        -2.107982669185151E-090
   47.7603000000000        -1.421967475577975E-090
   47.9997000000000         8.374024505989027E-091
   48.2391000000000         5.452577878431162E-090
   48.4785000000000         1.295094989049816E-089
   48.7179000000000         2.301558424061181E-089
   48.9573000000000         3.361241364523467E-089
   49.1967000000000         3.994318143947353E-089
   49.4361000000000         3.355890605248998E-089
   49.6755000000000         2.294663966458464E-090
   49.9149000000000        -6.793410854272594E-089
   50.1543000000000        -1.881322222540278E-088
   50.3937000000000        -3.567063281138013E-088
   50.6331000000000        -5.448441892809803E-088
   50.8725000000000        -6.781222288538843E-088
   51.1119000000000        -6.192096562145855E-088
   51.3513000000000        -1.618526733937381E-088
   51.5907000000000         9.471324686427399E-088
   51.8301000000000         2.935146822292899E-087
   52.0695000000000         5.855852132067422E-087
   52.3089000000000         9.349557749203591E-087
   52.5483000000000         1.232118689064315E-086
   52.7877000000000         1.259619938892646E-086
   53.0271000000000         6.696428949040595E-087
   53.2665000000000        -1.001393617241498E-086
   53.5059000000000        -4.244744628344847E-086
   53.7453000000000        -9.373809688484727E-086
   53.9847000000000        -1.616166561967017E-085
   54.2241000000000        -2.330980842100051E-085
   54.4635000000000        -2.780034461071388E-085
   54.7029000000000        -2.429586800541753E-085
   54.9423000000000        -4.913861188483422E-086
   55.1817000000000         4.010088329859618E-085
   55.4211000000000         1.201006833778761E-084
   55.6605000000000         2.393792291317258E-084
   55.8999000000000         3.895446186306981E-084
   56.1393000000000         5.389680707206191E-084
   56.3787000000000         6.206523323336960E-084
   56.6181000000000         5.219675644194829E-084
   56.8575000000000         8.257973702627927E-085
   57.0969000000000        -8.898355561245339E-084
   57.3363000000000        -2.573771432068460E-083
   57.5757000000000        -5.045094646055452E-083
   57.8151000000000        -8.136480426472266E-083
   58.0545000000000        -1.124797569750858E-082
   58.2939000000000        -1.313391375255458E-082
   58.5333000000000        -1.172617790989644E-082
   58.7727000000000        -4.099836814591127E-083
   59.0121000000000         1.326220259282098E-082
   59.2515000000000         4.370843709541392E-082
   59.4909000000000         8.895961075943800E-082
   59.7303000000000         1.468145593760534E-081
   59.9697000000000         2.080640746771327E-081
   60.2091000000000         2.529908377748562E-081
   60.4485000000000         2.483473815814386E-081
   60.6879000000000         1.463773523271469E-081
   60.9273000000000        -1.118164662998143E-081
   61.1667000000000        -5.856546590360411E-081
   61.4061000000000        -1.314190759906118E-080
   61.6455000000000        -2.282759894468822E-080
   61.8849000000000        -3.377342671874665E-080
   62.1243000000000        -4.331267172876737E-080
   62.3637000000000        -4.675729537829625E-080
   62.6031000000000        -3.714677369842315E-080
   62.8425000000000        -5.547376867838634E-081
   63.0819000000000         5.770397284030963E-080
   63.3213000000000         1.603854422637735E-079
   63.5607000000000         3.040626113732887E-079
   63.8001000000000         4.779731286030567E-079
   64.0395000000000         6.515754461059986E-079
   64.2789000000000         7.670443177518606E-079
   64.5183000000000         7.341205293155598E-079
   64.7577000000000         4.310256998445865E-079
   64.9971000000000        -2.836339567734394E-079
   65.2365000000000        -1.542391870570500E-078
   65.4759000000000        -3.418856162260321E-078
   65.7153000000000        -5.853665579426519E-078
   65.9547000000000        -8.559638625963709E-078
   66.1941000000000        -1.091845281017699E-077
   66.4335000000000        -1.189404519016195E-077
   66.6729000000000        -1.000348299688378E-077
   66.9123000000000        -3.401699762234438E-078
   67.1517000000000         9.852507685350736E-078
   67.3911000000000         3.128256311017207E-077
   67.6305000000000         6.118723432278661E-077
   67.8699000000000         9.754828390185949E-077
   68.1093000000000         1.347521584271407E-076
   68.3487000000000         1.623601594978050E-076
   68.5881000000000         1.643325866787346E-076
   68.8275000000000         1.192966447759946E-076
   69.0669000000000         2.600993983065480E-078
   69.3063000000000        -2.090477296288235E-076
   69.5457000000000        -5.297121115900402E-076
   69.7851000000000        -9.529016240893634E-076
   70.0245000000000        -1.437427947923324E-075
   70.2639000000000        -1.892362409098006E-075
   70.5033000000000        -2.164741442716297E-075
   70.7427000000000        -2.035631240721563E-075
   70.9821000000000        -1.231986470587536E-075
   71.2215000000000         5.372095297725294E-076
   71.4609000000000         3.512625789340784E-075
   71.7003000000000         7.779459735433789E-075
   71.9397000000000         1.312786158713298E-074
   72.1791000000000         1.889266261055767E-074
   72.4185000000000         2.380195719596564E-074
   72.6579000000000         2.588297644506812E-074
   72.8973000000000         2.249256987722174E-074
   73.1367000000000         1.055318080243413E-074
   73.3761000000000        -1.292408681621863E-074
   73.6155000000000        -4.996908669970617E-074
   73.8549000000000        -1.004276512717409E-073
   74.0943000000000        -1.604664681986379E-073
   74.3337000000000        -2.210241842375212E-073
   74.5731000000000        -2.665883637267509E-073
   74.8125000000000        -2.748489361965402E-073
   75.0519000000000        -2.179158105929834E-073
   75.2913000000000        -6.583100355414370E-074
   75.5307000000000         2.070208373212417E-073
   75.7701000000000         6.123730590336047E-073
   76.0095000000000         1.135859898698454E-072
   76.2489000000000         1.723579016523917E-072
   76.4883000000000         2.270159827162784E-072
   76.7277000000000         2.612420286814937E-072
   76.9671000000000         2.533826877162347E-072
   77.2065000000000         1.785429070729355E-072
   77.4459000000000         1.281669175626212E-073
   77.6853000000000        -2.601118410040775E-072
   77.9247000000000        -6.402435951992365E-072
   78.1641000000000        -1.101372753772568E-071
   78.4035000000000        -1.581875986462938E-071
   78.6429000000000        -1.978969134825785E-071
   78.8823000000000        -2.149975344992482E-071
   79.1217000000000        -1.924403539377651E-071
   79.3611000000000        -1.130008733970772E-071
   79.6005000000000         3.658699751206098E-072
   79.8399000000000         2.601759386872357E-071
   80.0793000000000         5.461161077325290E-071
   80.3187000000000         8.617952153679963E-071
   80.5581000000000         1.150635583346545E-070
   80.7975000000000         1.333756878885347E-070
   81.0369000000000         1.318483691546786E-070
   81.2763000000000         1.015187770501952E-070
   81.5157000000000         3.623940833431948E-071
   81.7551000000000        -6.424366648360997E-071
   81.9945000000000        -1.912356668028394E-070
   82.2339000000000        -3.250142383260962E-070
   82.4733000000000        -4.349799897570701E-070
   82.7127000000000        -4.833911486501437E-070
   82.9521000000000        -4.337736911407375E-070
   83.1915000000000        -2.643031740732239E-070
   83.4309000000000         1.498821892574356E-071
   83.6703000000000         3.444102809784804E-070
   83.9097000000000         6.019657739134310E-070
   84.1491000000000         6.040560793606505E-070
   84.3885000000000         1.293194597281444E-070
   84.6279000000000        -1.025050862079775E-069
   84.8673000000000        -2.948905906139510E-069
   85.1067000000000        -5.489332824267417E-069
   85.3461000000000        -8.101635114230441E-069
   85.5855000000000        -9.715686507623638E-069
   85.8249000000000        -8.673407960248079E-069
   86.0643000000000        -2.812655966051439E-069
   86.3037000000000         1.021629480469271E-068
   86.5431000000000         3.232265622458211E-068
   86.7825000000000         6.399238031726817E-068
   87.0219000000000         1.029824627618601E-067
   87.2613000000000         1.428432542561815E-067
   87.5007000000000         1.715806085205028E-067
   87.7401000000000         1.709555481603745E-067
   87.9795000000000         1.170949423224121E-067
   88.2189000000000        -1.680366459155395E-068
   88.4583000000000        -2.549224588615950E-067
   88.6977000000000        -6.099415414885724E-067
   88.9371000000000        -1.070916525379895E-066
   89.1765000000000        -1.588959384806062E-066
   89.4159000000000        -2.063087072527016E-066
   89.6553000000000        -2.330185952127036E-066
   89.8947000000000        -2.164642027288046E-066
   90.1341000000000        -1.294398079460292E-066
   90.3735000000000         5.595545668450642E-067
   90.6129000000000         3.614655350525620E-066
   90.8523000000000         7.927420498881445E-066
   91.0917000000000         1.326818609404920E-065
   91.3311000000000         1.898474042285609E-065
   91.5705000000000         2.388213612796772E-065
   91.8099000000000         2.615964603083901E-065
   92.0493000000000         2.345800507504595E-065
   92.2887000000000         1.307680129230032E-065
   92.5281000000000        -7.581934308186552E-066
   92.7675000000000        -4.030785945056623E-065
   93.0069000000000        -8.511935886348657E-065
   93.2463000000000        -1.391143430110098E-064
   93.4857000000000        -1.952948508684442E-064
   93.7251000000000        -2.416311539358285E-064
   93.9645000000000        -2.607379526284725E-064
   94.2039000000000        -2.306187719428407E-064
   94.4433000000000        -1.269610579495215E-064
   94.6827000000000         7.260654714411035E-065
   94.9221000000000         3.820929792113903E-064
   95.1615000000000         7.987393885654688E-064
   95.4009000000000         1.293375705520576E-063
   95.6403000000000         1.801013824115249E-063
   95.8797000000000         2.213970712201925E-063
   96.1191000000000         2.380588912972985E-063
   96.3585000000000         2.113150362706921E-063
   96.5979000000000         1.208601980634007E-063
   96.8373000000000        -5.150657615248929E-064
   97.0767000000000        -3.165803611464515E-063
   97.3161000000000        -6.710003021987907E-063
   97.5555000000000        -1.089709844790138E-062
   97.7949000000000        -1.518834929274962E-062
   98.0343000000000        -1.870780029902092E-062
   98.2737000000000        -2.023872019966316E-062
   98.5131000000000        -1.829200199839900E-062
   98.7525000000000        -1.127222046967753E-062
   98.9919000000000         2.239720104754098E-063
   99.2313000000000         2.308295510514460E-062
   99.4707000000000         5.101107981809386E-062
   99.7101000000000         8.413577975705291E-062
   99.9495000000000         1.184095184622480E-061
   100.188900000000         1.472777287923684E-061
   100.428300000000         1.616659472583669E-061
   100.667700000000         1.504864211224148E-061
   100.907100000000         1.018395232815163E-061
   101.146500000000         5.034857287544024E-063
   101.385900000000        -1.465459637095811E-061
   101.625300000000        -3.518844078861762E-061
   101.864700000000        -5.984150374698534E-061
   102.104100000000        -8.583855468353343E-061
   102.343500000000        -1.086368950546528E-060
   102.582900000000        -1.219036565082943E-060
   102.822300000000        -1.178420045863182E-060
   103.061700000000        -8.798249783861465E-061
   103.301100000000        -2.452264832885542E-061
   103.540500000000         7.776894201649342E-061
   103.779900000000         2.191712481413958E-060
   104.019300000000         3.923785874611422E-060
   104.258700000000         5.800080655290268E-060
   104.498100000000         7.528073251305660E-060
   104.737500000000         8.692686278464666E-060
   104.976900000000         8.774355570968851E-060
   105.216300000000         7.196560649875304E-060
   105.455700000000         3.408410785419445E-060
   105.695100000000        -2.996103540812670E-060
   105.934500000000        -1.212683295365335E-059
   106.173900000000        -2.362722683765008E-059
   106.413300000000        -3.650823155023743E-059
   106.652700000000        -4.901997473611153E-059
   106.892100000000        -5.860416186410467E-059
   107.131500000000        -6.197577562807458E-059
   107.370900000000        -5.538192016828131E-059
   107.610300000000        -3.507556795984064E-059
   107.849700000000         1.980013503607676E-060
   108.089100000000         5.719581057871989E-059
   108.328500000000         1.292989186755216E-058
   108.567900000000         2.132591970487066E-058
   108.807300000000         2.993918866060927E-058
   109.046700000000         3.728859324841371E-058
   109.286100000000         4.140481024665016E-058
   109.525500000000         3.995592033916282E-058
   109.764900000000         3.049937090395565E-058
   110.004300000000         1.087422799940578E-058
   110.243700000000        -2.027127645655866E-058
   110.483100000000        -6.284876264863281E-058
   110.722500000000        -1.146607482951096E-057
   110.961900000000        -1.707965746312190E-057
   111.201300000000        -2.232322683009857E-057
   111.440700000000        -2.608013688339854E-057
   111.680100000000        -2.697147180466159E-057
   111.919500000000        -2.347914242085055E-057
   112.158900000000        -1.415112738266474E-057
   112.398300000000         2.109647908905143E-058
   112.637700000000         2.568545892198394E-057
   112.877100000000         5.584399231105352E-057
   113.116500000000         9.035090349118911E-057
   113.355900000000         1.251686822027059E-056
   113.595300000000         1.543342649879077E-056
   113.834700000000         1.701184224679138E-056
   114.074100000000         1.635672408664862E-056
   114.313500000000         1.255045157554964E-056
   114.552900000000         4.802892289787626E-057
   114.792300000000        -7.353120745386590E-057
   115.031700000000        -2.383390601213165E-056
   115.271100000000        -4.376962019131331E-056
   115.510500000000        -6.529895409469407E-056
   115.749900000000        -8.544279424319670E-056
   115.989300000000        -1.001139590080237E-055
   116.228700000000        -1.043220076145346E-055
   116.468100000000        -9.262465814691988E-056
   116.707500000000        -5.985771146790663E-056
   116.946900000000        -2.141603499761266E-057
   117.186300000000         8.188557504632937E-056
   117.425700000000         1.897195795181040E-055
   117.665100000000         3.137054113601657E-055
   117.904500000000         4.400635071491422E-055
   118.143900000000         5.485282904908947E-055
   118.383300000000         6.129276093885791E-055
   118.622700000000         6.030142151880744E-055
   118.862100000000         4.877826344024585E-055
   119.101500000000         2.403538349529058E-055
   119.340900000000        -1.557196629921114E-055
   119.580300000000        -6.991787730834570E-055
   119.819700000000        -1.363619959300348E-054
   120.059100000000        -2.091073569984526E-054
   120.298500000000        -2.788108754216927E-054
   120.537900000000        -3.326192647147355E-054
   120.777300000000        -3.548050216247292E-054
   121.016700000000        -3.281504664164179E-054
   121.256100000000        -2.361651935496358E-054
   121.495500000000        -6.611915417295812E-055
   121.734900000000         1.872696163853320E-054
   121.974300000000         5.178295681286217E-054
   122.213700000000         9.041423052650415E-054
   122.453100000000         1.306675734880708E-053
   122.692500000000         1.666700241041087E-053
   122.931900000000         1.907903178281296E-053
   123.171300000000         1.941548494597117E-053
   123.410700000000         1.675792124361197E-053
   123.650100000000         1.029330938383098E-053
   123.889500000000        -5.107461341267014E-055
   124.128900000000        -1.570484001510385E-053
   124.368300000000        -3.465286817920421E-053
   124.607700000000        -5.585515700962782E-053
   124.847100000000        -7.683957614897101E-053
   125.086500000000        -9.416554902167730E-053
   125.325900000000        -1.035855033283955E-052
   125.565300000000        -1.004005586023523E-052
   125.804700000000        -8.003048758231465E-053
   126.044100000000        -3.879139663196753E-053
   126.283500000000         2.516138907617708E-053
   126.522900000000         1.108109162094836E-052
   126.762300000000         2.133085617170600E-052
   127.001700000000         3.232312522797623E-052
   127.241100000000         4.262724920875508E-052
   127.480500000000         5.035846306289263E-052
   127.719900000000         5.329702377729045E-052
   127.959300000000         4.910619621921207E-052
   128.198700000000         3.565273642582741E-052
   128.438100000000         1.141874828844843E-052
   128.677500000000        -2.402481773963209E-052
   128.916900000000        -6.953369507903121E-052
   129.156300000000        -1.219663741972513E-051
   129.395700000000        -1.759096613506567E-051
   129.635100000000        -2.236526781175583E-051
   129.874500000000        -2.555065401402136E-051
   130.113900000000        -2.605494520306226E-051
   130.353300000000        -2.278406004296945E-051
   130.592700000000        -1.480897743157455E-051
   130.832100000000        -1.569452361401987E-052
   131.071500000000         1.690322666201803E-051
   131.310900000000         3.977155223157333E-051
   131.550300000000         6.522094189679563E-051
   131.789700000000         9.037475317012074E-051
   132.029100000000         1.113393285324206E-050
   132.268500000000         1.234193672821522E-050
   132.507900000000         1.215325436146856E-050
   132.747300000000         1.008324671552161E-050
   132.986700000000         5.752084298020619E-051
   133.226100000000        -1.020564810573799E-051
   133.465500000000        -1.011678070838644E-050
   133.704900000000        -2.103091038234958E-050
   133.944300000000        -3.280600703059971E-050
   134.183700000000        -4.401480776764859E-050
   134.423100000000        -5.280374144742121E-050
   134.662500000000        -5.701553264274073E-050
   134.901900000000        -5.439971696781111E-050
   135.141300000000        -4.291059808189949E-050
   135.380700000000        -2.107910345822550E-050
   135.620100000000         1.157054955710281E-050
   135.859500000000         5.410502717301730E-050
   136.098900000000         1.038280235929087E-049
   136.338300000000         1.560612727982162E-049
   136.577700000000         2.041384007100756E-049
   136.817100000000         2.396850000724388E-049
   137.056500000000         2.532414982099788E-049
   137.295900000000         2.352547374898014E-049
   137.535300000000         1.774195626532102E-049
   137.774700000000         7.429495262289112E-050
   138.014100000000        -7.494545019909672E-050
   138.253500000000        -2.648344547451214E-049
   138.492900000000        -4.822681494170818E-049
   138.732300000000        -7.058017829538375E-049