  -1.79550000000000         0.000000000000000E+000
  -1.55610000000000         0.000000000000000E+000
  -1.31670000000000         0.000000000000000E+000
  -1.07730000000000         0.000000000000000E+000
 -0.837900000000000         0.000000000000000E+000
 -0.598500000000000         0.000000000000000E+000
 -0.359100000000000         0.000000000000000E+000
 -0.119700000000000         0.000000000000000E+000
  0.119700000000000         0.000000000000000E+000
  0.359100000000000         0.000000000000000E+000
  0.598500000000000         0.000000000000000E+000
  0.837900000000000         0.000000000000000E+000
   1.07730000000000         0.000000000000000E+000
   1.31670000000000         0.000000000000000E+000
   1.55610000000000         0.000000000000000E+000
   1.79550000000000         0.000000000000000E+000
   2.03490000000000         0.000000000000000E+000
   2.27430000000000         0.000000000000000E+000
   2.51370000000000         0.000000000000000E+000
   2.75310000000000         0.000000000000000E+000
   2.99250000000000         0.000000000000000E+000
   3.23190000000000         0.000000000000000E+000
   3.47130000000000         0.000000000000000E+000
   3.71070000000000         0.000000000000000E+000
   3.95010000000000         0.000000000000000E+000
   4.18950000000000         0.000000000000000E+000
   4.42890000000000         0.000000000000000E+000
   4.66830000000000         0.000000000000000E+000
   4.90770000000000         0.000000000000000E+000
   5.14710000000000         0.000000000000000E+000
   5.38650000000000         0.000000000000000E+000
   5.62590000000000         0.000000000000000E+000
   5.86530000000000         0.000000000000000E+000
   6.10470000000000         0.000000000000000E+000
   6.34410000000000         0.000000000000000E+000
   6.58350000000000         0.000000000000000E+000
   6.82290000000000         0.000000000000000E+000
   7.06230000000000         0.000000000000000E+000
   7.30170000000000         0.000000000000000E+000
   7.54110000000000         0.000000000000000E+000
   7.78050000000000         0.000000000000000E+000
   8.01990000000000         0.000000000000000E+000
   8.25930000000000         0.000000000000000E+000
   8.49870000000000        -3.430055430983246E-177
   8.73810000000000        -1.833660062381936E-165
   8.97750000000000         8.222117700035410E-163
   9.21690000000000        -4.163928836978578E-161
   9.45630000000000         7.944209335256492E-159
   9.69570000000000         8.202623628976566E-157
   9.93510000000000         3.419508939082760E-155
   10.1745000000000         8.827785143418810E-154
   10.4139000000000         1.619061371369742E-152
   10.6533000000000         2.240727400987159E-151
   10.8927000000000         2.384913993638482E-150
   11.1321000000000         1.895482265086890E-149
   11.3715000000000         9.393128005776443E-149
   11.6109000000000        -1.093750652521724E-148
   11.8503000000000        -8.989041787246625E-147
   12.0897000000000        -1.264889176044029E-145
   12.3291000000000        -1.247079037763229E-144
   12.5685000000000        -9.996470769999660E-144
   12.8079000000000        -6.846161563481074E-143
   13.0473000000000        -4.090189154544041E-142
   13.2867000000000        -2.147132643840312E-141
   13.5261000000000        -9.873696803728445E-141
   13.7655000000000        -3.917435515470883E-140
   14.0049000000000        -1.292965874775615E-139
   14.2443000000000        -3.254297807023205E-139
   14.4837000000000        -4.813476889125445E-139
   14.7231000000000        -1.216671648760291E-139
   14.9625000000000        -6.643017144393816E-138
   15.2019000000000        -1.283322123307317E-136
   15.4413000000000        -1.265698344188491E-135
   15.6807000000000        -9.295976924475273E-135
   15.9201000000000        -5.721027271865631E-134
   16.1595000000000        -3.109427385646500E-133
   16.3989000000000        -1.535281269798888E-132
   16.6383000000000        -7.005493589165573E-132
   16.8777000000000        -2.987677848691454E-131
   17.1171000000000        -1.200328723897062E-130
   17.3565000000000        -4.569245219102719E-130
   17.5959000000000        -1.655246147197968E-129
   17.8353000000000        -5.725656729306310E-129
   18.0747000000000        -1.896243015389009E-128
   18.3141000000000        -6.025537516503735E-128
   18.5535000000000        -1.840235652065387E-127
   18.7929000000000        -5.409013226935520E-127
   19.0323000000000        -1.531754396294033E-126
   19.2717000000000        -4.182376655884632E-126
   19.5111000000000        -1.101611423737849E-125
   19.7505000000000        -2.799373150588949E-125
   19.9899000000000        -6.860659527803405E-125
   20.2293000000000        -1.619797884575602E-124
   20.4687000000000        -3.675338951403695E-124
   20.7081000000000        -7.975841622927513E-124
   20.9475000000000        -1.639413769422912E-123
   21.1869000000000        -3.126811238890316E-123
   21.4263000000000        -5.264776771023060E-123
   21.6657000000000        -6.638967474010966E-123
   21.9051000000000        -2.009883143287392E-124
   22.1445000000000         4.028050459043376E-122
   22.3839000000000         2.011689837766447E-121
   22.6233000000000         7.469583944483127E-121
   22.8627000000000         2.446367969602930E-120
   23.1021000000000         7.438546950793239E-120
   23.3415000000000         2.144569173467891E-119
   23.5809000000000         5.920507696138439E-119
   23.8203000000000         1.572692313355475E-118
   24.0597000000000         4.028951389974839E-118
   24.2991000000000         9.962877899349603E-118
   24.5385000000000         2.377975535671392E-117
   24.7779000000000         5.474364587702750E-117
   25.0173000000000         1.213739389897975E-116
   25.2567000000000         2.585572928256872E-116
   25.4961000000000         5.272838310946111E-116
   25.7355000000000         1.023557030611705E-115
   25.9749000000000         1.873719090531449E-115
   26.2143000000000         3.181493600230572E-115
   26.4537000000000         4.845774360260537E-115
   26.6931000000000         6.079372804177199E-115
   26.9325000000000         4.303729803386576E-115
   27.1719000000000        -7.148346159067455E-115
   27.4113000000000        -4.341375833435629E-114
   27.6507000000000        -1.357629456515688E-113
   27.8901000000000        -3.437102725570188E-113
   28.1295000000000        -7.715295602899997E-113
   28.3689000000000        -1.584902677102998E-112
   28.6083000000000        -3.012334419241649E-112
   28.8477000000000        -5.290532911866955E-112
   29.0871000000000        -8.459421445354613E-112
   29.3265000000000        -1.180708477018105E-111
   29.5659000000000        -1.257046271345410E-111
   29.8053000000000        -3.164265244090919E-112
   30.0447000000000         3.430444271927683E-111
   30.2841000000000         1.381413472654101E-110
   30.5235000000000         3.842061214713435E-110
   30.7629000000000         9.118650339776527E-110
   31.0023000000000         1.956148165753907E-109
   31.2417000000000         3.869604759540028E-109
   31.4811000000000         7.082475364056569E-109
   31.7205000000000         1.187375228696168E-108
   31.9599000000000         1.767771080535360E-108
   32.1993000000000         2.139374330473623E-108
   32.4387000000000         1.378137061681680E-108
   32.6781000000000        -2.743452126961786E-108
   32.9175000000000        -1.493750572946133E-107
   33.1569000000000        -4.416518950048227E-107
   33.3963000000000        -1.057415899650899E-106
   33.6357000000000        -2.226216273336743E-106
   33.8751000000000        -4.226819134204610E-106
   34.1145000000000        -7.249416440027845E-106
   34.3539000000000        -1.101185105413418E-105
   34.5933000000000        -1.390179445346902E-105
   34.8327000000000        -1.131451170725262E-105
   35.0721000000000         7.190088110521615E-106
   35.3115000000000         6.211723173139915E-105
   35.5509000000000         1.891552815157506E-104
   35.7903000000000         4.428971203400940E-104
   36.0297000000000         8.932068513496901E-104
   36.2691000000000         1.601760582856326E-103
   36.5085000000000         2.556277249587118E-103
   36.7479000000000         3.527144466328768E-103
   36.9873000000000         3.799685961796502E-103
   37.2267000000000         1.736293463010291E-103
   37.4661000000000        -5.840993226305098E-103
   37.7055000000000        -2.434478388943245E-102
   37.9449000000000        -6.184196420237729E-102
   38.1843000000000        -1.283847776496288E-101
   38.4237000000000        -2.326962188108103E-101
   38.6631000000000        -3.736318741167450E-101
   38.9025000000000        -5.227379139915010E-101
   39.1419000000000        -5.936304469687639E-101
   39.3813000000000        -3.951045865924811E-101
   39.6207000000000         4.298805737234704E-101
   39.8601000000000         2.464388779710825E-100
   40.0995000000000         6.536959995936451E-100
   40.3389000000000         1.361879054780229E-099
   40.5783000000000         2.445715078211266E-099
   40.8177000000000         3.873218652668325E-099
   41.0571000000000         5.346626591484319E-099
   41.2965000000000         6.042643359578101E-099
   41.5359000000000         4.244406531470670E-099
   41.7753000000000        -3.090692172129880E-099
   42.0147000000000        -2.067638437196770E-098
   42.2541000000000        -5.481998776270401E-098
   42.4935000000000        -1.123082703524528E-097
   42.7329000000000        -1.972897681435084E-097
   42.9723000000000        -3.048410963425540E-097
   43.2117000000000        -4.097688153302265E-097
   43.4511000000000        -4.496537062328329E-097
   43.6905000000000        -3.028054798658877E-097
   43.9299000000000         2.344855569477710E-097
   44.1693000000000         1.460264169925103E-096
   44.4087000000000         3.747120489307353E-096
   44.6481000000000         7.454448823333271E-096
   44.8875000000000         1.272133309642986E-095
   45.1269000000000         1.907768562309611E-095
   45.3663000000000         2.481686395357061E-095
   45.6057000000000         2.611493815620992E-095
   45.8451000000000         1.598845619410536E-095
   46.0845000000000        -1.661167103171562E-095
   46.3239000000000        -8.693619991325989E-095
   46.5633000000000        -2.126931119515832E-094
   46.8027000000000        -4.087414164326406E-094
   47.0421000000000        -6.760267324624379E-094
   47.2815000000000        -9.824205637276183E-094
   47.5209000000000        -1.233906932658943E-093
   47.7603000000000        -1.237084032019356E-093
   47.9997000000000        -6.592615495538076E-094
   48.2391000000000         9.983862710883932E-094
   48.4785000000000         4.385453285615591E-093
   48.7179000000000         1.019793833369085E-092
   48.9573000000000         1.891966478226198E-092
   49.1967000000000         3.033230066674688E-092
   49.4361000000000         4.272463853229025E-092
   49.6755000000000         5.178015678820755E-092
   49.9149000000000         4.923864024121930E-092
   50.1543000000000         2.164413808205020E-092
   50.3937000000000        -5.016691477921439E-092
   50.6331000000000        -1.897158570864239E-091
   50.8725000000000        -4.200067079803709E-091
   51.1119000000000        -7.529908729679884E-091
   51.3513000000000        -1.171119843155623E-090
   51.5907000000000        -1.599435609988614E-090
   51.8301000000000        -1.868823502887288E-090
   52.0695000000000        -1.675491129447089E-090
   52.3089000000000        -5.491905369318668E-091
   52.5483000000000         2.146477732703957E-090
   52.7877000000000         7.144786679891154E-090
   53.0271000000000         1.508692849444948E-089
   53.2665000000000         2.615396553057288E-089
   53.5059000000000         3.946589205818641E-089
   53.7453000000000         5.222767007268567E-089
   53.9847000000000         5.868131159915843E-089
   54.2241000000000         4.906633867857885E-089
   54.4635000000000         9.011431182880340E-090
   54.7029000000000        -7.992537304930195E-089
   54.9423000000000        -2.375177065798863E-088
   55.1817000000000        -4.786010366560620E-088
   55.4211000000000        -8.018738467567506E-088
   55.6605000000000        -1.172777919974291E-087
   55.8999000000000        -1.500689307121300E-087
   56.1393000000000        -1.613086066857647E-087
   56.3787000000000        -1.233346339187404E-087
   56.6181000000000         2.552355305160137E-089
   56.8575000000000         2.632041700323908E-087
   57.0969000000000         7.046276606973908E-087
   57.3363000000000         1.353863337696990E-086
   57.5757000000000         2.189021877553857E-086
   57.8151000000000         3.096367686691735E-086
   58.0545000000000         3.817000428337619E-086
   58.2939000000000         3.892128067135814E-086
   58.5333000000000         2.625579060774749E-086
   58.7727000000000        -9.052517306082975E-087
   59.0121000000000        -7.745082676337613E-086
   59.2515000000000        -1.880697253073108E-085
   59.4909000000000        -3.441110542236067E-085
   59.7303000000000        -5.357523622519052E-085
   59.9697000000000        -7.306448945780769E-085
   60.2091000000000        -8.630165223577860E-085
   60.4485000000000        -8.238768535203728E-085
   60.6879000000000        -4.568647606184588E-085
   60.9273000000000         4.333073445731300E-085
   61.1667000000000         2.050567882666247E-084
   61.4061000000000         4.544870477729264E-084
   61.6455000000000         7.907991891398624E-084
   61.8849000000000         1.182411053608168E-083
   62.1243000000000         1.548373426807213E-083
   62.3637000000000         1.739027945922071E-083
   62.6031000000000         1.521869519028271E-083
   62.8425000000000         5.823350094752806E-084
   63.0819000000000        -1.446782710833849E-083
   63.3213000000000        -4.910600927728774E-083
   63.5607000000000        -9.995307207099947E-083
   63.8001000000000        -1.651792861309672E-082
   64.0395000000000        -2.364576271691746E-082
   64.2789000000000        -2.957489640632914E-082
   64.5183000000000        -3.123768726980215E-082
   64.7577000000000        -2.416276233544509E-082
   64.9971000000000        -2.671981085209462E-083
   65.2365000000000         3.934687199052146E-082
   65.4759000000000         1.068290005542343E-081
   65.7153000000000         2.008618409626028E-081
   65.9547000000000         3.148841032180444E-081
   66.1941000000000         4.299909326716408E-081
   66.4335000000000         5.100809784572246E-081
   66.6729000000000         4.982785264948473E-081
   66.9123000000000         3.169045611756184E-081
   67.1517000000000        -1.258936528533513E-081
   67.3911000000000        -9.191885366057357E-081
   67.6305000000000        -2.118470392372590E-080
   67.8699000000000        -3.698869137173872E-080
   68.1093000000000        -5.493539458700295E-080
   68.3487000000000        -7.124041351678154E-080
   68.5881000000000        -7.937903887102059E-080
   68.8275000000000        -6.979174555613029E-080
   69.0669000000000        -3.029167647656205E-080
   69.3063000000000         5.236102912758284E-080
   69.5457000000000         1.892289310753602E-079
   69.7851000000000         3.839305817254549E-079
   70.0245000000000         6.252748347628365E-079
   70.2639000000000         8.783339836620624E-079
   70.5033000000000         1.075421976672421E-078
   70.7427000000000         1.109681003422002E-078
   70.9821000000000         8.353944050607887E-079
   71.2215000000000         8.044383553743973E-080
   71.4609000000000        -1.322979352847652E-078
   71.7003000000000        -3.483917975811680E-078
   71.9397000000000        -6.371754428741459E-078
   72.1791000000000        -9.712050191584781E-078
   72.4185000000000        -1.287189386100494E-077
   72.6579000000000        -1.476092780461350E-077
   72.8973000000000        -1.379036540488634E-077
   73.1367000000000        -7.948493837496192E-078
   73.3761000000000         4.937461814135605E-078
   73.6155000000000         2.668384822426393E-077
   73.8549000000000         5.793000353654426E-077
   74.0943000000000         9.702011914514992E-077
   74.3337000000000         1.386857046248693E-076
   74.5731000000000         1.727622277263274E-076
   74.8125000000000         1.833445555399358E-076
   75.0519000000000         1.489693481809115E-076
   75.2913000000000         4.456398894209669E-077
   75.5307000000000        -1.540480665637100E-076
   75.7701000000000        -4.624381879757428E-076
   76.0095000000000        -8.764523250127582E-076
   76.2489000000000        -1.358305988472841E-075
   76.4883000000000        -1.821802432768485E-075
   76.7277000000000        -2.120275751274776E-075
   76.9671000000000        -2.042784603443471E-075
   77.2065000000000        -1.325852920164317E-075
   77.4459000000000         3.109525226250645E-076
   77.6853000000000         3.097962144108101E-075
   77.9247000000000         7.112522652485110E-075
   78.1641000000000         1.214294096776587E-074
   78.4035000000000         1.753326828760932E-074
   78.6429000000000         2.203867062497305E-074
   78.8823000000000         2.373994653826418E-074
   79.1217000000000         2.008457515891177E-074
   79.3611000000000         8.135211725910308E-075
   79.6005000000000        -1.489282324632128E-074
   79.8399000000000        -5.074524700400704E-074
   80.0793000000000        -9.888794374688899E-074
   80.3187000000000        -1.550001475336134E-073
   80.5581000000000        -2.094275515997037E-073
   80.7975000000000        -2.459937084021590E-073
   81.0369000000000        -2.417531105484200E-073
   81.2763000000000        -1.684247774059365E-073
   81.5157000000000         3.692474093474946E-075
   81.7551000000000         2.986349124734185E-073
   81.9945000000000         7.242107604352696E-073
   82.2339000000000         1.258380229824982E-072
   82.4733000000000         1.834123004384611E-072
   82.7127000000000         2.325822633724500E-072
   82.9521000000000         2.541893373970806E-072
   83.1915000000000         2.229970551101567E-072
   83.4309000000000         1.101983699557848E-072
   83.6703000000000        -1.113842181078852E-072
   83.9097000000000        -4.589350442049670E-072
   84.1491000000000        -9.281656734402549E-072
   84.3885000000000        -1.479624247796954E-071
   84.6279000000000        -2.024897509724599E-071
   84.8673000000000        -2.416262976604676E-071
   85.1067000000000        -2.444846566609979E-071
   85.3461000000000        -1.853520421911286E-071
   85.5855000000000        -3.711174533609553E-072
   85.8249000000000         2.226600766209989E-071
   86.0643000000000         6.027091091563610E-071
   86.3037000000000         1.086620112133022E-070
   86.5431000000000         1.620129657569360E-070
   86.7825000000000         2.099690424023222E-070
   87.0219000000000         2.366040076172790E-070
   87.2613000000000         2.207715127625964E-070
   87.5007000000000         1.380155434886671E-070
   87.7401000000000        -3.542214584458650E-071
   87.9795000000000        -3.161392594449898E-070
   88.2189000000000        -7.046818458135705E-070
   88.4583000000000        -1.174877849867511E-069
   88.6977000000000        -1.662911893411504E-069
   88.9371000000000        -2.058694767561184E-069
   89.1765000000000        -2.203143923154436E-069
   89.4159000000000        -1.895833671371273E-069
   89.6553000000000        -9.177501427614425E-070
   89.8947000000000         9.268255888870772E-070
   90.1341000000000         3.747424329274117E-069
   90.3735000000000         7.485541629026820E-069
   90.6129000000000         1.182178350161758E-068
   90.8523000000000         1.608757518201490E-068
   91.0917000000000         1.920558718733562E-068
   91.3311000000000         1.969110508191062E-068
   91.5705000000000         1.575188591619956E-068
   91.8099000000000         5.523661976892362E-069
   92.0493000000000        -1.253099185273441E-068
   92.2887000000000        -3.905445488418102E-068
   92.5281000000000        -7.308686772478801E-068
   92.7675000000000        -1.113013954047428E-067
   93.0069000000000        -1.473261432147794E-067
   93.2463000000000        -1.713636255466213E-067
   93.4857000000000        -1.703761876893333E-067
   93.7251000000000        -1.291353205113744E-067
   93.9645000000000        -3.241110142802328E-068
   94.2039000000000         1.315200515772435E-067
   94.4433000000000         3.660677117249695E-067
   94.6827000000000         6.605459587598495E-067
   94.9221000000000         9.841575600992993E-067
   95.1615000000000         1.280969882950042E-066
   95.4009000000000         1.467600759831850E-066
   95.6403000000000         1.435722769485949E-066
   95.8797000000000         1.061636896523252E-066
   96.1191000000000         2.248881036045835E-067
   96.3585000000000        -1.162981422915286E-066
   96.5979000000000        -3.120065386122617E-066
   96.8373000000000        -5.549061444621570E-066
   97.0767000000000        -8.191671326705713E-066
   97.3161000000000        -1.059211792087403E-065
   97.5555000000000        -1.208295282381791E-065
   97.7949000000000        -1.180890210634948E-065
   98.0343000000000        -8.805092075220352E-066
   98.2737000000000        -2.143386975211370E-066
   98.5131000000000         8.846446490685081E-066
   98.7525000000000         2.428637117847116E-065
   98.9919000000000         4.341406343150346E-065
   99.2313000000000         6.424755796078352E-065
   99.4707000000000         8.332222447221073E-065
   99.7101000000000         9.559575928756621E-065
   99.9495000000000         9.463374235876748E-065
   100.188900000000         7.319063895872495E-065
   100.428300000000         2.428062926778549E-065
   100.667700000000        -5.721859372971457E-065
   100.907100000000        -1.724736235920318E-064
   101.146500000000        -3.162846407698493E-064
   101.385900000000        -4.746830915935588E-064
   101.625300000000        -6.230375733297042E-064
   101.864700000000        -7.253295533375327E-064
   102.104100000000        -7.353722283779688E-064
   102.343500000000        -6.007584014565281E-064
   102.582900000000        -2.701825353457195E-064
   102.822300000000         2.955629302286119E-064
   103.061700000000         1.109202370831324E-063
   103.301100000000         2.140320186832606E-063
   103.540500000000         3.298587851413355E-063
   103.779900000000         4.420172406062383E-063
   104.019300000000         5.261695527397066E-063
   104.258700000000         5.506863932831165E-063
   104.498100000000         4.791012068804445E-063
   104.737500000000         2.747943120944418E-063
   104.976900000000        -9.186994725520592E-064
   105.216300000000        -6.340981301427850E-063
   105.455700000000        -1.337585748985184E-062
   105.695100000000        -2.149129076083516E-062
   105.934500000000        -2.966992827391946E-062
   106.173900000000        -3.635792934703350E-062
   106.413300000000        -3.949164252190002E-062
   106.652700000000        -3.663616402911629E-062
   106.892100000000        -2.526525319287079E-062
   107.131500000000        -3.199612087048462E-063
   107.370900000000         3.080133548223502E-062
   107.610300000000         7.633072899873988E-062
   107.849700000000         1.305854639451339E-061
   108.089100000000         1.876995228253864E-061
   108.328500000000         2.383260508820404E-061
   108.567900000000         2.696692796534456E-061
   108.807300000000         2.661807610829092E-061
   109.046700000000         2.111139276115958E-061
   109.286100000000         8.906436371831003E-062
   109.525500000000        -1.104992679155219E-061
   109.764900000000        -3.888907497891623E-061
   110.004300000000        -7.334615441875789E-061
   110.243700000000        -1.113141148260245E-060
   110.483100000000        -1.475222817622759E-060
   110.722500000000        -1.744583022828559E-060
   110.961900000000        -1.826640467369360E-060
   111.201300000000        -1.615293867860995E-060
   111.440700000000        -1.006753079055224E-060
   111.680100000000         8.046552103558060E-062
   111.919500000000         1.680102363459565E-060
   112.158900000000         3.749325732800738E-060
   112.398300000000         6.140130996438531E-060
   112.637700000000         8.576234573739732E-060
   112.877100000000         1.064218733912262E-059
   113.116500000000         1.179235375127033E-059
   113.355900000000         1.138737708387941E-059
   113.595300000000         8.764349863637566E-060
   113.834700000000         3.343756254738699E-060
   114.074100000000        -5.228883478397550E-060
   114.313500000000        -1.691584221552551E-059
   114.552900000000        -3.111236863369022E-059
   114.792300000000        -4.649158406438463E-059
   115.031700000000        -6.090538751756217E-059
   115.271100000000        -7.138422883772229E-059
   115.510500000000        -7.428059715737302E-059
   115.749900000000        -6.559609163983232E-059
   115.989300000000        -4.151776938575557E-059
   116.228700000000         8.354980494399551E-061
   116.468100000000         6.249210401361771E-059
   116.707500000000         1.416137100581856E-058
   116.946900000000         2.325219260919775E-058
   117.186300000000         3.249515911044772E-058
   117.425700000000         4.037596072623746E-058
   117.665100000000         4.493407691290278E-058
   117.904500000000         4.389911802084977E-058
   118.143900000000         3.494030612672443E-058
   118.383300000000         1.603618743765298E-058
   118.622700000000        -1.404572126962899E-058
   118.862100000000        -5.519280423628953E-058
   119.101500000000        -1.053756449652519E-057
   119.340900000000        -1.601506021229766E-057
   119.580300000000        -2.123526777750246E-057
   119.819700000000        -2.521124761354210E-057
   120.059100000000        -2.673338999988189E-057
   120.298500000000        -2.447503446499783E-057
   120.537900000000        -1.716305167811348E-057
   120.777300000000        -3.812675334227194E-058
   121.016700000000         1.598513632087659E-057
   121.256100000000         4.174921792595279E-057
   121.495500000000         7.180721314335543E-057
   121.734900000000         1.030635526289597E-056
   121.974300000000         1.309037210049461E-056
   122.213700000000         1.493078290930262E-056
   122.453100000000         1.512425315400597E-056
   122.692500000000         1.293833594961064E-056
   122.931900000000         7.718701910492961E-057
   123.171300000000        -9.715905188892361E-058
   123.410700000000        -1.319018600177906E-056
   123.650100000000        -2.844784012728000E-056
   123.889500000000        -4.555998221972948E-056
   124.128900000000        -6.254933456301827E-056
   124.368300000000        -7.663625659260511E-056
   124.607700000000        -8.435425550263146E-056
   124.847100000000        -8.182315115583657E-056
   125.086500000000        -6.520020316625924E-056
   125.325900000000        -3.130916780647702E-056
   125.565300000000         2.158124120290618E-056
   125.804700000000         9.289334352332399E-056
   126.044100000000         1.788940230926015E-055
   126.283500000000         2.720073112461419E-055
   126.522900000000         3.604587115451409E-055
   126.762300000000         4.284400771137203E-055
   127.001700000000         4.569764417696979E-055
   127.241100000000         4.256372121255094E-055
   127.480500000000         3.151573550582368E-055
   127.719900000000         1.109170268611043E-055
   127.959300000000        -1.929268047424758E-055
   128.198700000000        -5.890461143104785E-055
   128.438100000000        -1.052867450316674E-054
   128.677500000000        -1.539577037439128E-054
   128.916900000000        -1.983092171684785E-054
   129.156300000000        -2.297924122753917E-054
   129.395700000000        -2.384767295390812E-054
   129.635100000000        -2.140394856353606E-054
   129.874500000000        -1.471999249525601E-054
   130.113900000000        -3.154840536055865E-055
   130.353300000000         1.343583190695200E-054
   130.592700000000         3.448548952577223E-054
   130.832100000000         5.852881159180115E-054
   131.071500000000         8.307880161020596E-054
   131.310900000000         1.046124290584998E-053
   131.550300000000         1.187082087426400E-053
   131.789700000000         1.203723847784165E-053
   132.029100000000         1.045755465194378E-053
   132.268500000000         6.699780322999599E-054
   132.507900000000         4.948388855763144E-055
   132.747300000000        -8.161352564718371E-054
   132.986700000000        -1.890725835771099E-053
   133.226100000000        -3.093221834068330E-053
   133.465500000000        -4.292896176851844E-053
   133.704900000000        -5.310263475138176E-053
   133.944300000000        -5.925594101857336E-053
   134.183700000000        -5.896584034115916E-053
   134.423100000000        -4.985926528982640E-053
   134.662500000000        -2.998330574036684E-053
   134.901900000000         1.750398105068480E-054
   135.141300000000         4.508571880673316E-053
   135.380700000000         9.796456560354408E-053
   135.620100000000         1.561676152871036E-052
   135.859500000000         2.131419355825101E-052
   136.098900000000         2.601086876508083E-052
   136.338300000000         2.865364725988277E-052
   136.577700000000         2.810429378160883E-052
   136.817100000000         2.327469008916099E-052
   137.056500000000         1.330352261405971E-052
   137.295900000000        -2.236474781084397E-053
   137.535300000000        -2.311999746410160E-052
   137.774700000000        -4.826714025374758E-052
   138.014100000000        -7.559308970539776E-052
   138.253500000000        -1.019497214132398E-051
   138.492900000000        -1.232001415538163E-051
   138.732300000000        -1.344624115425116E-051