  -1.79550000000000         0.000000000000000E+000
  -1.55610000000000         0.000000000000000E+000
  -1.31670000000000         0.000000000000000E+000
  -1.07730000000000         0.000000000000000E+000
 -0.837900000000000         0.000000000000000E+000
 -0.598500000000000         0.000000000000000E+000
 -0.359100000000000         0.000000000000000E+000
 -0.119700000000000         0.000000000000000E+000
  0.119700000000000         0.000000000000000E+000
  0.359100000000000         0.000000000000000E+000
  0.598500000000000         0.000000000000000E+000
  0.837900000000000         0.000000000000000E+000
   1.07730000000000         0.000000000000000E+000
   1.31670000000000         0.000000000000000E+000
   1.55610000000000         0.000000000000000E+000
   1.79550000000000         0.000000000000000E+000
   2.03490000000000         0.000000000000000E+000
   2.27430000000000         0.000000000000000E+000
   2.51370000000000         0.000000000000000E+000
   2.75310000000000         0.000000000000000E+000
   2.99250000000000         0.000000000000000E+000
   3.23190000000000         0.000000000000000E+000
   3.47130000000000         0.000000000000000E+000
   3.71070000000000         0.000000000000000E+000
   3.95010000000000         0.000000000000000E+000
   4.18950000000000         0.000000000000000E+000
   4.42890000000000         0.000000000000000E+000
   4.66830000000000         0.000000000000000E+000
   4.90770000000000         0.000000000000000E+000
   5.14710000000000         0.000000000000000E+000
   5.38650000000000         0.000000000000000E+000
   5.62590000000000         0.000000000000000E+000
   5.86530000000000         0.000000000000000E+000
   6.10470000000000         0.000000000000000E+000
   6.34410000000000         0.000000000000000E+000
   6.58350000000000         0.000000000000000E+000
   6.82290000000000         0.000000000000000E+000
   7.06230000000000         0.000000000000000E+000
   7.30170000000000         0.000000000000000E+000
   7.54110000000000         0.000000000000000E+000
   7.78050000000000         0.000000000000000E+000
   8.01990000000000         0.000000000000000E+000
   8.25930000000000         0.000000000000000E+000
   8.49870000000000         0.000000000000000E+000
   8.73810000000000        -3.435806261989179E-178
   8.97750000000000         1.151587229995129E-165
   9.21690000000000        -5.545095710774822E-163
   9.45630000000000         2.431487928414350E-161
   9.69570000000000         2.921726509567129E-159
   9.93510000000000         1.178794275718954E-157
   10.1745000000000         3.788490516302323E-156
   10.4139000000000         1.161562788800552E-154
   10.6533000000000         3.103096945787739E-153
   10.8927000000000         6.711556801827279E-152
   11.1321000000000         1.165038959446266E-150
   11.3715000000000         1.645875201904528E-149
   11.6109000000000         1.918911090692212E-148
   11.8503000000000         1.855645858297888E-147
   12.0897000000000         1.469329162199572E-146
   12.3291000000000         8.988715833396260E-146
   12.5685000000000         3.256449060384167E-145
   12.8079000000000        -1.121148588149789E-144
   13.0473000000000        -3.598244286267895E-143
   13.2867000000000        -4.369142655648612E-142
   13.5261000000000        -4.010353591898364E-141
   13.7655000000000        -3.131298182606991E-140
   14.0049000000000        -2.175391192945429E-139
   14.2443000000000        -1.376051967718596E-138
   14.4837000000000        -8.037171388796077E-138
   14.7231000000000        -4.375949452491740E-137
   14.9625000000000        -2.236491842839491E-136
   15.2019000000000        -1.078778396408277E-135
   15.4413000000000        -4.932447927965767E-135
   15.6807000000000        -2.145576293961304E-134
   15.9201000000000        -8.907200898839940E-134
   16.1595000000000        -3.538808477829257E-133
   16.3989000000000        -1.348879704816108E-132
   16.6383000000000        -4.944011490258744E-132
   16.8777000000000        -1.746195749830289E-131
   17.1171000000000        -5.954831240757651E-131
   17.3565000000000        -1.964296797453040E-130
   17.5959000000000        -6.278282867709647E-130
   17.8353000000000        -1.947276937658185E-129
   18.0747000000000        -5.868407721807579E-129
   18.3141000000000        -1.719997169210421E-128
   18.5535000000000        -4.905254528160077E-128
   18.7929000000000        -1.361013659063227E-127
   19.0323000000000        -3.670293793160941E-127
   19.2717000000000        -9.599124134598553E-127
   19.5111000000000        -2.425283527271006E-126
   19.7505000000000        -5.880774225648438E-126
   19.9899000000000        -1.353191896412338E-125
   20.2293000000000        -2.894437916737586E-125
   20.4687000000000        -5.507834122202409E-125
   20.7081000000000        -8.230033744175034E-125
   20.9475000000000        -4.068585352000419E-125
   21.1869000000000         3.605228991622618E-124
   21.4263000000000         2.122122796751293E-123
   21.6657000000000         8.341788526661162E-123
   21.9051000000000         2.791953759450754E-122
   22.1445000000000         8.495031316392857E-122
   22.3839000000000         2.413778150559142E-121
   22.6233000000000         6.490122456761458E-121
   22.8627000000000         1.663073898368020E-120
   23.1021000000000         4.076917118325239E-120
   23.3415000000000         9.578500789483824E-120
   23.5809000000000         2.157581888648609E-119
   23.8203000000000         4.655586716097398E-119
   24.0597000000000         9.603498487756673E-119
   24.2991000000000         1.887287597597218E-118
   24.5385000000000         3.514928109876550E-118
   24.7779000000000         6.155344930029750E-118
   25.0173000000000         1.001626496296107E-117
   25.2567000000000         1.487165532133134E-117
   25.4961000000000         1.958136769545293E-117
   25.7355000000000         2.195214089396192E-117
   25.9749000000000         2.082304618053360E-117
   26.2143000000000         2.572619691787147E-117
   26.4537000000000         8.705388982165542E-117
   26.6931000000000         3.744386138381762E-116
   26.9325000000000         1.356594285726961E-115
   27.1719000000000         4.173710319892073E-115
   27.4113000000000         1.133624263356282E-114
   27.6507000000000         2.789997734967193E-114
   27.8901000000000         6.317075609351448E-114
   28.1295000000000         1.325900463915750E-113
   28.3689000000000         2.583557620657764E-113
   28.6083000000000         4.648168723878631E-113
   28.8477000000000         7.594656156235987E-113
   29.0871000000000         1.080251924817754E-112
   29.3265000000000         1.171300605938423E-112
   29.5659000000000         3.159062726127632E-113
   29.8053000000000        -3.201550488949982E-112
   30.0447000000000        -1.312758014284971E-111
   30.2841000000000        -3.713252209123335E-111
   30.5235000000000        -9.011744118833546E-111
   30.7629000000000        -1.996244497620880E-110
   31.0023000000000        -4.137925789271434E-110
   31.2417000000000        -8.107338643301110E-110
   31.4811000000000        -1.503069330869077E-109
   31.7205000000000        -2.617880440727682E-109
   31.9599000000000        -4.201433658651773E-109
   32.1993000000000        -5.934673516134940E-109
   32.4387000000000        -6.429034374910819E-109
   32.6781000000000        -1.684183241349245E-109
   32.9175000000000         1.796028626177834E-108
   33.1569000000000         7.325663095791040E-108
   33.3963000000000         2.045866328409051E-107
   33.6357000000000         4.830307089162710E-107
   33.8751000000000         1.019378217565083E-106
   34.1145000000000         1.956973307570322E-106
   34.3539000000000         3.415072225974259E-106
   34.5933000000000         5.315426744211106E-106
   34.8327000000000         6.972887102190822E-106
   35.0721000000000         6.266478204451912E-106
   35.3115000000000        -1.840604555366660E-106
   35.5509000000000        -2.761767727109964E-105
   35.7903000000000        -8.960010825830022E-105
   36.0297000000000        -2.173538189959399E-104
   36.2691000000000        -4.510849551843646E-104
   36.5085000000000        -8.316572473836776E-104
   36.7479000000000        -1.368807309422955E-103
   36.9873000000000        -1.967372280315444E-103
   37.2267000000000        -2.282898632296503E-103
   37.4661000000000        -1.474546295962460E-103
   37.7055000000000         2.163014102393631E-103
   37.9449000000000         1.165311669150726E-102
   38.1843000000000         3.170960908175821E-102
   38.4237000000000         6.860389722404704E-102
   38.6631000000000         1.286637234528762E-101
   38.9025000000000         2.138977454917697E-101
   39.1419000000000         3.124633064493896E-101
   39.3813000000000         3.810708474942157E-101
   39.6207000000000         3.166305333151226E-101
   39.8601000000000        -8.319290272970723E-102
   40.0995000000000        -1.164184535032857E-100
   40.3389000000000        -3.444194603712687E-100
   40.5783000000000        -7.580972201606147E-100
   40.8177000000000        -1.419587937826393E-099
   41.0571000000000        -2.342037858024028E-099
   41.2965000000000        -3.398223743776752E-099
   41.5359000000000        -4.162808698930636E-099
   41.7753000000000        -3.674764986897112E-099
   42.0147000000000        -1.322586697768383E-100
   42.2541000000000         9.408536492306285E-099
   42.4935000000000         2.914904561650822E-098
   42.7329000000000         6.412010257239624E-098
   42.9723000000000         1.186075880449545E-097
   43.2117000000000         1.925523684225163E-097
   43.4511000000000         2.748387892656383E-097
   43.6905000000000         3.324682773416271E-097
   43.9299000000000         2.953634169441559E-097
   44.1693000000000         3.852941737458556E-098
   44.4087000000000        -6.327634229361163E-097
   44.6481000000000        -1.982500401848316E-096
   44.8875000000000        -4.306239965895274E-096
   45.1269000000000        -7.822406570458622E-096
   45.3663000000000        -1.244744940017654E-095
   45.6057000000000        -1.740568584287491E-095
   45.8451000000000        -2.063973222671767E-095
   46.0845000000000        -1.804020980373670E-095
   46.3239000000000        -2.628736294145643E-096
   46.5633000000000         3.596659760260207E-095
   46.8027000000000         1.110891231680319E-094
   47.0421000000000         2.366127987955078E-094
   47.2815000000000         4.209544937370566E-094
   47.5209000000000         6.556832353065600E-094
   47.7603000000000         8.969909615642017E-094
   47.9997000000000         1.039378404616477E-093
   48.2391000000000         8.836981439724494E-094
   48.4785000000000         1.070555433256660E-094
   48.7179000000000        -1.749214192345994E-093
   48.9573000000000        -5.244950313319059E-093
   49.1967000000000        -1.091654691386354E-092
   49.4361000000000        -1.900501819569334E-092
   49.6755000000000        -2.897392252263031E-092
   49.9149000000000        -3.876977814435728E-092
   50.1543000000000        -4.383275538646877E-092
   50.3937000000000        -3.598412211223622E-092
   50.6331000000000        -2.523943124360914E-093
   50.8725000000000         7.381591473412693E-092
   51.1119000000000         2.130117487904368E-091
   51.3513000000000         4.324883324415162E-091
   51.5907000000000         7.366382133689973E-091
   51.8301000000000         1.099351205225667E-090
   52.0695000000000         1.438639514287024E-090
   52.3089000000000         1.584669549749200E-090
   52.5483000000000         1.246761754620194E-090
   52.7877000000000        -8.242369253032312E-093
   53.0271000000000        -2.744280943923358E-090
   53.2665000000000        -7.577592518007499E-090
   53.5059000000000        -1.498710538647398E-089
   53.7453000000000        -2.496405687982953E-089
   53.9847000000000        -3.645990075988695E-089
   54.2241000000000        -4.662624942298333E-089
   54.4635000000000        -4.991613735491094E-089
   54.7029000000000        -3.724722207173493E-089
   54.9423000000000         4.376107604365131E-090
   55.1817000000000         9.112958627918438E-089
   55.4211000000000         2.395945776767631E-088
   55.6605000000000         4.607936856451625E-088
   55.8999000000000         7.498778112159074E-088
   56.1393000000000         1.070729260344226E-087
   56.3787000000000         1.335899326020345E-087
   56.6181000000000         1.384514313433213E-087
   56.8575000000000         9.643363098775224E-088
   57.0969000000000        -2.708887532951280E-088
   57.3363000000000        -2.731729875113121E-087
   57.5757000000000        -6.808224869662418E-087
   57.8151000000000        -1.270392100834297E-086
   58.0545000000000        -2.016599338739612E-086
   58.2939000000000        -2.810342278323174E-086
   58.5333000000000        -3.411801392415795E-086
   58.7727000000000        -3.403004998697433E-086
   59.0121000000000        -2.156521416699336E-086
   59.2515000000000         1.152083073246979E-086
   59.4909000000000         7.448390778154524E-086
   59.7303000000000         1.753055337061771E-085
   59.9697000000000         3.165698289699959E-085
   60.2091000000000         4.891415524435841E-085
   60.4485000000000         6.637063832353899E-085
   60.6879000000000         7.810492953017175E-085
   60.9273000000000         7.432469189314638E-085
   61.1667000000000         4.097475765038795E-085
   61.4061000000000        -3.955419774655664E-085
   61.6455000000000        -1.857966349449242E-084
   61.8849000000000        -4.117207668656999E-084
   62.1243000000000        -7.175194826622588E-084
   62.3637000000000        -1.076291949540915E-083
   62.6031000000000        -1.417260966924716E-083
   62.8425000000000        -1.607963579119819E-083
   63.0819000000000        -1.440495068911016E-083
   63.3213000000000        -6.302714254474939E-084
   63.5607000000000         1.160557269098281E-083
   63.8001000000000         4.259939820362966E-083
   64.0395000000000         8.867270181817646E-083
   64.2789000000000         1.486757992639724E-082
   64.5183000000000         2.157859777828304E-082
   64.7577000000000         2.745303487397984E-082
   64.9971000000000         2.979365253267963E-082
   65.2365000000000         2.458664965649534E-082
   65.4759000000000         6.615282532142030E-083
   65.7153000000000        -2.993067953247358E-082
   65.9547000000000        -9.010310587766906E-082
   66.1941000000000        -1.758768397082135E-081
   66.4335000000000        -2.827547574741881E-081
   66.6729000000000        -3.954392528515549E-081
   66.9123000000000        -4.831407307631725E-081
   67.1517000000000        -4.957123709712810E-081
   67.3911000000000        -3.625762294405058E-081
   67.6305000000000         2.774895002898247E-083
   67.8699000000000         6.892781503045579E-081
   68.1093000000000         1.762288263101768E-080
   68.3487000000000         3.222482474316374E-080
   68.5881000000000         4.949687236061342E-080
   68.8275000000000         6.636402989755228E-080
   69.0669000000000         7.723126861726108E-080
   69.3063000000000         7.357292210883925E-080
   69.5457000000000         4.408714033584333E-080
   69.7851000000000        -2.415495830858803E-080
   70.0245000000000        -1.430849260473328E-079
   70.2639000000000        -3.191134242352314E-079
   70.5033000000000        -5.465189977970356E-079
   70.7427000000000        -7.990502181571330E-079
   70.9821000000000        -1.020843362595755E-078
   71.2215000000000        -1.118878871665818E-078
   71.4609000000000        -9.605569261162122E-079
   71.7003000000000        -3.813405068005196E-079
   71.9397000000000         7.916179423942118E-079
   72.1791000000000         2.694003557786288E-078
   72.4185000000000         5.353040504938446E-078
   72.6579000000000         8.591001543621487E-078
   72.8973000000000         1.191229059642095E-077
   73.1367000000000         1.439486158029784E-077
   73.3761000000000         1.462205740283133E-077
   73.6155000000000         1.070761568815368E-077
   73.8549000000000         4.806445695968552E-079
   74.0943000000000        -1.809744816720586E-077
   74.3337000000000        -4.622431383030843E-077
   74.5731000000000        -8.323616928911162E-077
   74.8125000000000        -1.253319277767982E-076
   75.0519000000000        -1.642181062916027E-076
   75.2913000000000        -1.860113813953286E-076
   75.5307000000000        -1.709217280665379E-076
   75.7701000000000        -9.441525016038070E-077
   76.0095000000000         6.933720303639205E-077
   76.2489000000000         3.409660046975229E-076
   76.4883000000000         7.259070728479257E-076
   76.7277000000000         1.201115668468927E-075
   76.9671000000000         1.699814156583116E-075
   77.2065000000000         2.097172170152427E-075
   77.4459000000000         2.201744556169514E-075
   77.6853000000000         1.759482649113710E-075
   77.9247000000000         4.786639700868301E-076
   78.1641000000000        -1.915626514126076E-075
   78.4035000000000        -5.590788180240698E-075
   78.6429000000000        -1.047840319808448E-074
   78.8823000000000        -1.611660217432966E-074
   79.1217000000000        -2.148575497744283E-074
   79.3611000000000        -2.487874955785724E-074
   79.6005000000000        -2.386777717315955E-074
   79.8399000000000        -1.544795317530687E-074
   80.0793000000000         3.552503802454757E-075
   80.3187000000000         3.571457093223296E-074
   80.5581000000000         8.187979717591171E-074
   80.7975000000000         1.396440075525189E-073
   81.0369000000000         2.016491593861448E-073
   81.2763000000000         2.539967075781376E-073
   81.5157000000000         2.753043591499940E-073
   81.7551000000000         2.371253101466522E-073
   81.9945000000000         1.065903126197867E-073
   82.2339000000000        -1.478595097978562E-073
   82.4733000000000        -5.470030748887313E-073
   82.7127000000000        -1.087538802566577E-072
   82.9521000000000        -1.725822108566690E-072
   83.1915000000000        -2.360911724488906E-072
   83.4309000000000        -2.820965012714249E-072
   83.6703000000000        -2.858941696023001E-072
   83.9097000000000        -2.165238325865217E-072
   84.1491000000000        -4.056673376199369E-073
   84.3885000000000         2.707687973391858E-072
   84.6279000000000         7.308673375423840E-072
   84.8673000000000         1.323513154673412E-071
   85.1067000000000         1.986646550502104E-071
   85.3461000000000         2.596890520595335E-071
   85.5855000000000         2.959377624550645E-071
   85.8249000000000         2.809093773032755E-071
   86.0643000000000         1.831171500241817E-071
   86.3037000000000        -2.923134166091081E-072
   86.5431000000000        -3.803214998201127E-071
   86.7825000000000        -8.754384105907143E-071
   87.0219000000000        -1.486904642572358E-070
   87.2613000000000        -2.138964051246995E-070
   87.5007000000000        -2.694719728528002E-070
   87.7401000000000        -2.949755967328505E-070
   87.9795000000000        -2.638426953761804E-070
   88.2189000000000        -1.459533187519268E-070
   88.4583000000000         8.723469489838282E-071
   88.6977000000000         4.545897797822301E-070
   88.9371000000000         9.543248964361102E-070
   89.1765000000000         1.550964756928807E-069
   89.4159000000000         2.162131937356593E-069
   89.6553000000000         2.648256520745619E-069
   89.8947000000000         2.809573497763537E-069
   90.1341000000000         2.395767257599142E-069
   90.3735000000000         1.133948445443942E-069
   90.6129000000000        -1.220188232428951E-069
   90.8523000000000        -4.805694328128561E-069
   91.0917000000000        -9.556488332624398E-069
   91.3311000000000        -1.508751424613844E-068
   91.5705000000000        -2.058521127135516E-068
   91.8099000000000        -2.473081074026455E-068
   92.0493000000000        -2.569476595998324E-068
   92.2887000000000        -2.124738842445746E-068
   92.5281000000000        -9.031108590634327E-069
   92.7675000000000         1.297023490507970E-068
   93.0069000000000         4.575392106142516E-068
   93.2463000000000         8.844289083855843E-068
   93.4857000000000         1.373416245151435E-067
   93.7251000000000         1.850664685681509E-067
   93.9645000000000         2.199938079794214E-067
   94.2039000000000         2.263417503026542E-067
   94.4433000000000         1.852441520098405E-067
   94.6827000000000         7.716313293612295E-068
   94.9221000000000        -1.141119062919693E-067
   95.1615000000000        -3.958417577766070E-067
   95.4009000000000        -7.593961360956559E-067
   95.6403000000000        -1.172769882077801E-066
   95.8797000000000        -1.573903444810326E-066
   96.1191000000000        -1.866754299273027E-066
   96.3585000000000        -1.922579220399932E-066
   96.5979000000000        -1.589151909860721E-066
   96.8373000000000        -7.104577824542735E-067
   97.0767000000000         8.414341424658597E-067
   97.3161000000000         3.122309749079499E-066
   97.5555000000000         6.062185589031125E-066
   97.7949000000000         9.408299058036736E-066
   98.0343000000000         1.267509115797029E-065
   98.2737000000000         1.511586825680394E-065
   98.5131000000000         1.573438009380500E-065
   98.7525000000000         1.335616929550741E-065
   98.9919000000000         6.777828875206087E-066
   99.2313000000000        -4.994209061342323E-066
   99.4707000000000        -2.241626927095477E-065
   99.7101000000000        -4.501151846107631E-065
   99.9495000000000        -7.095104177928342E-065
   100.188900000000        -9.668704085719914E-065
   100.428300000000        -1.167432200860532E-064
   100.667700000000        -1.237915983397735E-064
   100.907100000000        -1.091552865281675E-064
   101.146500000000        -6.386369198728286E-065
   101.385900000000         1.965955493192107E-065
   101.625300000000         1.452828994117904E-064
   101.864700000000         3.103663952266174E-064
   102.104100000000         5.027868812128816E-064
   102.343500000000         6.983022081282482E-064
   102.582900000000         8.589700224020262E-064
   102.822300000000         9.334993694677356E-064
   103.061700000000         8.604834295051640E-064
   103.301100000000         5.753769272942100E-064
   103.540500000000         2.177934325420740E-065
   103.779900000000        -8.329862723874760E-064
   104.019300000000        -1.978872889750801E-063
   104.258700000000        -3.342694948532734E-063
   104.498100000000        -4.769622067112080E-063
   104.737500000000        -6.011231089944002E-063
   104.976900000000        -6.725850568817904E-063
   105.216300000000        -6.497434970945063E-063
   105.455700000000        -4.878736559382640E-063
   105.695100000000        -1.462704621627566E-063
   105.934500000000         4.017491032690292E-063
   106.173900000000         1.156479862655501E-062
   106.413300000000         2.078307742411629E-062
   106.652700000000         3.075074054922391E-062
   106.892100000000         3.993212533404548E-062
   107.131500000000         4.616257849332715E-062
   107.370900000000         4.674693253160317E-062
   107.610300000000         3.870892919288051E-062
   107.849700000000         1.921877864267831E-062
   108.089100000000        -1.379461023031440E-062
   108.328500000000        -6.087219284827650E-062
   108.567900000000        -1.201623635394613E-061
   108.807300000000        -1.865863420249130E-061
   109.046700000000        -2.512027642327266E-061
   109.286100000000        -3.009884847246627E-061
   109.525500000000        -3.192792729994534E-061
   109.764900000000        -2.871077307471597E-061
   110.004300000000        -1.856218022945402E-061
   110.243700000000         3.468393194189465E-064
   110.483100000000         2.776766651910621E-061
   110.722500000000         6.396712964459247E-061
   110.961900000000         1.060751448407303E-060
   111.201300000000         1.492095177355148E-060
   111.440700000000         1.859482207075570E-060
   111.680100000000         2.064784178504689E-060
   111.919500000000         1.992550135534919E-060
   112.158900000000         1.522880939495626E-060
   112.398300000000         5.511924804054574E-061
   112.637700000000        -9.855120827069980E-061
   112.877100000000        -3.077605037090244E-060
   113.116500000000        -5.610452432990389E-060
   113.355900000000        -8.335935617904673E-060
   113.595300000000        -1.085483747309533E-059
   113.834700000000        -1.261829302322868E-059
   114.074100000000        -1.295682594235026E-059
   114.313500000000        -1.114442401517996E-059
   114.552900000000        -6.502211302889207E-060
   114.792300000000         1.458750892642090E-060
   115.031700000000         1.286321457826896E-059
   115.271100000000         2.728281577556415E-059
   115.510500000000         4.355941297043440E-059
   115.749900000000         5.967758122402945E-059
   115.989300000000         7.273097584023145E-059
   116.228700000000         7.903066275351247E-059
   116.468100000000         7.439988802244464E-059
   116.707500000000         5.468667547331984E-059
   116.946900000000         1.650124829705474E-059
   117.186300000000        -4.185109674798579E-059
   117.425700000000        -1.193182191742806E-058
   117.665100000000        -2.110614692883138E-058
   117.904500000000        -3.076144559842471E-058
   118.143900000000        -3.944735049672592E-058
   118.383300000000        -4.523797788663095E-058
   118.622700000000        -4.585461648940430E-058
   118.862100000000        -3.890283412659586E-058
   119.101500000000        -2.223281337842681E-058
   119.340900000000         5.585701681756939E-059
   119.580300000000         4.470587194147861E-058
   119.819700000000         9.342356122116722E-058
   120.059100000000         1.476638747125925E-057
   120.298500000000         2.006505511702691E-057
   120.537900000000         2.428924951038499E-057
   120.777300000000         2.626246866041548E-057
   121.016700000000         2.468215528545017E-057
   121.256100000000         1.828536456385127E-057
   121.495500000000         6.077945649449743E-058
   121.734900000000        -1.238464040236359E-057
   121.974300000000        -3.669040279063133E-057
   122.213700000000        -6.527836681646580E-057
   122.453100000000        -9.521557568133831E-057
   122.692500000000        -1.221097002901610E-056
   122.931900000000        -1.402280892068192E-056
   123.171300000000        -1.428888604007148E-056
   123.410700000000        -1.231713306291371E-056
   123.650100000000        -7.495943548461492E-057
   123.889500000000         5.717805102759906E-058
   124.128900000000         1.191484884501082E-056
   124.368300000000         2.603754920590276E-056
   124.607700000000         4.178564484749829E-056
   124.847100000000         5.726560852663243E-056
   125.086500000000         6.985185885166193E-056
   125.325900000000         7.631632767864874E-056
   125.565300000000         7.310845615784208E-056
   125.804700000000         5.680041592159580E-056
   126.044100000000         2.469135956050030E-056
   126.283500000000        -2.446378791757407E-056
   126.522900000000        -8.966934349796348E-056
   126.762300000000        -1.669521418280244E-055
   127.001700000000        -2.488109141167748E-055
   127.241100000000        -3.240138161877728E-055
   127.480500000000        -3.779136962658007E-055
   127.719900000000        -3.934339039809596E-055
   127.959300000000        -3.528296092992223E-055
   128.198700000000        -2.402464273846096E-055
   128.438100000000        -4.497936080907893E-056
   128.677500000000         2.348139997969832E-055
   128.916900000000         5.883592369379902E-055
   129.156300000000         9.890485890984064E-055
   129.395700000000         1.392477908593469E-054
   129.635100000000         1.736528731437300E-054
   129.874500000000         1.944266722055050E-054
   130.113900000000         1.930277996325908E-054
   130.353300000000         1.610760571215538E-054
   130.592700000000         9.172192947728482E-055
   130.832100000000        -1.870089412927806E-055
   131.071500000000        -1.688906693020558E-054
   131.310900000000        -3.508884152660622E-054
   131.550300000000        -5.487830060330675E-054
   131.789700000000        -7.381595478015552E-054
   132.029100000000        -8.866549581888901E-054
   132.268500000000        -9.559486350158559E-054
   132.507900000000        -9.054159844537870E-054
   132.747300000000        -6.975003359239450E-054
   132.986700000000        -3.046146029923056E-054
   133.226100000000         2.829206600788969E-054
   133.465500000000         1.048736553384974E-053
   133.704900000000         1.943242961355567E-053
   133.944300000000         2.878874076996039E-053
   134.183700000000         3.729362890773971E-053
   134.423100000000         4.334627350447053E-053
   134.662500000000         4.512571753983635E-053
   134.901900000000         4.078528776040721E-053
   135.141300000000         2.872171133996358E-053
   135.380700000000         7.905296225627703E-054
   135.620100000000        -2.175658689455332E-053
   135.859500000000        -5.906546559516954E-053
   136.098900000000        -1.012437888302606E-052
   136.338300000000        -1.437799122354593E-052
   136.577700000000        -1.804768145704108E-052
   136.817100000000        -2.037699286604897E-052
   137.056500000000        -2.053623834452590E-052
   137.295900000000        -1.771956206756470E-052
   137.535300000000        -1.127296720295151E-052
   137.774700000000        -8.452224623288128E-054
   138.014100000000         1.345268072292814E-052
   138.253500000000         3.090013742563140E-052
   138.492900000000         5.005763977055542E-052
   138.732300000000         6.872506473795403E-052