  -1.79550000000000         0.000000000000000E+000
  -1.55610000000000         0.000000000000000E+000
  -1.31670000000000         0.000000000000000E+000
  -1.07730000000000         0.000000000000000E+000
 -0.837900000000000         0.000000000000000E+000
 -0.598500000000000         0.000000000000000E+000
 -0.359100000000000         0.000000000000000E+000
 -0.119700000000000         0.000000000000000E+000
  0.119700000000000         0.000000000000000E+000
  0.359100000000000         0.000000000000000E+000
  0.598500000000000         0.000000000000000E+000
  0.837900000000000         0.000000000000000E+000
   1.07730000000000         0.000000000000000E+000
   1.31670000000000         0.000000000000000E+000
   1.55610000000000         0.000000000000000E+000
   1.79550000000000         0.000000000000000E+000
   2.03490000000000         0.000000000000000E+000
   2.27430000000000         0.000000000000000E+000
   2.51370000000000         0.000000000000000E+000
   2.75310000000000         0.000000000000000E+000
   2.99250000000000         0.000000000000000E+000
   3.23190000000000         0.000000000000000E+000
   3.47130000000000         0.000000000000000E+000
   3.71070000000000         0.000000000000000E+000
   3.95010000000000         0.000000000000000E+000
   4.18950000000000         0.000000000000000E+000
   4.42890000000000         0.000000000000000E+000
   4.66830000000000         0.000000000000000E+000
   4.90770000000000         0.000000000000000E+000
   5.14710000000000         0.000000000000000E+000
   5.38650000000000         0.000000000000000E+000
   5.62590000000000         0.000000000000000E+000
   5.86530000000000         0.000000000000000E+000
   6.10470000000000         0.000000000000000E+000
   6.34410000000000         0.000000000000000E+000
   6.58350000000000         0.000000000000000E+000
   6.82290000000000         0.000000000000000E+000
   7.06230000000000         0.000000000000000E+000
   7.30170000000000         0.000000000000000E+000
   7.54110000000000         0.000000000000000E+000
   7.78050000000000         0.000000000000000E+000
   8.01990000000000         0.000000000000000E+000
   8.25930000000000         0.000000000000000E+000
   8.49870000000000        -5.994878350828996E-177
   8.73810000000000         2.009317414246798E-164
   8.97750000000000        -9.715404243298878E-162
   9.21690000000000         4.436224579397614E-160
   9.45630000000000         5.012081584893318E-158
   9.69570000000000         1.955255191585990E-156
   9.93510000000000         6.203990531306159E-155
   10.1745000000000         1.896574792505883E-153
   10.4139000000000         5.015624689934127E-152
   10.6533000000000         1.064788300561648E-150
   10.8927000000000         1.803992926404545E-149
   11.1321000000000         2.476915916247564E-148
   11.3715000000000         2.794138018231616E-147
   11.6109000000000         2.596861117180465E-146
   11.8503000000000         1.949647687596387E-145
   12.0897000000000         1.088006512875566E-144
   12.3291000000000         2.801557656890890E-144
   12.5685000000000        -2.935756339282939E-143
   12.8079000000000        -5.830243385604949E-142
   13.0473000000000        -6.387287636168760E-141
   13.2867000000000        -5.535468271820112E-140
   13.5261000000000        -4.140326608054188E-139
   13.7655000000000        -2.772936051391033E-138
   14.0049000000000        -1.696469506674617E-137
   14.2443000000000        -9.601081813161114E-137
   14.4837000000000        -5.070669523126222E-136
   14.7231000000000        -2.515467285292569E-135
   14.9625000000000        -1.178174345577980E-134
   15.2019000000000        -5.231926096627607E-134
   15.4413000000000        -2.210630565569065E-133
   15.6807000000000        -8.914818904183855E-133
   15.9201000000000        -3.440664330447045E-132
   16.1595000000000        -1.274053307591339E-131
   16.3989000000000        -4.536775188474971E-131
   16.6383000000000        -1.556874332622406E-130
   16.8777000000000        -5.159167917920230E-130
   17.1171000000000        -1.654006438200310E-129
   17.3565000000000        -5.138808447042367E-129
   17.5959000000000        -1.549491320653275E-128
   17.8353000000000        -4.539478278790429E-128
   18.0747000000000        -1.292990410122221E-127
   18.3141000000000        -3.580555681043307E-127
   18.5535000000000        -9.630775461911769E-127
   18.7929000000000        -2.510439158063803E-126
   19.0323000000000        -6.315479256725591E-126
   19.2717000000000        -1.522338426942094E-125
   19.5111000000000        -3.472409065978577E-125
   19.7505000000000        -7.320679239342989E-125
   19.9899000000000        -1.354213203709905E-124
   20.2293000000000        -1.870713725869208E-124
   20.4687000000000        -1.898428480484874E-125
   20.7081000000000         1.201075651769922E-123
   20.9475000000000         6.274288281978262E-123
   21.1869000000000         2.373643564680926E-122
   21.4263000000000         7.778541718262582E-122
   21.6657000000000         2.330750877810042E-121
   21.9051000000000         6.534895178208440E-121
   22.1445000000000         1.734298261711167E-120
   22.3839000000000         4.383119605059811E-120
   22.6233000000000         1.058108969987700E-119
   22.8627000000000         2.442372931886497E-119
   23.1021000000000         5.387564656561632E-119
   23.3415000000000         1.133391545182171E-118
   23.5809000000000         2.265258345230526E-118
   23.8203000000000         4.274657236607408E-118
   24.0597000000000         7.540198513123921E-118
   24.2991000000000         1.222603228095617E-117
   24.5385000000000         1.767116740392243E-117
   24.7779000000000         2.129563697565632E-117
   25.0173000000000         1.735176016899204E-117
   25.2567000000000        -2.541824909123745E-118
   25.4961000000000        -4.081037974378631E-117
   25.7355000000000        -6.106654676124524E-117
   25.9749000000000         1.052520861253345E-116
   26.2143000000000         9.845091384554063E-116
   26.4537000000000         3.944298073098663E-115
   26.6931000000000         1.212253251955187E-114
   26.9325000000000         3.201683480276031E-114
   27.1719000000000         7.581988038017694E-114
   27.4113000000000         1.640344666043826E-113
   27.6507000000000         3.264050551701841E-113
   27.8901000000000         5.958315371102837E-113
   28.1295000000000         9.831461376942243E-113
   28.3689000000000         1.407992877066746E-112
   28.6083000000000         1.538719273009329E-112
   28.8477000000000         4.560546094842389E-113
   29.0871000000000        -4.008518024270624E-112
   29.3265000000000        -1.651376796290239E-111
   29.5659000000000        -4.644831286370139E-111
   29.8053000000000        -1.118183388772856E-110
   30.0447000000000        -2.456522867752068E-110
   30.2841000000000        -5.056496914229056E-110
   30.5235000000000        -9.862111676547671E-110
   30.7629000000000        -1.826152693612740E-109
   31.0023000000000        -3.189070494356054E-109
   31.2417000000000        -5.154109534766990E-109
   31.4811000000000        -7.371457802813196E-109
   31.7205000000000        -8.178726335217839E-109
   31.9599000000000        -2.611768902189301E-109
   32.1993000000000         2.161626215893554E-108
   32.4387000000000         9.141504541668590E-108
   32.6781000000000         2.599721660313065E-107
   32.9175000000000         6.220625916120793E-107
   33.1569000000000         1.326653747758120E-106
   33.3963000000000         2.566882155827670E-106
   33.6357000000000         4.499961833249335E-106
   33.8751000000000         7.001065413401698E-106
   34.1145000000000         9.081877423974486E-106
   34.3539000000000         7.716583296044846E-106
   34.5933000000000        -4.238076398478968E-106
   34.8327000000000        -4.124536584636589E-105
   35.0721000000000        -1.291287579516820E-104
   35.3115000000000        -3.083102834347496E-104
   35.5509000000000        -6.317198990142371E-104
   35.7903000000000        -1.147593289657572E-103
   36.0297000000000        -1.849119901026328E-103
   36.2691000000000        -2.562120213002710E-103
   36.5085000000000        -2.732007019776617E-103
   36.7479000000000        -1.071582270442367E-103
   36.9873000000000         4.938526679261297E-103
   37.2267000000000         1.960970876640053E-102
   37.4661000000000         4.936471054449768E-102
   37.7055000000000         1.021165799272188E-101
   37.9449000000000         1.843649397989774E-101
   38.1843000000000         2.937899565126594E-101
   38.4237000000000         4.041979441527150E-101
   38.6631000000000         4.392454927709204E-101
   38.9025000000000         2.326119342970063E-101
   39.1419000000000        -5.227148195047944E-101
   39.3813000000000        -2.321451345293045E-100
   39.6207000000000        -5.851846300967829E-100
   39.8601000000000        -1.188518840016918E-099
   40.0995000000000        -2.092076537027406E-099
   40.3389000000000        -3.239733155664208E-099
   40.5783000000000        -4.323900775965805E-099
   40.8177000000000        -4.553279650879107E-099
   41.0571000000000        -2.333457661752007E-099
   41.2965000000000         5.087923976587980E-099
   41.5359000000000         2.185616971954053E-098
   41.7753000000000         5.329500661090819E-098
   42.0147000000000         1.046596030064519E-097
   42.2541000000000         1.779670905563619E-097
   42.4935000000000         2.657463037935635E-097
   42.7329000000000         3.405273926369495E-097
   42.9723000000000         3.394956149948033E-097
   43.2117000000000         1.455469721637753E-097
   43.4511000000000        -4.302201613601872E-097
   43.6905000000000        -1.652947958755497E-096
   43.9299000000000        -3.833887475094361E-096
   44.1693000000000        -7.231578681127974E-096
   44.4087000000000        -1.183765837947518E-095
   44.6481000000000        -1.699463405685540E-095
   44.8875000000000        -2.080575709177548E-095
   45.1269000000000        -1.934794213943686E-095
   45.3663000000000        -5.813643217282342E-096
   45.6057000000000         3.008408760092249E-095
   45.8451000000000         1.017855277085732E-094
   46.0845000000000         2.235460393990076E-094
   46.3239000000000         4.045176361112445E-094
   46.5633000000000         6.373353264231679E-094
   46.8027000000000         8.794115276712765E-094
   47.0421000000000         1.026271110002672E-093
   47.2815000000000         8.791654475222239E-094
   47.5209000000000         1.147917253475183E-094
   47.7603000000000        -1.725985166295126E-093
   47.9997000000000        -5.200757806802990E-093
   48.2391000000000        -1.083470197358398E-092
   48.4785000000000        -1.883759689925308E-092
   48.7179000000000        -2.860580833351488E-092
   48.9573000000000        -3.796494298213196E-092
   49.1967000000000        -4.217021740659972E-092
   49.4361000000000        -3.281025323520397E-092
   49.6755000000000         3.019395907095613E-093
   49.9149000000000         8.258041336311219E-092
   50.1543000000000         2.252849213737496E-091
   50.3937000000000         4.468764802852780E-091
   50.6331000000000         7.481750685299390E-091
   50.8725000000000         1.096726364048208E-090
   51.1119000000000         1.400758049306809E-090
   51.3513000000000         1.477400289857226E-090
   51.5907000000000         1.021823406490122E-090
   51.8301000000000        -4.087195640750470E-091
   52.0695000000000        -3.372017372852561E-090
   52.3089000000000        -8.443864998600365E-090
   52.5483000000000        -1.600171985142855E-089
   52.7877000000000        -2.584144939760112E-089
   53.0271000000000        -3.659372950989653E-089
   53.2665000000000        -4.495018691225319E-089
   53.5059000000000        -4.479729372318759E-089
   53.7453000000000        -2.650200387319381E-089
   53.9847000000000         2.319735597977564E-089
   54.2241000000000         1.199821597150903E-088
   54.4635000000000         2.784530808904683E-088
   54.7029000000000         5.052036662410000E-088
   54.9423000000000         7.874418188104482E-088
   55.1817000000000         1.076757486914856E-087
   55.4211000000000         1.269082560390476E-087
   55.6605000000000         1.184474301919262E-087
   55.8999000000000         5.542839896590113E-088
   56.1393000000000        -9.715423244165762E-088
   56.3787000000000        -3.778505688184024E-087
   56.6181000000000        -8.179614152489251E-087
   56.8575000000000        -1.422113937756114E-086
   57.0969000000000        -2.138484715418005E-086
   57.3363000000000        -2.819032182117967E-086
   57.5757000000000        -3.174186413072591E-086
   57.8151000000000        -2.733051370372121E-086
   58.0545000000000        -8.294144871760165E-087
   58.2939000000000         3.355014965200214E-086
   58.5333000000000         1.064788656078694E-085
   58.7727000000000         2.159546716065668E-085
   59.0121000000000         3.598038726634567E-085
   59.2515000000000         5.213017253104264E-085
   59.4909000000000         6.605651708559277E-085
   59.7303000000000         7.056535333597660E-085
   59.9697000000000         5.462596237490399E-085
   60.2091000000000         3.477622136337582E-086
   60.4485000000000        -9.984219586399577E-085
   60.6879000000000        -2.707012735762080E-084
   60.9273000000000        -5.159392599734689E-084
   61.1667000000000        -8.231910386203988E-084
   61.4061000000000        -1.146584816982286E-083
   61.6455000000000        -1.390305594158191E-083
   61.8849000000000        -1.393671171031579E-083
   62.1243000000000        -9.242988961211324E-084
   62.3637000000000         3.106389179376762E-084
   62.6031000000000         2.621884793937971E-083
   62.8425000000000         6.249456878130749E-083
   63.0819000000000         1.121494793190718E-082
   63.3213000000000         1.710983548892860E-082
   63.5607000000000         2.283196603174097E-082
   63.8001000000000         2.631104023966202E-082
   64.0395000000000         2.430504315517472E-082
   64.2789000000000         1.240060795448337E-082
   64.5183000000000        -1.459686455398101E-082
   64.7577000000000        -6.165894123007689E-082
   64.9971000000000        -1.316927192473681E-081
   65.2365000000000        -2.227157326651532E-081
   65.4759000000000        -3.240940512703069E-081
   65.7153000000000        -4.122402965185848E-081
   65.9547000000000        -4.466978411872917E-081
   66.1941000000000        -3.682309354462160E-081
   66.4335000000000        -1.013145787643720E-081
   66.6729000000000         4.359097665102101E-081
   66.9123000000000         1.310883685535004E-080
   67.1517000000000         2.542344822982056E-080
   67.3911000000000         4.051743514184879E-080
   67.6305000000000         5.603540507811150E-080
   67.8699000000000         6.743865677413226E-080
   68.1093000000000         6.755682341773992E-080
   68.3487000000000         4.658865042904597E-080
   68.5881000000000        -7.064620624779950E-081
   68.8275000000000        -1.046880431591037E-079
   69.0669000000000        -2.534459447862658E-079
   69.3063000000000        -4.506433736906684E-079
   69.5457000000000        -6.762296452534048E-079
   69.7851000000000        -8.844142710981257E-079
   70.0245000000000        -9.962690499772438E-079
   70.2639000000000        -8.964397099317806E-079
   70.5033000000000        -4.383983978027263E-079
   70.7427000000000         5.363254265131512E-079
   70.9821000000000         2.159353329169478E-078
   71.2215000000000         4.472987233812530E-078
   71.4609000000000         7.343869171782267E-078
   71.7003000000000         1.035975538049801E-077
   71.9397000000000         1.272722264791304E-077
   72.1791000000000         1.320223651163695E-077
   72.4185000000000         1.010120838735105E-077
   72.6579000000000         1.453927462006915E-078
   72.8973000000000        -1.463415690651330E-077
   73.1367000000000        -3.935233449370085E-077
   73.3761000000000        -7.226429931015131E-077
   73.6155000000000        -1.101425487256007E-076
   73.8549000000000        -1.457124016223706E-076
   74.0943000000000        -1.666093130050805E-076
   74.3337000000000        -1.550274634599001E-076
   74.5731000000000        -8.870517683940022E-077
   74.8125000000000         5.600153218052888E-077
   75.0519000000000         2.982411370091652E-076
   75.2913000000000         6.435423080207595E-076
   75.5307000000000         1.071615696463494E-075
   75.7701000000000         1.522289001719969E-075
   76.0095000000000         1.882252771729485E-075
   76.2489000000000         1.977099991856414E-075
   76.4883000000000         1.575009779227354E-075
   76.7277000000000         4.098573587475244E-076
   76.9671000000000        -1.768213253561315E-075
   77.2065000000000        -5.108594857238905E-075
   77.4459000000000        -9.541297777179136E-075
   77.6853000000000        -1.463134255806385E-074
   77.9247000000000        -1.942812693781981E-074
   78.1641000000000        -2.234895198700097E-074
   78.4035000000000        -2.115518104173625E-074
   78.6429000000000        -1.309637150522844E-074
   78.8823000000000         4.694383081276047E-075
   79.1217000000000         3.448048942145749E-074
   79.3611000000000         7.684148698661354E-074
   79.6005000000000         1.292714453418946E-073
   79.8399000000000         1.846134582472079E-073
   80.0793000000000         2.296469758358681E-073
   80.3187000000000         2.443305268514604E-073
   80.5581000000000         2.023818969054571E-073
   80.7975000000000         7.399697826121070E-074
   81.0369000000000        -1.685082178021112E-073
   81.2763000000000        -5.415916674891187E-073
   81.5157000000000        -1.037938423320868E-072
   81.7551000000000        -1.611449057821451E-072
   81.9945000000000        -2.162096010193565E-072
   82.2339000000000        -2.524651622673228E-072
   82.4733000000000        -2.467044850133041E-072
   82.7127000000000        -1.705523526203880E-072
   82.9521000000000         5.572428142715730E-074
   83.1915000000000         3.054076427787578E-072
   83.4309000000000         7.364495283680333E-072
   83.6703000000000         1.276653157305922E-071
   83.9097000000000         1.859751750036982E-071
   84.1491000000000         2.362115820682511E-071
   84.3885000000000         2.595653173277432E-071
   84.6279000000000         2.312717133404201E-071
   84.8673000000000         1.229884421050972E-071
   85.1067000000000        -9.228275669587155E-072
   85.3461000000000        -4.322922073666482E-071
   85.5855000000000        -8.946952375948227E-071
   85.8249000000000        -1.444083651891232E-070
   86.0643000000000        -1.998805570142262E-070
   86.3037000000000        -2.420798349153820E-070
   86.5431000000000        -2.513013817811719E-070
   86.7825000000000        -2.030091261484294E-070
   87.0219000000000        -7.082796222837995E-071
   87.2613000000000         1.680330933739751E-070
   87.5007000000000         5.247025920421114E-070
   87.7401000000000         9.882078706359366E-070
   87.9795000000000         1.513748086234513E-069
   88.2189000000000         2.011758668218447E-069
   88.4583000000000         2.340979698507226E-069
   88.6977000000000         2.309798999204232E-069
   88.9371000000000         1.690817545095275E-069
   89.1765000000000         2.534762123752866E-070
   89.4159000000000        -2.181773652991415E-069
   89.6553000000000        -5.667322133848745E-069
   89.8947000000000        -1.003488980705582E-068
   90.1341000000000        -1.479632965717701E-068
   90.3735000000000        -1.905902785573117E-068
   90.6129000000000        -2.148523316483071E-068
   90.8523000000000        -2.033222691922349E-068
   91.0917000000000        -1.361367616022439E-068
   91.3311000000000         5.815305511290876E-070
   91.5705000000000         2.359172709529549E-068
   91.8099000000000         5.551410287747200E-068
   92.0493000000000         9.441825036073311E-068
   92.2887000000000         1.355536972879384E-067
   92.5281000000000         1.707321712435309E-067
   92.7675000000000         1.881329378275725E-067
   93.0069000000000         1.728297983329913E-067
   93.2463000000000         1.083494712039744E-067
   93.4857000000000        -2.048231173132120E-068
   93.7251000000000        -2.232939743143863E-067
   93.9645000000000        -4.986602730726450E-067
   94.2039000000000        -8.278413350287177E-067
   94.4433000000000        -1.168743021241908E-066
   94.6827000000000        -1.451589502759522E-066
   94.9221000000000        -1.578277569734442E-066
   95.1615000000000        -1.427694250147981E-066
   95.4009000000000        -8.692604468407133E-067
   95.6403000000000         2.135696950818136E-067
   95.8797000000000         1.889343036472856E-066
   96.1191000000000         4.135686147556924E-066
   96.3585000000000         6.791767633824794E-066
   96.5979000000000         9.513948071013617E-066
   96.8373000000000         1.174611894386630E-065
   97.0767000000000         1.271948462240093E-065
   97.3161000000000         1.149839639020250E-065
   97.5555000000000         7.088132979587401E-066
   97.7949000000000        -1.384018544552298E-066
   98.0343000000000        -1.441251068879218E-065
   98.2737000000000        -3.179532760180487E-065
   98.5131000000000        -5.228754557129843E-065
   98.7525000000000        -7.328488343533116E-065
   98.9919000000000        -9.062089776528282E-065
   99.2313000000000        -9.858296313507297E-065
   99.4707000000000        -9.026305984449257E-065
   99.7101000000000        -5.835170856837112E-065
   99.9495000000000         3.551140457161753E-066
   100.188900000000         9.910287849011361E-065
   100.428300000000         2.269632758995395E-064
   100.667700000000         3.783597476238341E-064
   100.907100000000         5.348808307541103E-064
   101.146500000000         6.670751715392508E-064
   101.385900000000         7.345727441805809E-064
   101.625300000000         6.885103201989543E-064
   101.864700000000         4.769824549440501E-064
   102.104100000000         5.399953743140908E-065
   102.343500000000        -6.080278781328994E-064
   102.582900000000        -1.502964931265578E-063
   102.822300000000        -2.574406062292340E-063
   103.061700000000        -3.700607726647139E-063
   103.301100000000        -4.684697713181745E-063
   103.540500000000        -5.254853082331295E-063
   103.779900000000        -5.079550060783422E-063
   104.019300000000        -3.802590600327889E-063
   104.258700000000        -1.101072435289909E-063
   104.498100000000         3.233475218040605E-063
   104.737500000000         9.195041766872335E-063
   104.976900000000         1.645430543685062E-062
   105.216300000000         2.425799275565660E-062
   105.455700000000         3.136031261306728E-062
   105.695100000000         3.601603068801885E-062
   105.934500000000         3.606747199987686E-062
   106.173900000000         2.915551206923858E-062
   106.413300000000         1.307544005422854E-062
   106.652700000000        -1.371917576393785E-062
   106.892100000000        -5.148857289317479E-062
   107.131500000000        -9.851451102354983E-062
   107.370900000000        -1.504449891262315E-061
   107.610300000000        -1.998198505781225E-061
   107.849700000000        -2.359567521349758E-061
   108.089100000000        -2.453954739426085E-061
   108.328500000000        -2.130882077308062E-061
   108.567900000000        -1.244724138783821E-061
   108.807300000000         3.153868166723838E-062
   109.046700000000         2.587696914919820E-061
   109.286100000000         5.495312392849525E-061
   109.525500000000         8.804790193090013E-061
   109.764900000000         1.209414272947856E-060
   110.004300000000         1.474074931853089E-060
   110.243700000000         1.594092168908835E-060
   110.483100000000         1.477252121239109E-060
   110.722500000000         1.030938539374671E-060
   110.961900000000         1.790813881415337E-061
   111.201300000000        -1.115932047248153E-060
   111.440700000000        -2.828099528466514E-060
   111.680100000000        -4.842515897075053E-060
   111.919500000000        -6.934545237179621E-060
   112.158900000000        -8.759354230935095E-060
   112.398300000000        -9.858538437821909E-060
   112.637700000000        -9.690551763542650E-060
   112.877100000000        -7.690390720551346E-060
   113.116500000000        -3.361156110377190E-060
   113.355900000000         3.604481297291277E-060
   113.595300000000         1.318121091257299E-059
   113.834700000000         2.486239671532922E-059
   114.074100000000         3.753003446886280E-059
   114.313500000000         4.937522700374687E-059
   114.552900000000         5.790634835558231E-059
   114.792300000000         6.008305172035439E-059
   115.031700000000         5.260885281409332E-059
   115.271100000000         3.240131792819292E-059
   115.510500000000        -2.764306709324004E-060
   115.749900000000        -5.347491601101517E-059
   115.989300000000        -1.178403350153612E-058
   116.228700000000        -1.907173538892624E-058
   116.468100000000        -2.631620442441558E-058
   116.707500000000        -3.223076946602846E-058
   116.946900000000        -3.518772891009098E-058
   117.186300000000        -3.335192859141423E-058
   117.425700000000        -2.490933489344791E-058
   117.665100000000        -8.392145397432555E-059
   117.904500000000         1.691421835171528E-058
   118.143900000000         5.051750631794215E-058
   118.383300000000         9.027701506501703E-058
   118.622700000000         1.320556502224267E-057
   118.862100000000         1.695661875616465E-057
   119.101500000000         1.945216409168058E-057
   119.340900000000         1.971940293426743E-057
   119.580300000000         1.674598467061371E-057
   119.819700000000         9.636009076814601E-058
   120.059100000000        -2.187376394461232E-058
   120.298500000000        -1.874767070156572E-057
   120.537900000000        -3.927556365376662E-057
   120.777300000000        -6.200289998520050E-057
   121.016700000000        -8.403906847726355E-057
   121.256100000000        -1.013852542942329E-056
   121.495500000000        -1.091416779454172E-056
   121.734900000000        -1.019531622228507E-056
   121.974300000000        -7.471689592902333E-057
   122.213700000000        -2.354195219038344E-057
   122.453100000000         5.309647440883380E-057
   122.692500000000         1.531211712825023E-056
   122.931900000000         2.697082744937136E-056
   123.171300000000         3.904620393484662E-056
   123.410700000000         4.971766190215233E-056
   123.650100000000         5.664632453253128E-056
   123.889500000000         5.714900374015921E-056
   124.128900000000         4.849969581006804E-056
   124.368300000000         2.836029227733010E-056
   124.607700000000        -4.678431711089339E-057
   124.847100000000        -5.049021457334208E-056
   125.086500000000        -1.068143328601845E-055
   125.325900000000        -1.687653474362849E-055
   125.565300000000        -2.285749307032487E-055
   125.804700000000        -2.756999733539017E-055
   126.044100000000        -2.974243447134067E-055
   126.283500000000        -2.800514252478008E-055
   126.522900000000        -2.107266695992199E-055
   126.762300000000        -7.984270685571955E-056
   127.001700000000         1.161332427726328E-055
   127.241100000000         3.717003102466900E-055
   127.480500000000         6.696578602393796E-055
   127.719900000000         9.792739715638316E-055
   127.959300000000         1.255905135172858E-054
   128.198700000000         1.442688534565981E-054
   128.438100000000         1.474835341460925E-054
   128.677500000000         1.286840683841056E-054
   128.916900000000         8.225819878889896E-055
   129.156300000000         4.780761662311952E-056
   129.395700000000        -1.036050454932099E-054
   129.635100000000        -2.378419458317190E-054
   129.874500000000        -3.868741687602675E-054
   130.113900000000        -5.330939074594548E-054
   130.353300000000        -6.526059149061708E-054
   130.592700000000        -7.165765981769718E-054
   130.832100000000        -6.938634452710517E-054
   131.071500000000        -5.549932124803225E-054
   131.310900000000        -2.773720154430702E-054
   131.550300000000         1.486249911627709E-054
   131.789700000000         7.133039257352721E-054
   132.029100000000         1.381931115039903E-053
   132.268500000000         2.090758911149966E-053
   132.507900000000         2.746056836043284E-053
   132.747300000000         3.227403031419349E-053
   132.986700000000         3.396292355428446E-053
   133.226100000000         3.110683807731436E-053
   133.465500000000         2.245423407176318E-053
   133.704900000000         7.175539040772155E-054
   133.944300000000        -1.485583595973716E-053
   134.183700000000        -4.278734187614167E-053
   134.423100000000        -7.455984296170977E-053
   134.662500000000        -1.067810471387842E-052
   134.901900000000        -1.347553414484153E-052
   135.141300000000        -1.527216588863595E-052
   135.380700000000        -1.543378776557997E-052
   135.620100000000        -1.334266392177047E-052
   135.859500000000        -8.496325285636214E-053
   136.098900000000        -6.242984412220127E-054
   136.338300000000         1.018841497758429E-052
   136.577700000000         2.338725581161334E-052
   136.817100000000         3.786383828079929E-052
   137.056500000000         5.192460675913783E-052
   137.295900000000         6.333570258931887E-052
   137.535300000000         6.946407155471382E-052
   137.774700000000         6.752746605853002E-052
   138.014100000000         5.495417598309178E-052
   138.253500000000         2.983729237848104E-052
   138.492900000000        -8.550989307113461E-053
   138.732300000000        -5.924033381476055E-052