  -1.42500000000000         0.000000000000000E+000
  -1.23500000000000         3.767762908978192E-014
  -1.04500000000000         4.611099463776067E-013
 -0.855000000000000         3.057487184674734E-012
 -0.665000000000000         1.467545761735223E-011
 -0.475000000000000         5.776326914584851E-011
 -0.285000000000000         1.928222513183183E-010
 -9.499999999999975E-002    5.604775971502663E-010
  9.500000000000020E-002    1.439407154285421E-009
  0.285000000000000         3.286904819984950E-009
  0.475000000000000         6.767174889796059E-009
  0.665000000000000         1.266292957287590E-008
  0.855000000000000         2.183640844536259E-008
   1.04500000000000         3.493975983128392E-008
   1.23500000000000         5.232448566055067E-008
   1.42500000000000         7.384324274556670E-008
   1.61500000000000         9.876363595162571E-008
   1.80500000000000         1.258179479066469E-007
   1.99500000000000         1.532076554058781E-007
   2.18500000000000         1.788479185485323E-007
   2.37500000000000         2.004870082461966E-007
   2.56500000000000         2.161611785113652E-007
   2.75500000000000         2.238570426811902E-007
   2.94500000000000         2.231740257281684E-007
   3.13500000000000         2.114753993855374E-007
   3.32500000000000         1.882889530173037E-007
   3.51500000000000         1.536235689370232E-007
   3.70500000000000         1.083860226854002E-007
   3.89500000000000         5.441820843686659E-008
   4.08500000000000        -5.080805823916435E-009
   4.27500000000000        -6.565601653009929E-008
   4.46500000000000        -1.217799094122940E-007
   4.65500000000000        -1.673937484407452E-007
   4.84500000000000        -1.963594620430701E-007
   5.03500000000000        -2.032629413294681E-007
   5.22500000000000        -1.843988913346953E-007
   5.41500000000000        -1.378144366373645E-007
   5.60500000000000        -6.458686245898099E-008
   5.79500000000000         3.247980881819457E-008
   5.98500000000000         1.462388385614591E-007
   6.17500000000000         2.681899561612938E-007
   6.36500000000000         3.904214723288471E-007
   6.55500000000000         5.034247391381230E-007
   6.74500000000000         5.989029924364438E-007
   6.93500000000000         6.713097351505885E-007
   7.12500000000000         7.154511811921463E-007
   7.31500000000000         7.291038584297810E-007
   7.50500000000000         7.123433494876340E-007
   7.69500000000000         6.662344601833068E-007
   7.88500000000000         5.950053503345325E-007
   8.07500000000000         5.035639869960656E-007
   8.26500000000000         4.009560915180735E-007
   8.45500000000000         2.850635264750222E-007
   8.64500000000000         1.695527053982535E-007
   8.83500000000000         5.450443207588421E-008
   9.02500000000000        -5.029215020736358E-008
   9.21500000000000        -1.368617788322319E-007
   9.40500000000000        -1.994909322834031E-007
   9.59500000000000        -2.325175720353038E-007
   9.78500000000000        -2.299430402176657E-007
   9.97500000000000        -1.949038660784028E-007
   10.1650000000000        -1.249543011761190E-007
   10.3550000000000        -2.501354885934178E-008
   10.5450000000000         9.713949314553927E-008
   10.7350000000000         2.321614765181999E-007
   10.9250000000000         3.681314476477769E-007
   11.1150000000000         4.900322358296280E-007
   11.3050000000000         5.889096920076975E-007
   11.4950000000000         6.569377162099399E-007
   11.6850000000000         6.906456348692392E-007
   11.8750000000000         6.896196823742443E-007
   12.0650000000000         6.554567663980103E-007
   12.2550000000000         5.970656173092965E-007
   12.4450000000000         5.227076220925878E-007
   12.6350000000000         4.420800942857646E-007
   12.8250000000000         3.648836549073454E-007
   13.0150000000000         3.034062021880693E-007
   13.2050000000000         2.556075299548352E-007
   13.3950000000000         2.368989906260936E-007
   13.5850000000000         2.378490559324212E-007
   13.7750000000000         2.704302133972221E-007
   13.9650000000000         3.302415261695284E-007
   14.1550000000000         4.173645487961950E-007
   14.3450000000000         5.332579474324441E-007
   14.5350000000000         6.753563127869111E-007
   14.7250000000000         8.392449271626108E-007
   14.9150000000000         1.017369772720711E-006
   15.1050000000000         1.200381499982835E-006
   15.2950000000000         1.371576474984587E-006
   15.4850000000000         1.516945131379810E-006
   15.6750000000000         1.623222053665720E-006
   15.8650000000000         1.677817763490865E-006
   16.0550000000000         1.671984288241137E-006
   16.2450000000000         1.601685658214993E-006
   16.4350000000000         1.466560925516948E-006
   16.6250000000000         1.276121329601884E-006
   16.8150000000000         1.043824381909486E-006
   17.0050000000000         7.870189768790057E-007
   17.1950000000000         5.248012341832244E-007
   17.3850000000000         2.754814247817135E-007
   17.5750000000000         5.609145067169001E-008
   17.7650000000000        -1.200453498434389E-007
   17.9550000000000        -2.481889967304918E-007
   18.1450000000000        -3.267635282987443E-007
   18.3350000000000        -3.538923253286502E-007
   18.5250000000000        -3.322075425888158E-007
   18.7150000000000        -2.745542958643459E-007
   18.9050000000000        -1.810311538393450E-007
   19.0950000000000        -5.811212066052542E-008
   19.2850000000000         8.811529202975586E-008
   19.4750000000000         2.503930092283102E-007
   19.6650000000000         4.200194289500744E-007
   19.8550000000000         5.862891087595212E-007
   20.0450000000000         7.370306723132477E-007
   20.2350000000000         8.555534773215058E-007
   20.4250000000000         9.290647532054552E-007
   20.6150000000000         9.468087132574040E-007
   20.8050000000000         9.028161981659349E-007
   20.9950000000000         7.929001525961093E-007
   21.1850000000000         6.230263626350537E-007
   21.3750000000000         4.017276571342194E-007
   21.5650000000000         1.457184469778652E-007
   21.7550000000000        -1.248412486743210E-007
   21.9450000000000        -3.880021995195192E-007
   22.1350000000000        -6.231235499813149E-007
   22.3250000000000        -8.131523799448555E-007
   22.5150000000000        -9.467171334761321E-007
   22.7050000000000        -1.019399120210551E-006
   22.8950000000000        -1.026186242556977E-006
   23.0850000000000        -9.836036084028482E-007
   23.2750000000000        -8.941698650379329E-007
   23.4650000000000        -7.686141074055524E-007
   23.6550000000000        -6.190718992030239E-007
   23.8450000000000        -4.637410765027662E-007
   24.0350000000000        -3.020108289031790E-007
   24.2250000000000        -1.431026023114422E-007
   24.4150000000000         4.523447065452960E-009
   24.6050000000000         1.320347477336830E-007
   24.7950000000000         2.381707153462183E-007
   24.9850000000000         3.121777473924139E-007
   25.1750000000000         3.429787720753444E-007
   25.3650000000000         3.262075606923541E-007
   25.5550000000000         2.573372273305259E-007
   25.7450000000000         1.378844429972578E-007
   25.9350000000000        -2.368502167867360E-008
   26.1250000000000        -2.132042659661920E-007
   26.3150000000000        -4.123156748639065E-007
   26.5050000000000        -5.951062144904490E-007
   26.6950000000000        -7.393755855345855E-007
   26.8850000000000        -8.254016052599748E-007
   27.0750000000000        -8.394320106972256E-007
   27.2650000000000        -7.710146219239963E-007
   27.4550000000000        -6.191099488569991E-007
   27.6450000000000        -3.926601986859994E-007
   27.8350000000000        -1.055767369561007E-007
   28.0250000000000         2.224567293759857E-007
   28.2150000000000         5.682672103343042E-007
   28.4050000000000         9.076171166419508E-007
   28.5950000000000         1.224904343730367E-006
   28.7850000000000         1.500150495068638E-006
   28.9750000000000         1.722468997527534E-006
   29.1650000000000         1.878797547448843E-006
   29.3550000000000         1.963494900873303E-006
   29.5450000000000         1.985161316150253E-006
   29.7350000000000         1.931419901342413E-006
   29.9250000000000         1.807844762772977E-006
   30.1150000000000         1.620163889481590E-006
   30.3050000000000         1.377804789122624E-006
   30.4950000000000         1.093797023150293E-006
   30.6850000000000         7.848581040466339E-007
   30.8750000000000         4.793451464750374E-007
   31.0650000000000         1.997858461299387E-007
   31.2550000000000        -3.510834920663544E-008
   31.4450000000000        -1.948275116059616E-007
   31.6350000000000        -2.639031745399733E-007
   31.8250000000000        -2.320271214696471E-007
   32.0150000000000        -1.007140810647696E-007
   32.2050000000000         1.167927973006689E-007
   32.3950000000000         4.006876883399046E-007
   32.5850000000000         7.205813299135794E-007
   32.7750000000000         1.045436898096481E-006
   32.9650000000000         1.344221957625811E-006
   33.1550000000000         1.588992801520063E-006
   33.3450000000000         1.758751755138839E-006
   33.5350000000000         1.841694349276917E-006
   33.7250000000000         1.833291412413918E-006
   33.9150000000000         1.739811293508494E-006
   34.1050000000000         1.573065226738216E-006
   34.2950000000000         1.356502711258408E-006
   34.4850000000000         1.109726145110858E-006
   34.6750000000000         8.498484837670589E-007
   34.8650000000000         5.973639565256052E-007
   35.0550000000000         3.699433967169556E-007
   35.2450000000000         1.830876530204710E-007
   35.4350000000000         4.942192976458987E-008
   35.6250000000000        -1.911856203383330E-008
   35.8150000000000        -1.393432735672926E-008
   36.0050000000000         6.187100786130652E-008
   36.1950000000000         2.150331877451307E-007
   36.3850000000000         4.382148315571585E-007
   36.5750000000000         7.198394240687160E-007
   36.7650000000000         1.042925732582773E-006
   36.9550000000000         1.384422892608830E-006
   37.1450000000000         1.716632505246496E-006
   37.3350000000000         2.013067724165509E-006
   37.5250000000000         2.249324047342912E-006
   37.7150000000000         2.405188979250003E-006
   37.9050000000000         2.470002356433588E-006
   38.0950000000000         2.440223482330715E-006
   38.2850000000000         2.315906844206332E-006
   38.4750000000000         2.114870693732488E-006
   38.6650000000000         1.861300786520338E-006
   38.8550000000000         1.578499415271697E-006
   39.0450000000000         1.292435211114588E-006
   39.2350000000000         1.024951566799092E-006
   39.4250000000000         7.943196933677938E-007
   39.6150000000000         6.127012278337673E-007
   39.8050000000000         4.871417935515997E-007
   39.9950000000000         4.179200160916000E-007
   40.1850000000000         3.993713660820781E-007
   40.3750000000000         4.245598443653972E-007
   40.5650000000000         4.753626838701450E-007
   40.7550000000000         5.533632135380278E-007
   40.9450000000000         6.463315847710375E-007
   41.1350000000000         7.461010617559807E-007
   41.3250000000000         8.441276686336755E-007
   41.5150000000000         9.342902441152159E-007
   41.7050000000000         9.985323810710073E-007
   41.8950000000000         1.029836321305816E-006
   42.0850000000000         1.027408465900471E-006
   42.2750000000000         9.770529492736620E-007
   42.4650000000000         8.762990885551610E-007
   42.6550000000000         7.264957757175305E-007
   42.8450000000000         5.340723603402231E-007
   43.0350000000000         3.107598330980683E-007
   43.2250000000000         7.219548037424753E-008
   43.4150000000000        -1.634414765150571E-007
   43.6050000000000        -3.781880937982527E-007
   43.7950000000000        -5.569534278640867E-007
   43.9850000000000        -6.882558575734007E-007
   44.1750000000000        -7.667069138862246E-007
   44.3650000000000        -7.926094914779687E-007
   44.5550000000000        -7.712292485151383E-007
   44.7450000000000        -7.154414125589249E-007
   44.9350000000000        -6.254090981874062E-007
   45.1250000000000        -5.133581263033751E-007
   45.3150000000000        -4.007802870617548E-007
   45.5050000000000        -2.788139369689124E-007
   45.6950000000000        -1.533659364705470E-007
   45.8850000000000        -2.447380598179744E-008
   46.0750000000000         1.092075196609347E-007
   46.2650000000000         2.483074188579725E-007
   46.4550000000000         3.916383865387394E-007
   46.6450000000000         5.350562891046509E-007
   46.8350000000000         6.707244824915087E-007
   47.0250000000000         7.946615792571376E-007
   47.2150000000000         9.039799276535560E-007
   47.4050000000000         9.871501797104680E-007
   47.5950000000000         1.043148044529231E-006
   47.7850000000000         1.075597784173825E-006
   47.9750000000000         1.086953140968777E-006
   48.1650000000000         1.088525582002312E-006
   48.3550000000000         1.086677415520016E-006
   48.5450000000000         1.088781444518742E-006
   48.7350000000000         1.102477587741509E-006
   48.9250000000000         1.130609951864006E-006
   49.1150000000000         1.177916668260561E-006
   49.3050000000000         1.230738971997934E-006
   49.4950000000000         1.295050050737066E-006
   49.6850000000000         1.351117232968011E-006
   49.8750000000000         1.400866549417326E-006
   50.0650000000000         1.439270668559322E-006
   50.2550000000000         1.455998585244796E-006
   50.4450000000000         1.465017588029452E-006
   50.6350000000000         1.468068804566823E-006
   50.8250000000000         1.472615358658611E-006
   51.0150000000000         1.487480030602829E-006
   51.2050000000000         1.509302307792517E-006
   51.3950000000000         1.543622554053626E-006
   51.5850000000000         1.594843692704710E-006
   51.7750000000000         1.652607907003251E-006
   51.9650000000000         1.710776638367138E-006
   52.1550000000000         1.762377016962722E-006
   52.3450000000000         1.800973923524955E-006
   52.5350000000000         1.821026842666923E-006
   52.7250000000000         1.828844140973244E-006
   52.9150000000000         1.823036308084530E-006
   53.1050000000000         1.805207053255615E-006
   53.2950000000000         1.779859721793092E-006
   53.4850000000000         1.753836999957642E-006
   53.6750000000000         1.731683197029433E-006
   53.8650000000000         1.709740863739895E-006
   54.0550000000000         1.688741086154966E-006
   54.2450000000000         1.668537621618206E-006
   54.4350000000000         1.647888433377709E-006
   54.6250000000000         1.624382342370881E-006
   54.8150000000000         1.598690142436215E-006
   55.0050000000000         1.573803294846150E-006
   55.1950000000000         1.554175187105901E-006
   55.3850000000000         1.545192873734770E-006
   55.5750000000000         1.553692541684641E-006
   55.7650000000000         1.582838638606180E-006
   55.9550000000000         1.639171656941589E-006
   56.1450000000000         1.719282701584947E-006
   56.3350000000000         1.810544809684969E-006
   56.5250000000000         1.901932737419829E-006
   56.7150000000000         1.978667578971493E-006
   56.9050000000000         2.026040573965642E-006
   57.0950000000000         2.030794485428602E-006
   57.2850000000000         1.984775204889541E-006
   57.4750000000000         1.891002495139814E-006
   57.6650000000000         1.749933204116905E-006
   57.8550000000000         1.566502791799589E-006
   58.0450000000000         1.362534323405688E-006
   58.2350000000000         1.153091417269646E-006
   58.4250000000000         9.532878445453184E-007
   58.6150000000000         7.792105654344176E-007
   58.8050000000000         6.365875767024514E-007
   58.9950000000000         5.354226025255153E-007
   59.1850000000000         4.853128438911201E-007
   59.3750000000000         4.758764212654299E-007
   59.5650000000000         5.139447720468106E-007
   59.7550000000000         5.932702891352401E-007
   59.9450000000000         7.105968807609548E-007
   60.1350000000000         8.533020848749127E-007
   60.3250000000000         1.023988756499051E-006
   60.5150000000000         1.214231043511770E-006
   60.7050000000000         1.415720043638403E-006
   60.8950000000000         1.617710731524144E-006
   61.0850000000000         1.806057627035439E-006
   61.2750000000000         1.965766005176283E-006
   61.4650000000000         2.083486715592803E-006
   61.6550000000000         2.147445590363648E-006
   61.8450000000000         2.149966854312332E-006
   62.0350000000000         2.089858739290714E-006
   62.2250000000000         1.969651138150526E-006
   62.4150000000000         1.794118149538654E-006
   62.6050000000000         1.587290067175888E-006
   62.7950000000000         1.367423976867348E-006
   62.9850000000000         1.156118801358587E-006
   63.1750000000000         9.723186141202905E-007
   63.3650000000000         8.325548618738193E-007
   63.5550000000000         7.497414328557313E-007
   63.7450000000000         7.314834669055700E-007
   63.9350000000000         7.708811494451772E-007
   64.1250000000000         8.598082210600747E-007
   64.3150000000000         9.864094446879874E-007
   64.5050000000000         1.137356604483097E-006
   64.6950000000000         1.302809499062078E-006
   64.8850000000000         1.469782700013351E-006
   65.0750000000000         1.620154688279854E-006
   65.2650000000000         1.749842268321109E-006
   65.4550000000000         1.852138495589118E-006
   65.6450000000000         1.921690601592529E-006
   65.8350000000000         1.954769099871674E-006
   66.0250000000000         1.947614892884001E-006
   66.2150000000000         1.897900891973622E-006
   66.4050000000000         1.805822001891493E-006
   66.5950000000000         1.673395857259943E-006
   66.7850000000000         1.508458646975422E-006
   66.9750000000000         1.322703236621563E-006
   67.1650000000000         1.129373056201065E-006
   67.3550000000000         9.447845227318441E-007
   67.5450000000000         7.860184333960555E-007
   67.7350000000000         6.714547663985641E-007
   67.9250000000000         6.179584064862188E-007
   68.1150000000000         6.332822547429164E-007
   68.3050000000000         7.236010574703588E-007
   68.4950000000000         8.832380068722814E-007
   68.6850000000000         1.103806544866616E-006
   68.8750000000000         1.371231926114060E-006
   69.0650000000000         1.667015632724975E-006
   69.2550000000000         1.969928396445549E-006
   69.4450000000000         2.259285003079180E-006
   69.6350000000000         2.520087553546584E-006
   69.8250000000000         2.738033122224911E-006
   70.0150000000000         2.902080764784507E-006
   70.2050000000000         3.006072623907666E-006
   70.3950000000000         3.047164941098589E-006
   70.5850000000000         3.023623545198213E-006
   70.7750000000000         2.941689516394434E-006
   70.9650000000000         2.806796586635478E-006
   71.1550000000000         2.625782319391695E-006
   71.3450000000000         2.408727008527404E-006
   71.5350000000000         2.168690532169895E-006
   71.7250000000000         1.921998843403707E-006
   71.9150000000000         1.686685205769526E-006
   72.1050000000000         1.481913331516815E-006
   72.2950000000000         1.327494854241750E-006
   72.4850000000000         1.238167009168618E-006
   72.6750000000000         1.226997331618804E-006
   72.8650000000000         1.301176200795581E-006
   73.0550000000000         1.455067736925378E-006
   73.2450000000000         1.678680719625607E-006
   73.4350000000000         1.954721406355731E-006
   73.6250000000000         2.260168263199787E-006
   73.8150000000000         2.568663273467584E-006
   74.0050000000000         2.853469116885159E-006
   74.1950000000000         3.090380389085718E-006
   74.3850000000000         3.260169387426666E-006
   74.5750000000000         3.344423397678866E-006
   74.7650000000000         3.349585051497143E-006
   74.9550000000000         3.268684657917129E-006
   75.1450000000000         3.120619657544975E-006
   75.3350000000000         2.915269578461089E-006
   75.5250000000000         2.673130967560467E-006
   75.7150000000000         2.419224685661032E-006
   75.9050000000000         2.175654736909693E-006
   76.0950000000000         1.961073040480339E-006
   76.2850000000000         1.793142032533359E-006
   76.4750000000000         1.686055554996660E-006
   76.6650000000000         1.647180037947278E-006
   76.8550000000000         1.683304671485355E-006
   77.0450000000000         1.798865821627096E-006
   77.2350000000000         1.986021145716966E-006
   77.4250000000000         2.229009153811949E-006
   77.6150000000000         2.510231576509244E-006
   77.8050000000000         2.811568068839907E-006
   77.9950000000000         3.107994818022115E-006
   78.1850000000000         3.373628600478094E-006
   78.3750000000000         3.583502603239418E-006
   78.5650000000000         3.719730165855086E-006
   78.7550000000000         3.757390186389494E-006
   78.9450000000000         3.700403995245664E-006
   79.1350000000000         3.540586092873734E-006
   79.3250000000000         3.290770133342593E-006
   79.5150000000000         2.967933999798123E-006
   79.7050000000000         2.596475480294646E-006
   79.8950000000000         2.204925969105948E-006
   80.0850000000000         1.823574640768361E-006
   80.2750000000000         1.483709146600907E-006
   80.4650000000000         1.209137041790382E-006
   80.6550000000000         1.018794502370447E-006
   80.8450000000000         9.248668427627932E-007
   81.0350000000000         9.290218385045880E-007
   81.2250000000000         1.030803461119527E-006
   81.4150000000000         1.221158568553568E-006
   81.6050000000000         1.486041400631640E-006
   81.7950000000000         1.805263264696863E-006
   81.9850000000000         2.154931579099721E-006
   82.1750000000000         2.508574055087204E-006
   82.3650000000000         2.846697654668746E-006
   82.5550000000000         3.146923194192650E-006
   82.7450000000000         3.390192552434398E-006
   82.9350000000000         3.562029381193056E-006
   83.1250000000000         3.650087095679014E-006
   83.3150000000000         3.649755024488805E-006
   83.5050000000000         3.564015447695093E-006
   83.6950000000000         3.398578472295552E-006
   83.8850000000000         3.165889654327534E-006
   84.0750000000000         2.885475701885569E-006
   84.2650000000000         2.577158793664939E-006
   84.4550000000000         2.264384342841774E-006
   84.6450000000000         1.968713533032206E-006
   84.8350000000000         1.710224730815878E-006
   85.0250000000000         1.504041836927579E-006
   85.2150000000000         1.360398897314822E-006
   85.4050000000000         1.284112507459312E-006
   85.5950000000000         1.272560769603078E-006
   85.7850000000000         1.320451401483050E-006
   85.9750000000000         1.416209598608200E-006
   86.1650000000000         1.546598773772892E-006
   86.3550000000000         1.697463756891512E-006
   86.5450000000000         1.854647830599044E-006
   86.7350000000000         2.005337239557125E-006
   86.9250000000000         2.139615485680501E-006
   87.1150000000000         2.250037685432586E-006
   87.3050000000000         2.332573275559374E-006
   87.4950000000000         2.386665345212328E-006
   87.6850000000000         2.414797181446549E-006
   87.8750000000000         2.420710319621866E-006
   88.0650000000000         2.412307569024956E-006
   88.2550000000000         2.389762663402406E-006
   88.4450000000000         2.364830291800562E-006
   88.6350000000000         2.343253665952859E-006
   88.8250000000000         2.339006195391550E-006
   89.0150000000000         2.355961465054001E-006
   89.2050000000000         2.405223977199649E-006
   89.3950000000000         2.493059070829909E-006
   89.5850000000000         2.621716267578332E-006
   89.7750000000000         2.791374204365425E-006
   89.9650000000000         2.999175679788241E-006
   90.1550000000000         3.238946443755822E-006
   90.3450000000000         3.501362175136877E-006
   90.5350000000000         3.778125810709894E-006
   90.7250000000000         4.048664576902631E-006
   90.9150000000000         4.299047503230551E-006
   91.1050000000000         4.513330629893747E-006
   91.2950000000000         4.677308409146452E-006
   91.4850000000000         4.779431999014037E-006
   91.6750000000000         4.813530287044024E-006
   91.8650000000000         4.775957697809148E-006
   92.0550000000000         4.666588740779843E-006
   92.2450000000000         4.495050417598717E-006
   92.4350000000000         4.268474137762665E-006
   92.6250000000000         3.998334119756208E-006
   92.8150000000000         3.699284214707855E-006
   93.0050000000000         3.387021212795440E-006
   93.1950000000000         3.077525510531067E-006
   93.3850000000000         2.785756257934972E-006
   93.5750000000000         2.525230844750158E-006
   93.7650000000000         2.307444036082016E-006
   93.9550000000000         2.141507181729075E-006
   94.1450000000000         2.033420099134380E-006
   94.3350000000000         1.986344386932280E-006
   94.5250000000000         2.000328639500901E-006
   94.7150000000000         2.070752214882273E-006
   94.9050000000000         2.201422340452579E-006
   95.0950000000000         2.371318134801155E-006
   95.2850000000000         2.578709308464161E-006
   95.4750000000000         2.807623578419201E-006
   95.6650000000000         3.044589082770627E-006
   95.8550000000000         3.277224248937635E-006
   96.0450000000000         3.493703991805031E-006
   96.2350000000000         3.684096700881036E-006
   96.4250000000000         3.841130029551534E-006
   96.6150000000000         3.960138705809590E-006
   96.8050000000000         4.041137705442720E-006
   96.9950000000000         4.086631003035987E-006
   97.1850000000000         4.101402668489855E-006
   97.3750000000000         4.097917846983981E-006
   97.5650000000000         4.074262884892691E-006
   97.7550000000000         4.041774441619900E-006
   97.9450000000000         4.006449059570007E-006
   98.1350000000000         3.972730041442624E-006
   98.3250000000000         3.943584819436972E-006
   98.5150000000000         3.920527969280401E-006
   98.7050000000000         3.903564226349822E-006
   98.8950000000000         3.888287444142422E-006
   99.0850000000000         3.887434316064959E-006
   99.2750000000000         3.885269057397961E-006
   99.4650000000000         3.890786450523382E-006
   99.6550000000000         3.901144325071735E-006
   99.8450000000000         3.909405395751572E-006
   100.035000000000         3.925454660538369E-006
   100.225000000000         3.935080479565014E-006
   100.415000000000         3.946366267787929E-006
   100.605000000000         3.949860057052357E-006
   100.795000000000         3.940886345338633E-006
   100.985000000000         3.914962790477688E-006
   101.175000000000         3.870954253907845E-006
   101.365000000000         3.804738047867188E-006
   101.555000000000         3.719517940809409E-006
   101.745000000000         3.618647366255436E-006
   101.935000000000         3.507250749484762E-006
   102.125000000000         3.392796006161647E-006
   102.315000000000         3.283347667882805E-006
   102.505000000000         3.187298000805539E-006
   102.695000000000         3.109739783037274E-006
   102.885000000000         3.054790819643099E-006
   103.075000000000         3.026235759805195E-006
   103.265000000000         3.026532565162817E-006
   103.455000000000         3.051199350840781E-006
   103.645000000000         3.098716895411780E-006
   103.835000000000         3.165494998074427E-006
   104.025000000000         3.241837092012780E-006
   104.215000000000         3.328863088051301E-006
   104.405000000000         3.424632929756388E-006
   104.595000000000         3.527321091897890E-006
   104.785000000000         3.635322638414655E-006
   104.975000000000         3.746421927139341E-006
   105.165000000000         3.858399038956232E-006
   105.355000000000         3.962632732333193E-006
   105.545000000000         4.054479327625555E-006
   105.735000000000         4.130376909885966E-006
   105.925000000000         4.192195507208974E-006
   106.115000000000         4.225137678227005E-006
   106.305000000000         4.231207086303757E-006
   106.495000000000         4.212050095964943E-006
   106.685000000000         4.172534117361532E-006
   106.875000000000         4.119683884180809E-006
   107.065000000000         4.061973992580984E-006
   107.255000000000         4.008390754400843E-006
   107.445000000000         3.966500494162255E-006
   107.635000000000         3.941656926152500E-006
   107.825000000000         3.936621285406278E-006
   108.015000000000         3.950140245897686E-006
   108.205000000000         3.977438578260405E-006
   108.395000000000         4.018384179002312E-006
   108.585000000000         4.064991127765481E-006
   108.775000000000         4.114818705278840E-006
   108.965000000000         4.153032334387596E-006
   109.155000000000         4.185099089088175E-006
   109.345000000000         4.209165641506403E-006
   109.535000000000         4.226247819531748E-006
   109.725000000000         4.238443538702497E-006
   109.915000000000         4.247265061622067E-006
   110.105000000000         4.254160013905969E-006