  -1.42500000000000         0.000000000000000E+000
  -1.23500000000000         2.022293081196824E-014
  -1.04500000000000         3.239981887353253E-013
 -0.855000000000000         2.349962052367615E-012
 -0.665000000000000         1.172919688258155E-011
 -0.475000000000000         4.801743155565610E-011
 -0.285000000000000         1.638485244033307E-010
 -9.499999999999975E-002    4.847620713582774E-010
  9.500000000000020E-002    1.264750813905082E-009
  0.285000000000000         2.923244675399121E-009
  0.475000000000000         6.077908788505862E-009
  0.665000000000000         1.145276001285155E-008
  0.855000000000000         1.986640766917881E-008
   1.04500000000000         3.189816974387734E-008
   1.23500000000000         4.789968316684473E-008
   1.42500000000000         6.779071682794660E-008
   1.61500000000000         9.086908638675012E-008
   1.80500000000000         1.158963748787653E-007
   1.99500000000000         1.412225130332056E-007
   2.18500000000000         1.649700128586793E-007
   2.37500000000000         1.852584894956819E-007
   2.56500000000000         1.998287170392076E-007
   2.75500000000000         2.068080426148417E-007
   2.94500000000000         2.063448711172388E-007
   3.13500000000000         1.956656916296447E-007
   3.32500000000000         1.743441121315691E-007
   3.51500000000000         1.423919135153411E-007
   3.70500000000000         1.006416803592766E-007
   3.89500000000000         5.080890496937312E-008
   4.08500000000000        -4.173783373944139E-009
   4.27500000000000        -6.020803990873161E-008
   4.46500000000000        -1.121831979583847E-007
   4.65500000000000        -1.544926910304965E-007
   4.84500000000000        -1.815684810481105E-007
   5.03500000000000        -1.883589806754619E-007
   5.22500000000000        -1.715661919479237E-007
   5.41500000000000        -1.287526579578292E-007
   5.60500000000000        -6.167653140506923E-008
   5.79500000000000         2.760941021386889E-008
   5.98500000000000         1.323778735973572E-007
   6.17500000000000         2.451027654155264E-007
   6.36500000000000         3.581967317343737E-007
   6.55500000000000         4.639870988128061E-007
   6.74500000000000         5.556157239560305E-007
   6.93500000000000         6.271838885352758E-007
   7.12500000000000         6.748395555842013E-007
   7.31500000000000         6.961240345693763E-007
   7.50500000000000         6.910838908325934E-007
   7.69500000000000         6.606480723003569E-007
   7.88500000000000         6.085569927244222E-007
   8.07500000000000         5.392671756847881E-007
   8.26500000000000         4.601916975153279E-007
   8.45500000000000         3.662474319887663E-007
   8.64500000000000         2.721273912508183E-007
   8.83500000000000         1.739660775432911E-007
   9.02500000000000         8.229145832054264E-008
   9.21500000000000         2.628628641946963E-009
   9.40500000000000        -5.879112955738178E-008
   9.59500000000000        -9.710564321081584E-008
   9.78500000000000        -1.072294079549537E-007
   9.97500000000000        -8.898038191352264E-008
   10.1650000000000        -4.157596627075522E-008
   10.3550000000000         3.296592298765333E-008
   10.5450000000000         1.282700968883598E-007
   10.7350000000000         2.370305533503112E-007
   10.9250000000000         3.495361680827319E-007
   11.1150000000000         4.539559060163151E-007
   11.3050000000000         5.416744599609783E-007
   11.4950000000000         6.061594361175065E-007
   11.6850000000000         6.436854912262078E-007
   11.8750000000000         6.542117282684269E-007
   12.0650000000000         6.382614964835513E-007
   12.2550000000000         6.032801358734199E-007
   12.4450000000000         5.561514586915910E-007
   12.6350000000000         5.045250341934398E-007
   12.8250000000000         4.561107076710468E-007
   13.0150000000000         4.219977429135417E-007
   13.2050000000000         3.963862562066773E-007
   13.3950000000000         3.960320869256812E-007
   13.5850000000000         4.086556091695129E-007
   13.7750000000000         4.463369617728245E-007
   13.9650000000000         5.042903893675575E-007
   14.1550000000000         5.837228123123836E-007
   14.3450000000000         6.868839478447893E-007
   14.5350000000000         8.122381842699574E-007
   14.7250000000000         9.565134962393907E-007
   14.9150000000000         1.113564050837564E-006
   15.1050000000000         1.274781800882899E-006
   15.2950000000000         1.426359874942031E-006
   15.4850000000000         1.554906684079676E-006
   15.6750000000000         1.647351299562638E-006
   15.8650000000000         1.692264985743592E-006
   16.0550000000000         1.680237301671915E-006
   16.2450000000000         1.608822778235831E-006
   16.4350000000000         1.476790706698980E-006
   16.6250000000000         1.292120343950249E-006
   16.8150000000000         1.066709669536975E-006
   17.0050000000000         8.173493588926657E-007
   17.1950000000000         5.624131637655106E-007
   17.3850000000000         3.190937313090454E-007
   17.5750000000000         1.026749926359013E-007
   17.7650000000000        -7.113135740812128E-008
   17.9550000000000        -1.990946188897308E-007
   18.1450000000000        -2.789170125927037E-007
   18.3350000000000        -3.073041680829263E-007
   18.5250000000000        -2.849561146926861E-007
   18.7150000000000        -2.283504910764385E-007
   18.9050000000000        -1.330650829538025E-007
   19.0950000000000        -6.071848110762487E-009
   19.2850000000000         1.463674909602826E-007
   19.4750000000000         3.166539557828840E-007
   19.6650000000000         4.954736680958932E-007
   19.8550000000000         6.712346539932051E-007
   20.0450000000000         8.309230337835861E-007
   20.2350000000000         9.564722759380163E-007
   20.4250000000000         1.033704549810863E-006
   20.6150000000000         1.051882812789954E-006
   20.8050000000000         1.001075235576157E-006
   20.9950000000000         8.829375219059866E-007
   21.1850000000000         6.970985216185180E-007
   21.3750000000000         4.555242110695019E-007
   21.5650000000000         1.744153762063190E-007
   21.7550000000000        -1.255155639690599E-007
   21.9450000000000        -4.193599716097764E-007
   22.1350000000000        -6.858620087535326E-007
   22.3250000000000        -9.056860065657977E-007
   22.5150000000000        -1.064918679529568E-006
   22.7050000000000        -1.155683058751147E-006
   22.8950000000000        -1.169932371253026E-006
   23.0850000000000        -1.127553871251468E-006
   23.2750000000000        -1.025945245292158E-006
   23.4650000000000        -8.770505597059037E-007
   23.6550000000000        -6.961975534376672E-007
   23.8450000000000        -4.993774042142250E-007
   24.0350000000000        -2.926236858362483E-007
   24.2250000000000        -8.725156073744947E-008
   24.4150000000000         1.029677759392934E-007
   24.6050000000000         2.678907578442702E-007
   24.7950000000000         4.021985134472517E-007
   24.9850000000000         4.923561486141819E-007
   25.1750000000000         5.252227679966290E-007
   25.3650000000000         4.972594802007847E-007
   25.5550000000000         4.048893401921565E-007
   25.7450000000000         2.507197653648134E-007
   25.9350000000000         4.640892547343317E-008
   26.1250000000000        -1.901648741135889E-007
   26.3150000000000        -4.363840571866845E-007
   26.5050000000000        -6.624999003685802E-007
   26.6950000000000        -8.442391749756497E-007
   26.8850000000000        -9.579024721171784E-007
   27.0750000000000        -9.864676906602608E-007
   27.2650000000000        -9.194913016300121E-007
   27.4550000000000        -7.577290223335244E-007
   27.6450000000000        -5.085751254447202E-007
   27.8350000000000        -1.881747480369069E-007
   28.0250000000000         1.798683268526046E-007
   28.2150000000000         5.673352094240799E-007
   28.4050000000000         9.471628507644683E-007
   28.5950000000000         1.298892089044459E-006
   28.7850000000000         1.599488175262075E-006
   28.9750000000000         1.834089322787133E-006
   29.1650000000000         1.991068092861020E-006
   29.3550000000000         2.062232934229348E-006
   29.5450000000000         2.057279161862756E-006
   29.7350000000000         1.968049480513309E-006
   29.9250000000000         1.802703505471347E-006
   30.1150000000000         1.572037299525792E-006
   30.3050000000000         1.290212638352187E-006
   30.4950000000000         9.750638178634617E-007
   30.6850000000000         6.482173316774362E-007
   30.8750000000000         3.402273280155295E-007
   31.0650000000000         7.341997318730575E-008
   31.2550000000000        -1.320036193032977E-007
   31.4450000000000        -2.475118559359906E-007
   31.6350000000000        -2.600065280931876E-007
   31.8250000000000        -1.653210030182675E-007
   32.0150000000000         3.206856115393264E-008
   32.2050000000000         3.134927242781971E-007
   32.3950000000000         6.547186944989182E-007
   32.5850000000000         1.021555235304869E-006
   32.7750000000000         1.379189889993321E-006
   32.9650000000000         1.695709717181193E-006
   33.1550000000000         1.944081935622628E-006
   33.3450000000000         2.103196458310650E-006
   33.5350000000000         2.163429360821628E-006
   33.7250000000000         2.121235247928501E-006
   33.9150000000000         1.987392221308641E-006
   34.1050000000000         1.778507551952656E-006
   34.2950000000000         1.519375255049070E-006
   34.4850000000000         1.234151417676102E-006
   34.6750000000000         9.425194555016629E-007
   34.8650000000000         6.664610076413696E-007
   35.0550000000000         4.240142030554408E-007
   35.2450000000000         2.302931085819180E-007
   35.4350000000000         9.650773142115889E-008
   35.6250000000000         3.173949308441669E-008
   35.8150000000000         4.595338071413379E-008
   36.0050000000000         1.272310274701221E-007
   36.1950000000000         2.840356051405140E-007
   36.3850000000000         5.062409658124588E-007
   36.5750000000000         7.810067471509210E-007
   36.7650000000000         1.091054393841957E-006
   36.9550000000000         1.414587602475711E-006
   37.1450000000000         1.724296984221361E-006
   37.3350000000000         1.998350122108800E-006
   37.5250000000000         2.214871393462364E-006
   37.7150000000000         2.356672211890857E-006
   37.9050000000000         2.414460372638886E-006
   38.0950000000000         2.386173214561757E-006
   38.2850000000000         2.275285166286132E-006
   38.4750000000000         2.095643457028242E-006
   38.6650000000000         1.873347855297357E-006
   38.8550000000000         1.628215897125838E-006
   39.0450000000000         1.384157649004816E-006
   39.2350000000000         1.158334752888624E-006
   39.4250000000000         9.654554653393873E-007
   39.6150000000000         8.159610621676920E-007
   39.8050000000000         7.145798622431997E-007
   39.9950000000000         6.567542664299110E-007
   40.1850000000000         6.405243851480226E-007
   40.3750000000000         6.584088240127499E-007
   40.5650000000000         6.908209600675538E-007
   40.7550000000000         7.436652359550399E-007
   40.9450000000000         8.072398591751208E-007
   41.1350000000000         8.763489974660291E-007
   41.3250000000000         9.458140257641724E-007
   41.5150000000000         1.013381180021618E-006
   41.7050000000000         1.062178339592652E-006
   41.8950000000000         1.087713479303435E-006
   42.0850000000000         1.090763630855818E-006
   42.2750000000000         1.057195011758427E-006
   42.4650000000000         9.829960820257421E-007
   42.6550000000000         8.673156077050642E-007
   42.8450000000000         7.134540163874010E-007
   43.0350000000000         5.295764258917358E-007
   43.2250000000000         3.273067460241695E-007
   43.4150000000000         1.207790023361834E-007
   43.6050000000000        -7.551213454882419E-008
   43.7950000000000        -2.490920688420366E-007
   43.9850000000000        -3.899865509022253E-007
   44.1750000000000        -4.930339007048322E-007
   44.3650000000000        -5.574075981106798E-007
   44.5550000000000        -5.858024807221538E-007
   44.7450000000000        -5.874532623544888E-007
   44.9350000000000        -5.580176744824931E-007
   45.1250000000000        -5.041942452254497E-007
   45.3150000000000        -4.457277253930133E-007
   45.5050000000000        -3.672271031674972E-007
   45.6950000000000        -2.721257751917897E-007
   45.8850000000000        -1.581579116196903E-007
   46.0750000000000        -2.296203318002912E-008
   46.2650000000000         1.339077789454101E-007
   46.4550000000000         3.096462158509830E-007
   46.6450000000000         4.966075117116771E-007
   46.8350000000000         6.848245570725015E-007
   47.0250000000000         8.652241844427749E-007
   47.2150000000000         1.031959212549307E-006
   47.4050000000000         1.167322739845896E-006
   47.5950000000000         1.266493354613375E-006
   47.7850000000000         1.330273058936473E-006
   47.9750000000000         1.358374882273014E-006
   48.1650000000000         1.360260000458101E-006
   48.3550000000000         1.342980969113399E-006
   48.5450000000000         1.315654917477456E-006
   48.7350000000000         1.287613482949007E-006
   48.9250000000000         1.265812827966553E-006
   49.1150000000000         1.260817028047074E-006
   49.3050000000000         1.260195068709765E-006
   49.4950000000000         1.280166773343844E-006
   49.6850000000000         1.299595318698347E-006
   49.8750000000000         1.328369972026167E-006
   50.0650000000000         1.360959567430283E-006
   50.2550000000000         1.387298796551110E-006
   50.4450000000000         1.422101940901244E-006
   50.6350000000000         1.463607920511654E-006
   50.8250000000000         1.515668322588424E-006
   51.0150000000000         1.582051142077555E-006
   51.2050000000000         1.655076076893130E-006
   51.3950000000000         1.735342263102446E-006
   51.5850000000000         1.824038185165450E-006
   51.7750000000000         1.906323476528101E-006
   51.9650000000000         1.974561305205656E-006
   52.1550000000000         2.020824650157885E-006
   52.3450000000000         2.041549918469004E-006
   52.5350000000000         2.029672014215940E-006
   52.7250000000000         1.999295895227187E-006
   52.9150000000000         1.951366124406139E-006
   53.1050000000000         1.890883935669096E-006
   53.2950000000000         1.827842876684494E-006
   53.4850000000000         1.773040112078519E-006
   53.6750000000000         1.733040792691476E-006
   53.8650000000000         1.706840130043779E-006
   54.0550000000000         1.695780707141814E-006
   54.2450000000000         1.698710909650631E-006
   54.4350000000000         1.711266336392989E-006
   54.6250000000000         1.727999536586016E-006
   54.8150000000000         1.744937428764754E-006
   55.0050000000000         1.760047418058016E-006
   55.1950000000000         1.773909601041810E-006
   55.3850000000000         1.787094220729129E-006
   55.5750000000000         1.803861778720802E-006
   55.7650000000000         1.825797955060305E-006
   55.9550000000000         1.859275358422229E-006
   56.1450000000000         1.904120606129765E-006
   56.3350000000000         1.949722001713513E-006
   56.5250000000000         1.990654382513805E-006
   56.7150000000000         2.017626257685740E-006
   56.9050000000000         2.020951765653088E-006
   57.0950000000000         1.991829170763005E-006
   57.2850000000000         1.926145657976710E-006
   57.4750000000000         1.830191742209620E-006
   57.6650000000000         1.704249760234812E-006
   57.8550000000000         1.550243824777616E-006
   58.0450000000000         1.389009013767723E-006
   58.2350000000000         1.230699736524887E-006
   58.4250000000000         1.085118848720228E-006
   58.6150000000000         9.624715987891378E-007
   58.8050000000000         8.641092879566898E-007
   58.9950000000000         7.958514749359281E-007
   59.1850000000000         7.663464201874035E-007
   59.3750000000000         7.607506009204486E-007
   59.5650000000000         7.898025678095220E-007
   59.7550000000000         8.486152605078065E-007
   59.9450000000000         9.368457354455305E-007
   60.1350000000000         1.046983238085991E-006
   60.3250000000000         1.188013148046979E-006
   60.5150000000000         1.355908902342895E-006
   60.7050000000000         1.546410904552310E-006
   60.8950000000000         1.752043555146718E-006
   61.0850000000000         1.958411903581839E-006
   61.2750000000000         2.152534815727340E-006
   61.4650000000000         2.317704670539521E-006
   61.6550000000000         2.438263262118585E-006
   61.8450000000000         2.500260087862025E-006
   62.0350000000000         2.498454128017892E-006
   62.2250000000000         2.427068920262300E-006
   62.4150000000000         2.285975995683483E-006
   62.6050000000000         2.095159951657217E-006
   62.7950000000000         1.869422842193821E-006
   62.9850000000000         1.631721721713429E-006
   63.1750000000000         1.399208379423355E-006
   63.3650000000000         1.193989253037884E-006
   63.5550000000000         1.034409220844908E-006
   63.7450000000000         9.371803849536175E-007
   63.9350000000000         9.016331944092119E-007
   64.1250000000000         9.282279871707110E-007
   64.3150000000000         1.010163915993091E-006
   64.5050000000000         1.139917753985411E-006
   64.6950000000000         1.310792562814418E-006
   64.8850000000000         1.508163925865860E-006
   65.0750000000000         1.712729563167296E-006
   65.2650000000000         1.913711299164180E-006
   65.4550000000000         2.097935357122393E-006
   65.6450000000000         2.251883185668333E-006
   65.8350000000000         2.363511350994002E-006
   66.0250000000000         2.419988715651136E-006
   66.2150000000000         2.414331079132374E-006
   66.4050000000000         2.339629028990161E-006
   66.5950000000000         2.199710066574817E-006
   66.7850000000000         2.001452849632218E-006
   66.9750000000000         1.759360642567328E-006
   67.1650000000000         1.492228245765417E-006
   67.3550000000000         1.223304218145316E-006
   67.5450000000000         9.777789630983217E-007
   67.7350000000000         7.842405775468461E-007
   67.9250000000000         6.663825077011673E-007
   68.1150000000000         6.360673811926218E-007
   68.3050000000000         7.067533735771502E-007
   68.4950000000000         8.708380063683166E-007
   68.6850000000000         1.121823669990583E-006
   68.8750000000000         1.442320467850885E-006
   69.0650000000000         1.808259301266599E-006
   69.2550000000000         2.189710166375541E-006
   69.4450000000000         2.559267123367224E-006
   69.6350000000000         2.893492036320536E-006
   69.8250000000000         3.170582108122317E-006
   70.0150000000000         3.373781155625622E-006
   70.2050000000000         3.493376960329861E-006
   70.3950000000000         3.524802735480624E-006
   70.5850000000000         3.465621792432170E-006
   70.7750000000000         3.328688386806098E-006
   70.9650000000000         3.122626235467008E-006
   71.1550000000000         2.861136434687284E-006
   71.3450000000000         2.561747591831331E-006
   71.5350000000000         2.245036592219251E-006
   71.7250000000000         1.933577693295661E-006
   71.9150000000000         1.650332502537885E-006
   72.1050000000000         1.417191965489139E-006
   72.2950000000000         1.254559740939226E-006
   72.4850000000000         1.175512391129393E-006
   72.6750000000000         1.191570407489704E-006
   72.8650000000000         1.303578168066065E-006
   73.0550000000000         1.500867744631616E-006
   73.2450000000000         1.768744656875643E-006
   73.4350000000000         2.085381105730159E-006
   73.6250000000000         2.422595704003870E-006
   73.8150000000000         2.751387063546818E-006
   74.0050000000000         3.044709240283435E-006
   74.1950000000000         3.279284860100096E-006
   74.3850000000000         3.437005627211107E-006
   74.5750000000000         3.503940355676484E-006
   74.7650000000000         3.490728436212533E-006
   74.9550000000000         3.391555204263600E-006
   75.1450000000000         3.234137595684200E-006
   75.3350000000000         3.028248619191576E-006
   75.5250000000000         2.797726750318062E-006
   75.7150000000000         2.567424801861160E-006
   75.9050000000000         2.360418132235776E-006
   76.0950000000000         2.192378741241925E-006
   76.2850000000000         2.077443619716000E-006
   76.4750000000000         2.024749812799856E-006
   76.6650000000000         2.037722710362365E-006
   76.8550000000000         2.117453721856994E-006
   77.0450000000000         2.266488060006645E-006
   77.2350000000000         2.470186851850537E-006
   77.4250000000000         2.713436126856599E-006
   77.6150000000000         2.976601426779768E-006
   77.8050000000000         3.243994617993417E-006
   77.9950000000000         3.493147645821634E-006
   78.1850000000000         3.702613526989218E-006
   78.3750000000000         3.852773945717616E-006
   78.5650000000000         3.931796681072173E-006
   78.7550000000000         3.919198805225912E-006
   78.9450000000000         3.823737625670634E-006
   79.1350000000000         3.642815076494811E-006
   79.3250000000000         3.389501056984205E-006
   79.5150000000000         3.081392878270686E-006
   79.7050000000000         2.741924303271387E-006
   79.8950000000000         2.396724508355731E-006
   80.0850000000000         2.071349056837322E-006
   80.2750000000000         1.792777034704175E-006
   80.4650000000000         1.578700042435734E-006
   80.6550000000000         1.442390968478681E-006
   80.8450000000000         1.390369434097375E-006
   81.0350000000000         1.421231018268052E-006
   81.2250000000000         1.530812830211744E-006
   81.4150000000000         1.711187183457552E-006
   81.6050000000000         1.948333530370347E-006
   81.7950000000000         2.224204884102889E-006
   81.9850000000000         2.519628528132981E-006
   82.1750000000000         2.812133052309936E-006
   82.3650000000000         3.088676292429279E-006
   82.5550000000000         3.332890210814932E-006
   82.7450000000000         3.531601180751293E-006
   82.9350000000000         3.674239968959850E-006
   83.1250000000000         3.753899348764898E-006
   83.3150000000000         3.766339560262467E-006
   83.5050000000000         3.713672454901148E-006
   83.6950000000000         3.601981785530384E-006
   83.8850000000000         3.439971762618486E-006
   84.0750000000000         3.240916887497748E-006
   84.2650000000000         3.017541254554089E-006
   84.4550000000000         2.788212652990504E-006
   84.6450000000000         2.567450972338772E-006
   84.8350000000000         2.369637758569554E-006
   85.0250000000000         2.203994739594106E-006
   85.2150000000000         2.076425447157751E-006
   85.4050000000000         1.991681332037424E-006
   85.5950000000000         1.948453627329468E-006
   85.7850000000000         1.942449447146323E-006
   85.9750000000000         1.969099659679771E-006
   86.1650000000000         2.020737515147792E-006
   86.3550000000000         2.089800601399507E-006
   86.5450000000000         2.169651295325346E-006
   86.7350000000000         2.255002301788722E-006
   86.9250000000000         2.342077717604334E-006
   87.1150000000000         2.428754974253121E-006
   87.3050000000000         2.512461078630383E-006
   87.4950000000000         2.593210285101223E-006
   87.6850000000000         2.672334990168679E-006
   87.8750000000000         2.749943051469123E-006
   88.0650000000000         2.826471100784395E-006
   88.2550000000000         2.894936347328231E-006
   88.4450000000000         2.959029464967799E-006
   88.6350000000000         3.016000952750763E-006
   88.8250000000000         3.072278733852383E-006
   89.0150000000000         3.124876235248073E-006
   89.2050000000000         3.181793882120354E-006
   89.3950000000000         3.246001542319890E-006
   89.5850000000000         3.320866241912861E-006
   89.7750000000000         3.409840935616632E-006
   89.9650000000000         3.515334779380200E-006
   90.1550000000000         3.638547979752845E-006
   90.3450000000000         3.779210419469211E-006
   90.5350000000000         3.937975136355471E-006
   90.7250000000000         4.103830262588191E-006
   90.9150000000000         4.270348591197125E-006
   91.1050000000000         4.428065780206475E-006
   91.2950000000000         4.566502860368307E-006
   91.4850000000000         4.674257769379949E-006
   91.6750000000000         4.746004478641069E-006
   91.8650000000000         4.771849873232885E-006
   92.0550000000000         4.746409938584890E-006
   92.2450000000000         4.670664946750656E-006
   92.4350000000000         4.543465648664567E-006
   92.6250000000000         4.368363879239962E-006
   92.8150000000000         4.151199370213771E-006
   93.0050000000000         3.901580095583612E-006
   93.1950000000000         3.630770204455883E-006
   93.3850000000000         3.352138431755241E-006
   93.5750000000000         3.079896057743772E-006
   93.7650000000000         2.828628780700119E-006
   93.9550000000000         2.612427764135904E-006
   94.1450000000000         2.444331606099281E-006
   94.3350000000000         2.334674058262466E-006
   94.5250000000000         2.290467706941711E-006
   94.7150000000000         2.314873185720982E-006
   94.9050000000000         2.416404833504785E-006
   95.0950000000000         2.577045234299399E-006
   95.2850000000000         2.795757336610874E-006
   95.4750000000000         3.056912444917524E-006
   95.6650000000000         3.343803951269419E-006
   95.8550000000000         3.638960712798456E-006
   96.0450000000000         3.924462986926711E-006
   96.2350000000000         4.183730745945034E-006
   96.4250000000000         4.402761239519010E-006
   96.6150000000000         4.571650532171163E-006
   96.8050000000000         4.684807383213190E-006
   96.9950000000000         4.742096036571010E-006
   97.1850000000000         4.746267138081041E-006
   97.3750000000000         4.714736876180586E-006
   97.5650000000000         4.645708552880461E-006
   97.7550000000000         4.556343996155896E-006
   97.9450000000000         4.457991889577887E-006
   98.1350000000000         4.361526043753868E-006
   98.3250000000000         4.276049081997227E-006
   98.5150000000000         4.208351991570629E-006
   98.7050000000000         4.162759879614350E-006
   98.8950000000000         4.136276179586039E-006
   99.0850000000000         4.145317310354147E-006
   99.2750000000000         4.168907690621027E-006
   99.4650000000000         4.215015280798556E-006
   99.6550000000000         4.275120054231465E-006
   99.8450000000000         4.338340300380379E-006
   100.035000000000         4.407792286338729E-006
   100.225000000000         4.465579489726404E-006
   100.415000000000         4.514126200662820E-006
   100.605000000000         4.540791823926488E-006
   100.795000000000         4.540634310977952E-006
   100.985000000000         4.505950757772943E-006
   101.175000000000         4.440717025002681E-006
   101.365000000000         4.342148317828258E-006
   101.555000000000         4.217650771074152E-006
   101.745000000000         4.074609082185152E-006
   101.935000000000         3.922972934303837E-006
   102.125000000000         3.774143410839390E-006
   102.315000000000         3.639903621743479E-006
   102.505000000000         3.530638749902403E-006
   102.695000000000         3.453732000524601E-006
   102.885000000000         3.413484659859634E-006
   103.075000000000         3.413194466955876E-006
   103.265000000000         3.451229470396648E-006
   103.455000000000         3.521518105832721E-006
   103.645000000000         3.618853256079447E-006
   103.835000000000         3.736350528779397E-006
   104.025000000000         3.860344736449032E-006
   104.215000000000         3.989074370465143E-006
   104.405000000000         4.118489143013449E-006
   104.595000000000         4.245066067238026E-006
   104.785000000000         4.366413014285276E-006
   104.975000000000         4.480310844735361E-006
   105.165000000000         4.585886906511003E-006
   105.355000000000         4.674664771025267E-006
   105.545000000000         4.743939235538464E-006
   105.735000000000         4.791861371108344E-006
   105.925000000000         4.825301014744706E-006
   106.115000000000         4.825914561746530E-006
   106.305000000000         4.800012030552667E-006
   106.495000000000         4.750126362211904E-006
   106.685000000000         4.681134341112920E-006
   106.875000000000         4.600164145937839E-006
   107.065000000000         4.515658139863569E-006
   107.255000000000         4.436562806816062E-006
   107.445000000000         4.370443279795696E-006
   107.635000000000         4.322827765250646E-006
   107.825000000000         4.297190138274096E-006
   108.015000000000         4.293975817206966E-006
   108.205000000000         4.305262636057812E-006
   108.395000000000         4.337995856476981E-006
   108.585000000000         4.383320872904822E-006
   108.775000000000         4.436785093688974E-006
   108.965000000000         4.485810581161164E-006
   109.155000000000         4.537207991474944E-006
   109.345000000000         4.587724425525700E-006
   109.535000000000         4.637235677590491E-006
   109.725000000000         4.686306648796231E-006
   109.915000000000         4.734788279301832E-006
   110.105000000000         4.782016334247101E-006