  -1.42500000000000         0.000000000000000E+000
  -1.23500000000000        -9.567015359609815E-015
  -1.04500000000000        -2.447049842111120E-013
 -0.855000000000000        -1.810954651082917E-012
 -0.665000000000000        -9.527938411053479E-012
 -0.475000000000000        -4.005324211876886E-011
 -0.285000000000000        -1.423385121850445E-010
 -9.499999999999975E-002   -4.364880768517079E-010
  9.500000000000020E-002   -1.174345510020169E-009
  0.285000000000000        -2.817789899040955E-009
  0.475000000000000        -6.082041889152392E-009
  0.665000000000000        -1.197595370933366E-008
  0.855000000000000        -2.162552413064536E-008
   1.04500000000000        -3.619926400764552E-008
   1.23500000000000        -5.662489107744716E-008
   1.42500000000000        -8.328415432638845E-008
   1.61500000000000        -1.157593629822842E-007
   1.80500000000000        -1.525930767691610E-007
   1.99500000000000        -1.912747132906536E-007
   2.18500000000000        -2.282000303789144E-007
   2.37500000000000        -2.590330028923274E-007
   2.56500000000000        -2.784157482242991E-007
   2.75500000000000        -2.815165776812259E-007
   2.94500000000000        -2.632198005785600E-007
   3.13500000000000        -2.216845261130068E-007
   3.32500000000000        -1.563154425357087E-007
   3.51500000000000        -6.830841427440361E-008
   3.70500000000000         3.872589480834166E-008
   3.89500000000000         1.592328561474316E-007
   4.08500000000000         2.863073676821201E-007
   4.27500000000000         4.122691221463371E-007
   4.46500000000000         5.294403996746932E-007
   4.65500000000000         6.307814177364712E-007
   4.84500000000000         7.101366796545052E-007
   5.03500000000000         7.627775399293379E-007
   5.22500000000000         7.867012445347415E-007
   5.41500000000000         7.796812652436297E-007
   5.60500000000000         7.425201434298468E-007
   5.79500000000000         6.780768415903836E-007
   5.98500000000000         5.894304907604755E-007
   6.17500000000000         4.815603016493161E-007
   6.36500000000000         3.624762358353523E-007
   6.55500000000000         2.395421472342390E-007
   6.74500000000000         1.217701094307713E-007
   6.93500000000000         2.027560849833003E-008
   7.12500000000000        -5.692195610238231E-008
   7.31500000000000        -1.019100755202329E-007
   7.50500000000000        -1.096708096341447E-007
   7.69500000000000        -7.781633557789422E-008
   7.88500000000000        -6.663718095333569E-009
   8.07500000000000         9.952365516574296E-008
   8.26500000000000         2.372322970269850E-007
   8.45500000000000         3.894515353135781E-007
   8.64500000000000         5.503889207792024E-007
   8.83500000000000         7.031918558190035E-007
   9.02500000000000         8.385467217889493E-007
   9.21500000000000         9.491417893097454E-007
   9.40500000000000         1.027360064700433E-006
   9.59500000000000         1.070281586342282E-006
   9.78500000000000         1.079461990937399E-006
   9.97500000000000         1.053388649748334E-006
   10.1650000000000         9.997838438950410E-007
   10.3550000000000         9.237977211127480E-007
   10.5450000000000         8.318033454252319E-007
   10.7350000000000         7.313959252085755E-007
   10.9250000000000         6.277505030783935E-007
   11.1150000000000         5.231900580797410E-007
   11.3050000000000         4.258255316900299E-007
   11.4950000000000         3.407579889891051E-007
   11.6850000000000         2.746944550610675E-007
   11.8750000000000         2.313887965283980E-007
   12.0650000000000         2.116250109610155E-007
   12.2550000000000         2.188992786959093E-007
   12.4450000000000         2.501117088902161E-007
   12.6350000000000         3.001961062681972E-007
   12.8250000000000         3.608165020269237E-007
   13.0150000000000         4.235288621941484E-007
   13.2050000000000         4.692522740279184E-007
   13.3950000000000         4.915277298993193E-007
   13.5850000000000         4.682803618669385E-007
   13.7750000000000         3.988368481683910E-007
   13.9650000000000         2.751097844097357E-007
   14.1550000000000         9.730593138092660E-008
   14.3450000000000        -1.244652889463353E-007
   14.5350000000000        -3.781513519784343E-007
   14.7250000000000        -6.476921156384385E-007
   14.9150000000000        -9.152203487313248E-007
   15.1050000000000        -1.161256401121352E-006
   15.2950000000000        -1.374065371969633E-006
   15.4850000000000        -1.539103280875969E-006
   15.6750000000000        -1.643352613562467E-006
   15.8650000000000        -1.680350589416807E-006
   16.0550000000000        -1.645416550828332E-006
   16.2450000000000        -1.538589957688005E-006
   16.4350000000000        -1.365668441606299E-006
   16.6250000000000        -1.130974024614081E-006
   16.8150000000000        -8.429044486611786E-007
   17.0050000000000        -5.137674300245902E-007
   17.1950000000000        -1.597859700374872E-007
   17.3850000000000         1.997151032347317E-007
   17.5750000000000         5.437295780806019E-007
   17.7650000000000         8.490596272109760E-007
   17.9550000000000         1.089775086697871E-006
   18.1450000000000         1.243992730709077E-006
   18.3350000000000         1.298228196020249E-006
   18.5250000000000         1.244958746997789E-006
   18.7150000000000         1.078555833162407E-006
   18.9050000000000         8.128490229202607E-007
   19.0950000000000         4.682990645226802E-007
   19.2850000000000         7.170536999158526E-008
   19.4750000000000        -3.454071847881222E-007
   19.6650000000000        -7.499633385077416E-007
   19.8550000000000        -1.110685996958129E-006
   20.0450000000000        -1.400582680184296E-006
   20.2350000000000        -1.602827799325220E-006
   20.4250000000000        -1.704394934755380E-006
   20.6150000000000        -1.700062354562283E-006
   20.8050000000000        -1.588758831917615E-006
   20.9950000000000        -1.385230752825332E-006
   21.1850000000000        -1.098285201692681E-006
   21.3750000000000        -7.488404672767174E-007
   21.5650000000000        -3.557359909882305E-007
   21.7550000000000         5.929664338591673E-008
   21.9450000000000         4.738535279983242E-007
   22.1350000000000         8.644227690061100E-007
   22.3250000000000         1.207551728580175E-006
   22.5150000000000         1.479928905665151E-006
   22.7050000000000         1.660838469544019E-006
   22.8950000000000         1.740453669905323E-006
   23.0850000000000         1.702780636510332E-006
   23.2750000000000         1.553174062149302E-006
   23.4650000000000         1.302303725623535E-006
   23.6550000000000         9.705334997701507E-007
   23.8450000000000         5.771672623672245E-007
   24.0350000000000         1.696055523824904E-007
   24.2250000000000        -2.155506232287604E-007
   24.4150000000000        -5.417654861345925E-007
   24.6050000000000        -7.774763242917057E-007
   24.7950000000000        -8.910335636568250E-007
   24.9850000000000        -8.726224130728509E-007
   25.1750000000000        -7.222422539152719E-007
   25.3650000000000        -4.511701354316191E-007
   25.5550000000000        -8.181553878284934E-008
   25.7450000000000         3.573650347582675E-007
   25.9350000000000         8.320103457639740E-007
   26.1250000000000         1.305603456800318E-006
   26.3150000000000         1.741087651551445E-006
   26.5050000000000         2.111975039724538E-006
   26.6950000000000         2.388425655332635E-006
   26.8850000000000         2.546588827184212E-006
   27.0750000000000         2.570522296371353E-006
   27.2650000000000         2.452636170134819E-006
   27.4550000000000         2.197044285359114E-006
   27.6450000000000         1.810789555176973E-006
   27.8350000000000         1.313046515802505E-006
   28.0250000000000         7.312161110376489E-007
   28.2150000000000         1.009696641342399E-007
   28.4050000000000        -5.377466162800179E-007
   28.5950000000000        -1.134276551008902E-006
   28.7850000000000        -1.645721167424298E-006
   28.9750000000000        -2.028064485539332E-006
   29.1650000000000        -2.255568146721849E-006
   29.3550000000000        -2.306352583270158E-006
   29.5450000000000        -2.165123687012870E-006
   29.7350000000000        -1.855319787055507E-006
   29.9250000000000        -1.404264162052910E-006
   30.1150000000000        -8.525776542009891E-007
   30.3050000000000        -2.513117374340984E-007
   30.4950000000000         3.444236514556560E-007
   30.6850000000000         8.801883783898520E-007
   30.8750000000000         1.314337181406371E-006
   31.0650000000000         1.611108114096089E-006
   31.2550000000000         1.739945209571955E-006
   31.4450000000000         1.701248810938528E-006
   31.6350000000000         1.497647844395118E-006
   31.8250000000000         1.151561788765830E-006
   32.0150000000000         6.885662373237468E-007
   32.2050000000000         1.430030056633627E-007
   32.3950000000000        -4.445262400665037E-007
   32.5850000000000        -1.035925480976604E-006
   32.7750000000000        -1.590017795477039E-006
   32.9650000000000        -2.069220829655978E-006
   33.1550000000000        -2.440699215099212E-006
   33.3450000000000        -2.678619563437150E-006
   33.5350000000000        -2.764276214081980E-006
   33.7250000000000        -2.690160151080334E-006
   33.9150000000000        -2.462670901517009E-006
   34.1050000000000        -2.097384963310525E-006
   34.2950000000000        -1.614867534948954E-006
   34.4850000000000        -1.054728766325197E-006
   34.6750000000000        -4.645133191842357E-007
   34.8650000000000         1.081043258091533E-007
   35.0550000000000         6.157626006230322E-007
   35.2450000000000         1.016994744211264E-006
   35.4350000000000         1.279775382736595E-006
   35.6250000000000         1.387776827865507E-006
   35.8150000000000         1.336552956012193E-006
   36.0050000000000         1.130935976311143E-006
   36.1950000000000         7.997901704933022E-007
   36.3850000000000         3.740106245854914E-007
   36.5750000000000        -1.082939129678961E-007
   36.7650000000000        -6.076012717806906E-007
   36.9550000000000        -1.087432872891420E-006
   37.1450000000000        -1.519324838301091E-006
   37.3350000000000        -1.879729528216776E-006
   37.5250000000000        -2.151956509664460E-006
   37.7150000000000        -2.328418802147646E-006
   37.9050000000000        -2.406272082208640E-006
   38.0950000000000        -2.390012107289570E-006
   38.2850000000000        -2.297634641634814E-006
   38.4750000000000        -2.135609634033962E-006
   38.6650000000000        -1.917969783669177E-006
   38.8550000000000        -1.663564842084867E-006
   39.0450000000000        -1.391176095370867E-006
   39.2350000000000        -1.120719314218491E-006
   39.4250000000000        -8.722716991866508E-007
   39.6150000000000        -6.647092916452554E-007
   39.8050000000000        -5.124374914986590E-007
   39.9950000000000        -4.229448501318389E-007
   40.1850000000000        -4.050185559309493E-007
   40.3750000000000        -4.536802095185955E-007
   40.5650000000000        -5.664827631285543E-007
   40.7550000000000        -7.198516859345930E-007
   40.9450000000000        -8.944139861041560E-007
   41.1350000000000        -1.067063219347495E-006
   41.3250000000000        -1.215485227153867E-006
   41.5150000000000        -1.318225032804675E-006
   41.7050000000000        -1.369076448532637E-006
   41.8950000000000        -1.357967760222485E-006
   42.0850000000000        -1.276630995419700E-006
   42.2750000000000        -1.134317461830626E-006
   42.4650000000000        -9.399342957611269E-007
   42.6550000000000        -7.028527135535275E-007
   42.8450000000000        -4.334705293275663E-007
   43.0350000000000        -1.412790587836586E-007
   43.2250000000000         1.650835194167908E-007
   43.4150000000000         4.787454120678608E-007
   43.6050000000000         7.926346687601918E-007
   43.7950000000000         1.097963351279322E-006
   43.9850000000000         1.385687743201639E-006
   44.1750000000000         1.644322732689821E-006
   44.3650000000000         1.860805674885340E-006
   44.5550000000000         2.021320836632069E-006
   44.7450000000000         2.111734630067830E-006
   44.9350000000000         2.130213346464992E-006
   45.1250000000000         2.071051050753351E-006
   45.3150000000000         1.923473835809345E-006
   45.5050000000000         1.705700089407010E-006
   45.6950000000000         1.427630287555521E-006
   45.8850000000000         1.105926510876458E-006
   46.0750000000000         7.592039914330811E-007
   46.2650000000000         4.059354288040604E-007
   46.4550000000000         6.280484335263523E-008
   46.6450000000000        -2.576026721069231E-007
   46.8350000000000        -5.489379596692763E-007
   47.0250000000000        -8.019817139108225E-007
   47.2150000000000        -1.011138498867205E-006
   47.4050000000000        -1.181294651385951E-006
   47.5950000000000        -1.311720072567565E-006
   47.7850000000000        -1.400164260811955E-006
   47.9750000000000        -1.448923743419365E-006
   48.1650000000000        -1.456114496122263E-006
   48.3550000000000        -1.424357593204447E-006
   48.5450000000000        -1.359955152666601E-006
   48.7350000000000        -1.269451391001281E-006
   48.9250000000000        -1.162860104707894E-006
   49.1150000000000        -1.049375591027664E-006
   49.3050000000000        -9.500117933669553E-007
   49.4950000000000        -8.721397352014716E-007
   49.6850000000000        -8.367292258148343E-007
   49.8750000000000        -8.476187603445360E-007
   50.0650000000000        -9.086216579686643E-007
   50.2550000000000        -1.024189360209491E-006
   50.4450000000000        -1.177679308539328E-006
   50.6350000000000        -1.357713045095634E-006
   50.8250000000000        -1.546761161606077E-006
   51.0150000000000        -1.726189926014984E-006
   51.2050000000000        -1.887196425401439E-006
   51.3950000000000        -2.015749829484623E-006
   51.5850000000000        -2.098111032114317E-006
   51.7750000000000        -2.139274186743321E-006
   51.9650000000000        -2.141016453332760E-006
   52.1550000000000        -2.109092792852190E-006
   52.3450000000000        -2.051822298577119E-006
   52.5350000000000        -1.977127864452185E-006
   52.7250000000000        -1.887225836356800E-006
   52.9150000000000        -1.790333034135315E-006
   53.1050000000000        -1.694176317333528E-006
   53.2950000000000        -1.603247289021491E-006
   53.4850000000000        -1.518455736525624E-006
   53.6750000000000        -1.443733973833248E-006
   53.8650000000000        -1.388241518052891E-006
   54.0550000000000        -1.355151764641885E-006
   54.2450000000000        -1.346542161382016E-006
   54.4350000000000        -1.364111206623182E-006
   54.6250000000000        -1.407590431284937E-006
   54.8150000000000        -1.472874180741495E-006
   55.0050000000000        -1.552347696460275E-006
   55.1950000000000        -1.636536655799495E-006
   55.3850000000000        -1.713483866149990E-006
   55.5750000000000        -1.769716405837387E-006
   55.7650000000000        -1.796117958753780E-006
   55.9550000000000        -1.778677106306767E-006
   56.1450000000000        -1.716645121050361E-006
   56.3350000000000        -1.615240749718757E-006
   56.5250000000000        -1.481908436585091E-006
   56.7150000000000        -1.327181824066586E-006
   56.9050000000000        -1.163891804282557E-006
   57.0950000000000        -1.002397194015848E-006
   57.2850000000000        -8.509456565641434E-007
   57.4750000000000        -7.108218008328499E-007
   57.6650000000000        -5.861097774381278E-007
   57.8550000000000        -4.776326712320800E-007
   58.0450000000000        -3.745878515609284E-007
   58.2350000000000        -2.736788246143468E-007
   58.4250000000000        -1.729570768446648E-007
   58.6150000000000        -7.085134463956305E-008
   58.8050000000000         2.124370251853808E-008
   58.9950000000000         9.775178237850925E-008
   59.1850000000000         1.524270204934116E-007
   59.3750000000000         1.666006161464335E-007
   59.5650000000000         1.332371995393574E-007
   59.7550000000000         4.476185239957466E-008
   59.9450000000000        -1.020767770064944E-007
   60.1350000000000        -3.125728671146670E-007
   60.3250000000000        -5.722359122900800E-007
   60.5150000000000        -8.696702548189080E-007
   60.7050000000000        -1.188673984478180E-006
   60.8950000000000        -1.511098380558847E-006
   61.0850000000000        -1.820037569885359E-006
   61.2750000000000        -2.100163672655646E-006
   61.4650000000000        -2.334550692998878E-006
   61.6550000000000        -2.509962752856287E-006
   61.8450000000000        -2.616158268644146E-006
   62.0350000000000        -2.644024442447349E-006
   62.2250000000000        -2.590755616035918E-006
   62.4150000000000        -2.463262832150130E-006
   62.6050000000000        -2.256735436758337E-006
   62.7950000000000        -1.982564466903386E-006
   62.9850000000000        -1.655730770850218E-006
   63.1750000000000        -1.296797652927157E-006
   63.3650000000000        -9.316314685317655E-007
   63.5550000000000        -5.881727950395498E-007
   63.7450000000000        -2.918635427872679E-007
   63.9350000000000        -7.743358831787961E-008
   64.1250000000000         3.301502089209150E-008
   64.3150000000000         2.626098690926685E-008
   64.5050000000000        -1.054319861179711E-007
   64.6950000000000        -3.484510744826337E-007
   64.8850000000000        -6.820301356184820E-007
   65.0750000000000        -1.084436208683547E-006
   65.2650000000000        -1.512586575479986E-006
   65.4550000000000        -1.925704911122001E-006
   65.6450000000000        -2.284095339891420E-006
   65.8350000000000        -2.552500757875864E-006
   66.0250000000000        -2.707162744424176E-006
   66.2150000000000        -2.733600884955851E-006
   66.4050000000000        -2.629820515183830E-006
   66.5950000000000        -2.408613174600156E-006
   66.7850000000000        -2.089576248766424E-006
   66.9750000000000        -1.701539125456872E-006
   67.1650000000000        -1.280799204896725E-006
   67.3550000000000        -8.666806594553913E-007
   67.5450000000000        -4.977739099176710E-007
   67.7350000000000        -2.092866255725256E-007
   67.9250000000000        -2.848812123896281E-008
   68.1150000000000         2.035056843076559E-008
   68.3050000000000        -7.358632661365259E-008
   68.4950000000000        -3.150223912915266E-007
   68.6850000000000        -6.958132443714366E-007
   68.8750000000000        -1.196193216513542E-006
   69.0650000000000        -1.787104624843938E-006
   69.2550000000000        -2.431241587024796E-006
   69.4450000000000        -3.084018263595324E-006
   69.6350000000000        -3.695835161780021E-006
   69.8250000000000        -4.219593153848261E-006
   70.0150000000000        -4.613605182489752E-006
   70.2050000000000        -4.844621241285074E-006
   70.3950000000000        -4.892724274279621E-006
   70.5850000000000        -4.753673073601453E-006
   70.7750000000000        -4.434881667005209E-006
   70.9650000000000        -3.961385318398051E-006
   71.1550000000000        -3.373141057404459E-006
   71.3450000000000        -2.717354595145615E-006
   71.5350000000000        -2.045965726122770E-006
   71.7250000000000        -1.410136750166601E-006
   71.9150000000000        -8.562934694156428E-007
   72.1050000000000        -4.220222719410061E-007
   72.2950000000000        -1.328211867794444E-007
   72.4850000000000        -1.991502584535403E-009
   72.6750000000000        -2.952379259056759E-008
   72.8650000000000        -2.001326690109257E-007
   73.0550000000000        -4.951786140214766E-007
   73.2450000000000        -8.858279344722196E-007
   73.4350000000000        -1.337353624588463E-006
   73.6250000000000        -1.813192582187311E-006
   73.8150000000000        -2.276810267040901E-006
   74.0050000000000        -2.694896536325649E-006
   74.1950000000000        -3.038018851700380E-006
   74.3850000000000        -3.282563650182910E-006
   74.5750000000000        -3.420233291401334E-006
   74.7650000000000        -3.432635331449308E-006
   74.9550000000000        -3.334226257731931E-006
   75.1450000000000        -3.127309475963023E-006
   75.3350000000000        -2.839326148099431E-006
   75.5250000000000        -2.498189246591186E-006
   75.7150000000000        -2.133488640179184E-006
   75.9050000000000        -1.781998881567846E-006
   76.0950000000000        -1.480428774765697E-006
   76.2850000000000        -1.258451197592954E-006
   76.4750000000000        -1.139702929541664E-006
   76.6650000000000        -1.138473482358688E-006
   76.8550000000000        -1.259172310182149E-006
   77.0450000000000        -1.484123098855049E-006
   77.2350000000000        -1.798091671288406E-006
   77.4250000000000        -2.176600152207992E-006
   77.6150000000000        -2.588937704116553E-006
   77.8050000000000        -2.995831042541239E-006
   77.9950000000000        -3.364062039795943E-006
   78.1850000000000        -3.663790603392749E-006
   78.3750000000000        -3.871797940668250E-006
   78.5650000000000        -3.969266901826601E-006
   78.7550000000000        -3.956968650153814E-006
   78.9450000000000        -3.822711223801679E-006
   79.1350000000000        -3.587620673440337E-006
   79.3250000000000        -3.262471112451397E-006
   79.5150000000000        -2.870271238539643E-006
   79.7050000000000        -2.436940869508567E-006
   79.8950000000000        -1.991152625453434E-006
   80.0850000000000        -1.561890817912644E-006
   80.2750000000000        -1.174811959019940E-006
   80.4650000000000        -8.582492189178731E-007
   80.6550000000000        -6.320815125036365E-007
   80.8450000000000        -5.114324204654134E-007
   81.0350000000000        -5.042463314215422E-007
   81.2250000000000        -6.116935382738786E-007
   81.4150000000000        -8.211621640703392E-007
   81.6050000000000        -1.115861391943641E-006
   81.7950000000000        -1.473624181006555E-006
   81.9850000000000        -1.870646134390580E-006
   82.1750000000000        -2.281212355535293E-006
   82.3650000000000        -2.673198112858773E-006
   82.5550000000000        -3.023067127033471E-006
   82.7450000000000        -3.311841723321019E-006
   82.9350000000000        -3.525313508309649E-006
   83.1250000000000        -3.659372999194207E-006
   83.3150000000000        -3.713419564179956E-006
   83.5050000000000        -3.691181583803455E-006
   83.6950000000000        -3.606745379988034E-006
   83.8850000000000        -3.472985343255717E-006
   84.0750000000000        -3.301593111160156E-006
   84.2650000000000        -3.108324795454411E-006
   84.4550000000000        -2.905927211274142E-006
   84.6450000000000        -2.706329209091707E-006
   84.8350000000000        -2.518813147550609E-006
   85.0250000000000        -2.350499583369716E-006
   85.2150000000000        -2.206675375853424E-006
   85.4050000000000        -2.091613729990235E-006
   85.5950000000000        -2.008717431410091E-006
   85.7850000000000        -1.958256881746096E-006
   85.9750000000000        -1.941301322880527E-006
   86.1650000000000        -1.955926062589598E-006
   86.3550000000000        -1.999644161466224E-006
   86.5450000000000        -2.069318591683877E-006
   86.7350000000000        -2.160992904164419E-006
   86.9250000000000        -2.270065498223150E-006
   87.1150000000000        -2.391852914701392E-006
   87.3050000000000        -2.520185650720826E-006
   87.4950000000000        -2.650593576571656E-006
   87.6850000000000        -2.778126715098927E-006
   87.8750000000000        -2.898474426076373E-006
   88.0650000000000        -3.008543972319763E-006
   88.2550000000000        -3.112343624804743E-006
   88.4450000000000        -3.205680619632836E-006
   88.6350000000000        -3.290351019263450E-006
   88.8250000000000        -3.362669123006447E-006
   89.0150000000000        -3.427694047393522E-006
   89.2050000000000        -3.480876492467717E-006
   89.3950000000000        -3.525012194552251E-006
   89.5850000000000        -3.563333612197407E-006
   89.7750000000000        -3.599378517732288E-006
   89.9650000000000        -3.637276979912672E-006
   90.1550000000000        -3.681154936248482E-006
   90.3450000000000        -3.734825998138028E-006
   90.5350000000000        -3.797391884945449E-006
   90.7250000000000        -3.877481786032977E-006
   90.9150000000000        -3.972670994813700E-006
   91.1050000000000        -4.080219994463859E-006
   91.2950000000000        -4.194361799464790E-006
   91.4850000000000        -4.305697763908988E-006
   91.6750000000000        -4.401624623770573E-006
   91.8650000000000        -4.467548368667314E-006
   92.0550000000000        -4.492646346873372E-006
   92.2450000000000        -4.458293008811592E-006
   92.4350000000000        -4.358187862224257E-006
   92.6250000000000        -4.187873946549467E-006
   92.8150000000000        -3.947718253566014E-006
   93.0050000000000        -3.643682531573353E-006
   93.1950000000000        -3.289265212375064E-006
   93.3850000000000        -2.903570599192481E-006
   93.5750000000000        -2.510176441655713E-006
   93.7650000000000        -2.135345239267082E-006
   93.9550000000000        -1.805736470201890E-006
   94.1450000000000        -1.546440820626064E-006
   94.3350000000000        -1.379039718351746E-006
   94.5250000000000        -1.319547086636857E-006
   94.7150000000000        -1.375783407994625E-006
   94.9050000000000        -1.540861106039834E-006
   95.0950000000000        -1.817371922891342E-006
   95.2850000000000        -2.181600425362434E-006
   95.4750000000000        -2.616270752310608E-006
   95.6650000000000        -3.095295619562464E-006
   95.8550000000000        -3.588873510729445E-006
   96.0450000000000        -4.067125481457142E-006
   96.2350000000000        -4.501835617329095E-006
   96.4250000000000        -4.867914132069576E-006
   96.6150000000000        -5.145819182661841E-006
   96.8050000000000        -5.321161433163992E-006
   96.9950000000000        -5.388530502764158E-006
   97.1850000000000        -5.349594522623235E-006
   97.3750000000000        -5.208852763033274E-006
   97.5650000000000        -4.990832496174155E-006
   97.7550000000000        -4.714795594615117E-006
   97.9450000000000        -4.407247160456634E-006
   98.1350000000000        -4.096192655248521E-006
   98.3250000000000        -3.808913657564933E-006
   98.5150000000000        -3.569508212449494E-006
   98.7050000000000        -3.396736096694205E-006
   98.8950000000000        -3.305025388735413E-006
   99.0850000000000        -3.287159658114978E-006
   99.2750000000000        -3.350230656346045E-006
   99.4650000000000        -3.474743495474316E-006
   99.6550000000000        -3.645199918323355E-006
   99.8450000000000        -3.844941869749956E-006
   100.035000000000        -4.041911509765117E-006
   100.225000000000        -4.223052579000868E-006
   100.415000000000        -4.361982840517199E-006
   100.605000000000        -4.448606482357637E-006
   100.795000000000        -4.476023723009099E-006
   100.985000000000        -4.440382605531666E-006
   101.175000000000        -4.346799601338552E-006
   101.365000000000        -4.204956126352688E-006
   101.555000000000        -4.024447456155658E-006
   101.745000000000        -3.819560575463963E-006
   101.935000000000        -3.605834976933444E-006
   102.125000000000        -3.397715173456579E-006
   102.315000000000        -3.209539531107374E-006
   102.505000000000        -3.054063367309023E-006
   102.695000000000        -2.943409094178511E-006
   102.885000000000        -2.887352763158559E-006
   103.075000000000        -2.891014474637338E-006
   103.265000000000        -2.955192294654960E-006
   103.455000000000        -3.081231640017480E-006
   103.645000000000        -3.265179640032056E-006
   103.835000000000        -3.498815147905079E-006
   104.025000000000        -3.776988052419656E-006
   104.215000000000        -4.081150263499786E-006
   104.405000000000        -4.394025664830177E-006
   104.595000000000        -4.697932998186457E-006
   104.785000000000        -4.975419209749173E-006
   104.975000000000        -5.211388808070581E-006
   105.165000000000        -5.393298967188899E-006
   105.355000000000        -5.517274350687675E-006
   105.545000000000        -5.579129609146383E-006
   105.735000000000        -5.578876842131738E-006
   105.925000000000        -5.514328411986110E-006
   106.115000000000        -5.404115642375105E-006
   106.305000000000        -5.252945263721720E-006
   106.495000000000        -5.071655637174658E-006
   106.685000000000        -4.869603110504596E-006
   106.875000000000        -4.655545547770984E-006
   107.065000000000        -4.438044394050151E-006
   107.255000000000        -4.225172260118815E-006
   107.445000000000        -4.025537610818771E-006
   107.635000000000        -3.848151845697145E-006
   107.825000000000        -3.701776732065904E-006
   108.015000000000        -3.595231186227154E-006
   108.205000000000        -3.536905279825560E-006
   108.395000000000        -3.529696409091301E-006
   108.585000000000        -3.575420834012500E-006
   108.775000000000        -3.673071148118498E-006
   108.965000000000        -3.823818663632219E-006
   109.155000000000        -4.013348029133463E-006
   109.345000000000        -4.229121648552661E-006
   109.535000000000        -4.456733769582145E-006
   109.725000000000        -4.681140047081259E-006
   109.915000000000        -4.889198970323896E-006
   110.105000000000        -5.069851109312982E-006