  -1.42500000000000         0.000000000000000E+000
  -1.23500000000000         1.881088425391956E-014
  -1.04500000000000         1.564189679189749E-013
 -0.855000000000000         9.141237916209390E-013
 -0.665000000000000         3.889614770025653E-012
 -0.475000000000000         1.379283764038145E-011
 -0.285000000000000         4.137837979081744E-011
 -9.499999999999975E-002    1.086036906749750E-010
  9.500000000000020E-002    2.481134076855238E-010
  0.285000000000000         4.971358366860019E-010
  0.475000000000000         8.854597766175179E-010
  0.665000000000000         1.371178328849828E-009
  0.855000000000000         1.894963559254927E-009
   1.04500000000000         2.275188239020672E-009
   1.23500000000000         2.282011918865834E-009
   1.42500000000000         1.649096606723412E-009
   1.61500000000000         1.815615649366374E-010
   1.80500000000000        -2.111030051262823E-009
   1.99500000000000        -5.041296118507693E-009
   2.18500000000000        -8.076610319286826E-009
   2.37500000000000        -1.048862929833345E-008
   2.56500000000000        -1.075493233972314E-008
   2.75500000000000        -7.759075974381364E-009
   2.94500000000000         5.220406705604140E-010
   3.13500000000000         1.368051313692189E-008
   3.32500000000000         3.150636418682658E-008
   3.51500000000000         5.358852073716505E-008
   3.70500000000000         7.866516332514764E-008
   3.89500000000000         1.051451571936676E-007
   4.08500000000000         1.315741153041307E-007
   4.27500000000000         1.568489170170104E-007
   4.46500000000000         1.803726233006367E-007
   4.65500000000000         2.023464692582043E-007
   4.84500000000000         2.232928920181474E-007
   5.03500000000000         2.438523083969065E-007
   5.22500000000000         2.651717331525863E-007
   5.41500000000000         2.876307231993352E-007
   5.60500000000000         3.107481683865365E-007
   5.79500000000000         3.339395423341221E-007
   5.98500000000000         3.553405595786733E-007
   6.17500000000000         3.724184283374231E-007
   6.36500000000000         3.840447199633303E-007
   6.55500000000000         3.885776036127313E-007
   6.74500000000000         3.850208924955067E-007
   6.93500000000000         3.756206021999007E-007
   7.12500000000000         3.610171201625920E-007
   7.31500000000000         3.436073325828002E-007
   7.50500000000000         3.256587321172559E-007
   7.69500000000000         3.089568624613389E-007
   7.88500000000000         2.958594294595857E-007
   8.07500000000000         2.873854034131440E-007
   8.26500000000000         2.871784495750538E-007
   8.45500000000000         2.873505821327402E-007
   8.64500000000000         2.924425844343477E-007
   8.83500000000000         2.960469511836590E-007
   9.02500000000000         2.990116476146033E-007
   9.21500000000000         3.029299318037771E-007
   9.40500000000000         3.072472971820234E-007
   9.59500000000000         3.139173882627776E-007
   9.78500000000000         3.262304613490306E-007
   9.97500000000000         3.421444551429326E-007
   10.1650000000000         3.651542475508464E-007
   10.3550000000000         3.946571092252286E-007
   10.5450000000000         4.284763641840052E-007
   10.7350000000000         4.645974199516913E-007
   10.9250000000000         4.981223121837008E-007
   11.1150000000000         5.209122475525998E-007
   11.3050000000000         5.317659634457789E-007
   11.4950000000000         5.287070291386047E-007
   11.6850000000000         5.130852831290280E-007
   11.8750000000000         4.863765740382801E-007
   12.0650000000000         4.501389113142607E-007
   12.2550000000000         4.113689049983338E-007
   12.4450000000000         3.739836777486755E-007
   12.6350000000000         3.414884712678080E-007
   12.8250000000000         3.160467863815038E-007
   13.0150000000000         3.009510181209274E-007
   13.2050000000000         2.873579638348154E-007
   13.3950000000000         2.806194378446488E-007
   13.5850000000000         2.661011240529745E-007
   13.7750000000000         2.492314361179797E-007
   13.9650000000000         2.245268103331117E-007
   14.1550000000000         1.917556279974261E-007
   14.3450000000000         1.555274910691439E-007
   14.5350000000000         1.195910279427601E-007
   14.7250000000000         8.841662045715512E-008
   14.9150000000000         6.579471440478100E-008
   15.1050000000000         5.530420907112949E-008
   15.2950000000000         5.318206561193991E-008
   15.4850000000000         5.850430947118568E-008
   15.6750000000000         7.017990045778661E-008
   15.8650000000000         8.478012186335000E-008
   16.0550000000000         1.000924693981041E-007
   16.2450000000000         1.140843790655814E-007
   16.4350000000000         1.237667344429431E-007
   16.6250000000000         1.331332807576683E-007
   16.8150000000000         1.455002004869801E-007
   17.0050000000000         1.644665789057346E-007
   17.1950000000000         1.926034513220698E-007
   17.3850000000000         2.306961042530565E-007
   17.5750000000000         2.781010437089607E-007
   17.7650000000000         3.300616804615047E-007
   17.9550000000000         3.778698201767957E-007
   18.1450000000000         4.109459956164188E-007
   18.3350000000000         4.236778122174134E-007
   18.5250000000000         4.109197159043031E-007
   18.7150000000000         3.633180530138152E-007
   18.9050000000000         2.871421129441238E-007
   19.0950000000000         1.882210490714440E-007
   19.2850000000000         7.586534310682524E-008
   19.4750000000000        -3.860947573995963E-008
   19.6650000000000        -1.438120488635784E-007
   19.8550000000000        -2.301573037686656E-007
   20.0450000000000        -2.912268916465271E-007
   20.2350000000000        -3.266283374226476E-007
   20.4250000000000        -3.365104919307069E-007
   20.6150000000000        -3.234964881976960E-007
   20.8050000000000        -2.895427144157678E-007
   20.9950000000000        -2.446507060938709E-007
   21.1850000000000        -1.885305522890807E-007
   21.3750000000000        -1.274447252021512E-007
   21.5650000000000        -6.184786334596794E-008
   21.7550000000000         7.975038059821976E-009
   21.9450000000000         8.181387348239810E-008
   22.1350000000000         1.585404504019927E-007
   22.3250000000000         2.349053473454150E-007
   22.5150000000000         3.050151514881091E-007
   22.7050000000000         3.602297987349246E-007
   22.8950000000000         3.971716167719510E-007
   23.0850000000000         4.005883473514857E-007
   23.2750000000000         3.705596707919511E-007
   23.4650000000000         3.070620049824418E-007
   23.6550000000000         2.142582578770033E-007
   23.8450000000000         9.189016848011160E-008
   24.0350000000000        -3.535331788165666E-008
   24.2250000000000        -1.544512306820875E-007
   24.4150000000000        -2.497894746939920E-007
   24.6050000000000        -3.105349625695694E-007
   24.7950000000000        -3.205208478595307E-007
   24.9850000000000        -2.803153968229013E-007
   25.1750000000000        -1.944560710776465E-007
   25.3650000000000        -7.019922883152200E-008
   25.5550000000000         7.876200947315699E-008
   25.7450000000000         2.396814486165081E-007
   25.9350000000000         3.993292452260126E-007
   26.1250000000000         5.460716769690830E-007
   26.3150000000000         6.699869773131186E-007
   26.5050000000000         7.706489010773550E-007
   26.6950000000000         8.439187730464663E-007
   26.8850000000000         8.873475617371493E-007
   27.0750000000000         8.993379597430868E-007
   27.2650000000000         8.805173425756271E-007
   27.4550000000000         8.348302510738191E-007
   27.6450000000000         7.602630923342112E-007
   27.8350000000000         6.600332267270212E-007
   28.0250000000000         5.381430892154204E-007
   28.2150000000000         4.023817405717085E-007
   28.4050000000000         2.588212092864006E-007
   28.5950000000000         1.268863748825727E-007
   28.7850000000000         1.748626170254464E-008
   28.9750000000000        -5.293087695207017E-008
   29.1650000000000        -7.909573883301838E-008
   29.3550000000000        -5.330937182671521E-008
   29.5450000000000         3.633924765012162E-008
   29.7350000000000         1.697616933060414E-007
   29.9250000000000         3.368378449862895E-007
   30.1150000000000         5.188083667064607E-007
   30.3050000000000         6.941543118399546E-007
   30.4950000000000         8.415469104854661E-007
   30.6850000000000         9.424790436342654E-007
   30.8750000000000         9.904168976149195E-007
   31.0650000000000         9.803447353093088E-007
   31.2550000000000         9.066722521684430E-007
   31.4450000000000         7.861905408530385E-007
   31.6350000000000         6.294402990081194E-007
   31.8250000000000         4.544057314241700E-007
   32.0150000000000         2.735998925068621E-007
   32.2050000000000         9.930686903182915E-008
   32.3950000000000        -5.694147560451490E-008
   32.5850000000000        -1.922852018439878E-007
   32.7750000000000        -3.006446267057544E-007
   32.9650000000000        -3.801009946591337E-007
   33.1550000000000        -4.295392296521048E-007
   33.3450000000000        -4.476477425856022E-007
   33.5350000000000        -4.329716883441594E-007
   33.7250000000000        -3.845377597338909E-007
   33.9150000000000        -3.052995334388079E-007
   34.1050000000000        -1.972975534645203E-007
   34.2950000000000        -5.966117648952990E-008
   34.4850000000000         9.679249251264444E-008
   34.6750000000000         2.576045594600187E-007
   34.8650000000000         4.101840698281737E-007
   35.0550000000000         5.410121950575974E-007
   35.2450000000000         6.386838631104441E-007
   35.4350000000000         6.957686981165790E-007
   35.6250000000000         7.115640629844268E-007
   35.8150000000000         6.891120413429740E-007
   36.0050000000000         6.310033154066334E-007
   36.1950000000000         5.554183454501236E-007
   36.3850000000000         4.729809580877160E-007
   36.5750000000000         3.970191905398747E-007
   36.7650000000000         3.371987073190135E-007
   36.9550000000000         2.982580107776506E-007
   37.1450000000000         2.787358984358746E-007
   37.3350000000000         2.741970140398985E-007
   37.5250000000000         2.789027547209042E-007
   37.7150000000000         2.843004333302408E-007
   37.9050000000000         2.856722421992803E-007
   38.0950000000000         2.780952517378598E-007
   38.2850000000000         2.520594361564853E-007
   38.4750000000000         2.143367570973170E-007
   38.6650000000000         1.716261561375270E-007
   38.8550000000000         1.274543873056928E-007
   39.0450000000000         8.806304495717453E-008
   39.2350000000000         5.701606008244818E-008
   39.4250000000000         3.615116904128357E-008
   39.6150000000000         2.437577917031315E-008
   39.8050000000000         1.994302791770285E-008
   39.9950000000000         2.081352223868160E-008
   40.1850000000000         1.952305027064209E-008
   40.3750000000000         1.512206823046592E-008
   40.5650000000000        -9.569059679129745E-010
   40.7550000000000        -1.813235403411453E-008
   40.9450000000000        -3.507633277582343E-008
   41.1350000000000        -4.701273174215349E-008
   41.3250000000000        -4.971910775671801E-008
   41.5150000000000        -3.792123240162772E-008
   41.7050000000000        -1.951956439997186E-008
   41.8950000000000         5.459800436612766E-009
   42.0850000000000         4.004667311241717E-008
   42.2750000000000         7.271618136504666E-008
   42.4650000000000         9.832775422252814E-008
   42.6550000000000         1.142928249171990E-007
   42.8450000000000         1.211456433102602E-007
   43.0350000000000         1.223212534348788E-007
   43.2250000000000         1.238137819815978E-007
   43.4150000000000         1.341059014299693E-007
   43.6050000000000         1.610873881320314E-007
   43.7950000000000         2.094594981089699E-007
   43.9850000000000         2.818975568647955E-007
   44.1750000000000         3.760476261560940E-007
   44.3650000000000         4.854682255145296E-007
   44.5550000000000         5.991798215794131E-007
   44.7450000000000         7.017568122313904E-007
   44.9350000000000         7.907606381884977E-007
   45.1250000000000         8.544178185114077E-007
   45.3150000000000         8.746816530544431E-007
   45.5050000000000         8.616611614527497E-007
   45.6950000000000         8.155019781902336E-007
   45.8850000000000         7.425656516327986E-007
   46.0750000000000         6.516480357573155E-007
   46.2650000000000         5.515685335648785E-007
   46.4550000000000         4.505052242341016E-007
   46.6450000000000         3.533021149787918E-007
   46.8350000000000         2.610789882420227E-007
   47.0250000000000         1.781847966699099E-007
   47.2150000000000         1.086237015356988E-007
   47.4050000000000         4.626530190133207E-008
   47.5950000000000        -6.763303361646412E-009
   47.7850000000000        -4.569394413658638E-008
   47.9750000000000        -6.910895877418157E-008
   48.1650000000000        -6.910618490623335E-008
   48.3550000000000        -4.385264306957368E-008
   48.5450000000000         6.191625836999781E-009
   48.7350000000000         8.051711680464231E-008
   48.9250000000000         1.739112004975088E-007
   49.1150000000000         2.815865935218074E-007
   49.3050000000000         3.852565254116817E-007
   49.4950000000000         4.804554836503118E-007
   49.6850000000000         5.462600373546935E-007
   49.8750000000000         5.793752128737397E-007
   50.0650000000000         5.747088907434928E-007
   50.2550000000000         5.244863939848216E-007
   50.4450000000000         4.439722853433003E-007
   50.6350000000000         3.410900126592341E-007
   50.8250000000000         2.298917551554409E-007
   51.0150000000000         1.262693404242824E-007
   51.2050000000000         3.469003164419047E-008
   51.3950000000000        -3.284905742768043E-008
   51.5850000000000        -6.524739582211508E-008
   51.7750000000000        -6.809583809158127E-008
   51.9650000000000        -4.449239358935606E-008
   52.1550000000000        -3.306442333862877E-010
   52.3450000000000         5.618616056611946E-008
   52.5350000000000         1.187106790984235E-007
   52.7250000000000         1.864850796943203E-007
   52.9150000000000         2.530567836712973E-007
   53.1050000000000         3.129778668705480E-007
   53.2950000000000         3.645679535914696E-007
   53.4850000000000         4.082705259079927E-007
   53.6750000000000         4.436131809650381E-007
   53.8650000000000         4.623458281698673E-007
   54.0550000000000         4.636354504906177E-007
   54.2450000000000         4.465846291904530E-007
   54.4350000000000         4.113019083805279E-007
   54.6250000000000         3.583878090887767E-007
   54.8150000000000         2.926167989075401E-007
   55.0050000000000         2.210546536953485E-007
   55.1950000000000         1.532830353509424E-007
   55.3850000000000         9.949542534980146E-008
   55.5750000000000         7.135916254122102E-008
   55.7650000000000         7.518842231977084E-008
   55.9550000000000         1.214341796635681E-007
   56.1450000000000         2.079784095893805E-007
   56.3350000000000         3.235327818283202E-007
   56.5250000000000         4.576649751068906E-007
   56.7150000000000         5.950161861730390E-007
   56.9050000000000         7.198706765305393E-007
   57.0950000000000         8.172444506436854E-007
   57.2850000000000         8.776359983370349E-007
   57.4750000000000         9.008220086886248E-007
   57.6650000000000         8.843823757531702E-007
   57.8550000000000         8.317273679554519E-007
   58.0450000000000         7.592880555821189E-007
   58.2350000000000         6.784369893900829E-007
   58.4250000000000         6.004961211948898E-007
   58.6150000000000         5.367432430040210E-007
   58.8050000000000         4.870738751921824E-007
   58.9950000000000         4.558785462763971E-007
   59.1850000000000         4.462988305738461E-007
   59.3750000000000         4.455137478591977E-007
   59.5650000000000         4.530696973620117E-007
   59.7550000000000         4.614878640678644E-007
   59.9450000000000         4.658414858111136E-007
   60.1350000000000         4.554832284672932E-007
   60.3250000000000         4.357181649612764E-007
   60.5150000000000         4.056039723112104E-007
   60.7050000000000         3.665075490902816E-007
   60.8950000000000         3.199866149393439E-007
   61.0850000000000         2.664432489200765E-007
   61.2750000000000         2.052471843867482E-007
   61.4650000000000         1.384710142177077E-007
   61.6550000000000         6.806222642580272E-008
   61.8450000000000        -2.392682260070315E-009
   62.0350000000000        -6.694788291602174E-008
   62.2250000000000        -1.198908872781097E-007
   62.4150000000000        -1.600844209281323E-007
   62.6050000000000        -1.709173820442759E-007
   62.7950000000000        -1.471625375704086E-007
   62.9850000000000        -8.519550296867385E-008
   63.1750000000000         1.494149548419242E-008
   63.3650000000000         1.471661258354605E-007
   63.5550000000000         3.029650817788387E-007
   63.7450000000000         4.696693286902549E-007
   63.9350000000000         6.257107313823415E-007
   64.1250000000000         7.512186878512380E-007
   64.3150000000000         8.330277243483724E-007
   64.5050000000000         8.583657478201081E-007
   64.6950000000000         8.268102651616815E-007
   64.8850000000000         7.426443567190209E-007
   65.0750000000000         6.074799700508329E-007
   65.2650000000000         4.426586149981813E-007
   65.4550000000000         2.671729313733143E-007
   65.6450000000000         1.000821087788999E-007
   65.8350000000000        -4.095947040167315E-008
   66.0250000000000        -1.410069196515483E-007
   66.2150000000000        -1.932522075394211E-007
   66.4050000000000        -1.943851071655281E-007
   66.5950000000000        -1.494165425795529E-007
   66.7850000000000        -6.364840344824041E-008
   66.9750000000000         5.388141308648611E-008
   67.1650000000000         1.899376198405415E-007
   67.3550000000000         3.311400708306053E-007
   67.5450000000000         4.644445312155245E-007
   67.7350000000000         5.779884489050346E-007
   67.9250000000000         6.656339717227982E-007
   68.1150000000000         7.164501562433192E-007
   68.3050000000000         7.271250924340758E-007
   68.4950000000000         6.922829241247691E-007
   68.6850000000000         6.114966519789124E-007
   68.8750000000000         4.890371675852614E-007
   69.0650000000000         3.313161183112519E-007
   69.2550000000000         1.491901151942300E-007
   69.4450000000000        -4.379376198916999E-008
   69.6350000000000        -2.281433094908402E-007
   69.8250000000000        -3.859662724639462E-007
   70.0150000000000        -5.003266502982943E-007
   70.2050000000000        -5.586570947267818E-007
   70.3950000000000        -5.513542140416371E-007
   70.5850000000000        -4.782157633563016E-007
   70.7750000000000        -3.423593047165287E-007
   70.9650000000000        -1.534518968342369E-007
   71.1550000000000         6.855704234276607E-008
   71.3450000000000         3.036876056078990E-007
   71.5350000000000         5.312149297124309E-007
   71.7250000000000         7.327437232224936E-007
   71.9150000000000         8.937155841558041E-007
   72.1050000000000         1.005031524383341E-006
   72.2950000000000         1.064987355024129E-006
   72.4850000000000         1.075916065004714E-006
   72.6750000000000         1.045447261737434E-006
   72.8650000000000         9.875795192350239E-007
   73.0550000000000         9.100077492416881E-007
   73.2450000000000         8.236250072698836E-007
   73.4350000000000         7.380535484430992E-007
   73.6250000000000         6.603712886834850E-007
   73.8150000000000         5.953862572991895E-007
   74.0050000000000         5.449576643077635E-007
   74.1950000000000         5.100237947829267E-007
   74.3850000000000         4.906335368473154E-007
   74.5750000000000         4.792361161717145E-007
   74.7650000000000         4.865370260031688E-007
   74.9550000000000         4.991301719849444E-007
   75.1450000000000         5.241250466525930E-007
   75.3350000000000         5.527327007927921E-007
   75.5250000000000         5.811669322608913E-007
   75.7150000000000         6.087196708345283E-007
   75.9050000000000         6.295897852256469E-007
   76.0950000000000         6.374695232640461E-007
   76.2850000000000         6.300134600753528E-007
   76.4750000000000         6.051487873401732E-007
   76.6650000000000         5.625295401334950E-007
   76.8550000000000         5.058052416329600E-007
   77.0450000000000         4.477264313633078E-007
   77.2350000000000         3.929209757040097E-007
   77.4250000000000         3.450011608256624E-007
   77.6150000000000         3.092955538346239E-007
   77.8050000000000         2.943910367922539E-007
   77.9950000000000         3.013048196585484E-007
   78.1850000000000         3.282602713271743E-007
   78.3750000000000         3.705369642646983E-007
   78.5650000000000         4.249634199389689E-007
   78.7550000000000         4.760964795286339E-007
   78.9450000000000         5.294778987412469E-007
   79.1350000000000         5.688410468387533E-007
   79.3250000000000         5.953409715115720E-007
   79.5150000000000         6.067234840752269E-007
   79.7050000000000         6.041976866987363E-007
   79.8950000000000         5.906425398368444E-007
   80.0850000000000         5.703879184583745E-007
   80.2750000000000         5.499446472728958E-007
   80.4650000000000         5.308131633233382E-007
   80.6550000000000         5.168283907935242E-007
   80.8450000000000         5.091953942005699E-007
   81.0350000000000         5.069028846624625E-007
   81.2250000000000         5.103294162679387E-007
   81.4150000000000         5.207450011042922E-007
   81.6050000000000         5.383478257407516E-007
   81.7950000000000         5.616370350211438E-007
   81.9850000000000         5.874189860693610E-007
   82.1750000000000         6.114011706730818E-007
   82.3650000000000         6.359086826975718E-007
   82.5550000000000         6.574542420605088E-007
   82.7450000000000         6.717168806011008E-007
   82.9350000000000         6.762864212344773E-007
   83.1250000000000         6.642888378309692E-007
   83.3150000000000         6.338495924687052E-007
   83.5050000000000         5.841634682493018E-007
   83.6950000000000         5.128383043598663E-007
   83.8850000000000         4.219902982655297E-007
   84.0750000000000         3.193146890322006E-007
   84.2650000000000         2.105542732507807E-007
   84.4550000000000         1.050319430353510E-007
   84.6450000000000         1.169256454720582E-008
   84.8350000000000        -6.056028878342271E-008
   85.0250000000000        -1.049611795966953E-007
   85.2150000000000        -1.169554138357103E-007
   85.4050000000000        -9.534485134630996E-008
   85.5950000000000        -4.362279651569148E-008
   85.7850000000000         3.298918772982638E-008
   85.9750000000000         1.263968191325900E-007
   86.1650000000000         2.273550672161520E-007
   86.3550000000000         3.261294742396764E-007
   86.5450000000000         4.133186417419519E-007
   86.7350000000000         4.809059331831435E-007
   86.9250000000000         5.225520094697826E-007
   87.1150000000000         5.344577090966433E-007
   87.3050000000000         5.166897145348207E-007
   87.4950000000000         4.707422794464123E-007
   87.6850000000000         4.018311232130344E-007
   87.8750000000000         3.155076762189377E-007
   88.0650000000000         2.209029278031614E-007
   88.2550000000000         1.194459973435368E-007
   88.4450000000000         2.391127595277771E-008
   88.6350000000000        -5.971958813233063E-008
   88.8250000000000        -1.189100237173501E-007
   89.0150000000000        -1.512386488617071E-007
   89.2050000000000        -1.468169916367614E-007
   89.3950000000000        -1.027122843482600E-007
   89.5850000000000        -2.015319830308449E-008
   89.7750000000000         9.716802362032923E-008
   89.9650000000000         2.429498867391970E-007
   90.1550000000000         4.084227231401067E-007
   90.3450000000000         5.827311288970267E-007
   90.5350000000000         7.570279331347613E-007
   90.7250000000000         9.124389257141145E-007
   90.9150000000000         1.039324936445570E-006
   91.1050000000000         1.127861660760950E-006
   91.2950000000000         1.171932010787437E-006
   91.4850000000000         1.170000769956668E-006
   91.6750000000000         1.125483208578069E-006
   91.8650000000000         1.045616270545404E-006
   92.0550000000000         9.391431364697668E-007
   92.2450000000000         8.235665506630653E-007
   92.4350000000000         7.096899508376441E-007
   92.6250000000000         6.093351249714694E-007
   92.8150000000000         5.342686908105334E-007
   93.0050000000000         4.921866147567631E-007
   93.1950000000000         4.869380431255410E-007
   93.3850000000000         5.177816665986124E-007
   93.5750000000000         5.799626875010302E-007
   93.7650000000000         6.652895720580190E-007
   93.9550000000000         7.632451767421142E-007
   94.1450000000000         8.615591104827927E-007
   94.3350000000000         9.482835218316403E-007
   94.5250000000000         1.012293338472773E-006
   94.7150000000000         1.044507059879615E-006
   94.9050000000000         1.047607477669551E-006
   95.0950000000000         1.008306930429173E-006
   95.2850000000000         9.365111240241909E-007
   95.4750000000000         8.327869120821717E-007
   95.6650000000000         7.043135717917996E-007
   95.8550000000000         5.613246126805442E-007
   96.0450000000000         4.148795211685834E-007
   96.2350000000000         2.764698072046778E-007
   96.4250000000000         1.572946023511677E-007
   96.6150000000000         6.670441847905610E-008
   96.8050000000000         1.371295541454492E-008
   96.9950000000000         2.880529965500358E-009
   97.1850000000000         3.684258325051908E-008
   97.3750000000000         1.181850480117189E-007
   97.5650000000000         2.325279275664296E-007
   97.7550000000000         3.741155455400027E-007
   97.9450000000000         5.310268594905817E-007
   98.1350000000000         6.894381370925775E-007
   98.3250000000000         8.351514440714732E-007
   98.5150000000000         9.551538596102464E-007
   98.7050000000000         1.038881614439810E-006
   98.8950000000000         1.076207180633484E-006
   99.0850000000000         1.077385020308793E-006
   99.2750000000000         1.032525337370987E-006
   99.4650000000000         9.563685869535027E-007
   99.6550000000000         8.577775957924373E-007
   99.8450000000000         7.429200514922762E-007
   100.035000000000         6.358771783026046E-007
   100.225000000000         5.365551301455144E-007
   100.415000000000         4.645391974868224E-007
   100.605000000000         4.206047295861961E-007
   100.795000000000         4.062060119986915E-007
   100.985000000000         4.208038952616031E-007
   101.175000000000         4.597994816947972E-007
   101.365000000000         5.149575532499142E-007
   101.555000000000         5.816077633863326E-007
   101.745000000000         6.523568025779432E-007
   101.935000000000         7.202511047227180E-007
   102.125000000000         7.800587354262848E-007
   102.315000000000         8.276262948031454E-007
   102.505000000000         8.604077698123598E-007
   102.695000000000         8.745088324009538E-007
   102.885000000000         8.674173746120676E-007
   103.075000000000         8.397905873721541E-007
   103.265000000000         7.936441319027237E-007
   103.455000000000         7.280543216085546E-007
   103.645000000000         6.456988013535065E-007
   103.835000000000         5.502833375427127E-007
   104.025000000000         4.410888980231730E-007
   104.215000000000         3.284417309410651E-007
   104.405000000000         2.205671812783650E-007
   104.595000000000         1.254110921989375E-007
   104.785000000000         5.043696690839944E-008
   104.975000000000         1.342806160435690E-009
   105.165000000000        -1.781452541495143E-008
   105.355000000000        -1.027124798467044E-008
   105.545000000000         2.253699138011057E-008
   105.735000000000         7.791320023964096E-008
   105.925000000000         1.565254169156006E-007
   106.115000000000         2.422962434310830E-007
   106.305000000000         3.333023499338652E-007
   106.495000000000         4.245145078400958E-007
   106.685000000000         5.142647969364258E-007
   106.875000000000         6.023479567600220E-007
   107.065000000000         6.893802402124429E-007
   107.255000000000         7.763127985459352E-007
   107.445000000000         8.631690881375278E-007
   107.635000000000         9.484151064294485E-007
   107.825000000000         1.028997071700608E-006
   108.015000000000         1.099395938648097E-006
   108.205000000000         1.154175728044653E-006
   108.395000000000         1.189604205928164E-006
   108.585000000000         1.200595757051962E-006
   108.775000000000         1.185869042723933E-006
   108.965000000000         1.136790436757960E-006
   109.155000000000         1.062444195740634E-006
   109.345000000000         9.679475166383048E-007
   109.535000000000         8.610140813908234E-007
   109.725000000000         7.501038834280238E-007
   109.915000000000         6.431719084144593E-007
   110.105000000000         5.470924987309486E-007