  -1.42500000000000         0.000000000000000E+000
  -1.23500000000000         2.793136445133849E-014
  -1.04500000000000         2.813013204408674E-013
 -0.855000000000000         1.763543758985947E-012
 -0.665000000000000         8.072345707067828E-012
 -0.475000000000000         3.056731685039267E-011
 -0.285000000000000         9.856587865062761E-011
 -9.499999999999975E-002    2.774809603951797E-010
  9.500000000000020E-002    6.894679933894215E-010
  0.285000000000000         1.524856917646380E-009
  0.475000000000000         3.041710577693497E-009
  0.665000000000000         5.499074984981931E-009
  0.855000000000000         9.161125475830408E-009
   1.04500000000000         1.414900489680237E-008
   1.23500000000000         2.045007752431128E-008
   1.42500000000000         2.782581332942449E-008
   1.61500000000000         3.589402633884369E-008
   1.80500000000000         4.420124317258497E-008
   1.99500000000000         5.222081879366504E-008
   2.18500000000000         5.954758319839297E-008
   2.37500000000000         6.581938104372091E-008
   2.56500000000000         7.130784368710450E-008
   2.75500000000000         7.604200098900560E-008
   2.94500000000000         8.117791357567593E-008
   3.13500000000000         8.544826720612474E-008
   3.32500000000000         8.858912989384574E-008
   3.51500000000000         9.030222731373568E-008
   3.70500000000000         9.010216752309877E-008
   3.89500000000000         8.765171359136860E-008
   4.08500000000000         8.316796373138267E-008
   4.27500000000000         7.753306129096590E-008
   4.46500000000000         7.237820138597841E-008
   4.65500000000000         6.998155911326863E-008
   4.84500000000000         7.300798220497272E-008
   5.03500000000000         8.377235324879070E-008
   5.22500000000000         1.043558378971801E-007
   5.41500000000000         1.357407691386434E-007
   5.60500000000000         1.771817544953437E-007
   5.79500000000000         2.272217804982930E-007
   5.98500000000000         2.822307946142155E-007
   6.17500000000000         3.374635352539098E-007
   6.36500000000000         3.891042126665240E-007
   6.55500000000000         4.328243803437210E-007
   6.74500000000000         4.647376055337928E-007
   6.93500000000000         4.842279681949243E-007
   7.12500000000000         4.899043124370541E-007
   7.31500000000000         4.825301787380512E-007
   7.50500000000000         4.634785983894208E-007
   7.69500000000000         4.342127152775435E-007
   7.88500000000000         3.979971764324381E-007
   8.07500000000000         3.571667724738067E-007
   8.26500000000000         3.177153993045935E-007
   8.45500000000000         2.738155687684556E-007
   8.64500000000000         2.335657771033626E-007
   8.83500000000000         1.929941234972878E-007
   9.02500000000000         1.562749708471676E-007
   9.21500000000000         1.274220320657567E-007
   9.40500000000000         1.081883687685926E-007
   9.59500000000000         1.017508225078916E-007
   9.78500000000000         1.121689988660167E-007
   9.97500000000000         1.376535840522406E-007
   10.1650000000000         1.802945594129995E-007
   10.3550000000000         2.381331688624477E-007
   10.5450000000000         3.069175665576470E-007
   10.7350000000000         3.815767334971538E-007
   10.9250000000000         4.542451664114399E-007
   11.1150000000000         5.143832347520688E-007
   11.3050000000000         5.578012473995865E-007
   11.4950000000000         5.801502852787016E-007
   11.6850000000000         5.813802993759992E-007
   11.8750000000000         5.621024686998451E-007
   12.0650000000000         5.242369231800262E-007
   12.2550000000000         4.753412311002171E-007
   12.4450000000000         4.211718667623138E-007
   12.6350000000000         3.677323138356359E-007
   12.8250000000000         3.201086300218605E-007
   13.0150000000000         2.849848605778529E-007
   13.2050000000000         2.563831084521953E-007
   13.3950000000000         2.430680264507033E-007
   13.5850000000000         2.326736991376785E-007
   13.7750000000000         2.326525016283870E-007
   13.9650000000000         2.382100640515834E-007
   14.1550000000000         2.490339751179313E-007
   14.3450000000000         2.683652044274662E-007
   14.5350000000000         2.975890301016333E-007
   14.7250000000000         3.378881279527529E-007
   14.9150000000000         3.889019505792513E-007
   15.1050000000000         4.495466625751353E-007
   15.2950000000000         5.110673362230422E-007
   15.4850000000000         5.678264989392316E-007
   15.6750000000000         6.144729034519139E-007
   15.8650000000000         6.442233468792012E-007
   16.0550000000000         6.528037188289935E-007
   16.2450000000000         6.372211829319877E-007
   16.4350000000000         5.954856482508872E-007
   16.6250000000000         5.338025224433544E-007
   16.8150000000000         4.592785416213434E-007
   17.0050000000000         3.802653353931091E-007
   17.1950000000000         3.053104732489898E-007
   17.3850000000000         2.414693288762425E-007
   17.5750000000000         1.945299721413972E-007
   17.7650000000000         1.658737481827813E-007
   17.9550000000000         1.516708848580353E-007
   18.1450000000000         1.455572478885277E-007
   18.3350000000000         1.445640969019165E-007
   18.5250000000000         1.439291066495898E-007
   18.7150000000000         1.334069220825809E-007
   18.9050000000000         1.169358786628816E-007
   19.0950000000000         9.570979780560326E-008
   19.2850000000000         7.371722306776968E-008
   19.4750000000000         5.582965537411528E-008
   19.6650000000000         4.639956744646008E-008
   19.8550000000000         4.798924063648163E-008
   20.0450000000000         6.057941035780412E-008
   20.2350000000000         7.867242188079151E-008
   20.4250000000000         9.765223599126764E-008
   20.6150000000000         1.125070653698825E-007
   20.8050000000000         1.200738960196706E-007
   20.9950000000000         1.118244160610690E-007
   21.1850000000000         9.074986318185831E-008
   21.3750000000000         5.534479675085402E-008
   21.5650000000000         1.133310778614505E-008
   21.7550000000000        -3.451784386294349E-008
   21.9450000000000        -7.515441257264206E-008
   22.1350000000000        -1.039971853052949E-007
   22.3250000000000        -1.173955185984899E-007
   22.5150000000000        -1.157196840303407E-007
   22.7050000000000        -1.032858419146647E-007
   22.8950000000000        -8.072415542535073E-008
   23.0850000000000        -6.364941744451365E-008
   23.2750000000000        -5.298997693057367E-008
   23.4650000000000        -5.280671225666393E-008
   23.6550000000000        -6.425412720498756E-008
   23.8450000000000        -9.409473385571887E-008
   24.0350000000000        -1.251686691708916E-007
   24.2250000000000        -1.521320355966147E-007
   24.4150000000000        -1.674993825080210E-007
   24.6050000000000        -1.667322903771480E-007
   24.7950000000000        -1.393738446585270E-007
   24.9850000000000        -8.954574193876460E-008
   25.1750000000000        -2.365880555941457E-008
   25.3650000000000         5.220895390263272E-008
   25.5550000000000         1.272893344754811E-007
   25.7450000000000         1.938594820054905E-007
   25.9350000000000         2.459405142997564E-007
   26.1250000000000         2.804265975778476E-007
   26.3150000000000         2.968315631937243E-007
   26.5050000000000         3.034644603951187E-007
   26.6950000000000         3.053387019746954E-007
   26.8850000000000         3.069455143722753E-007
   27.0750000000000         3.121253814035672E-007
   27.2650000000000         3.242099582555652E-007
   27.4550000000000         3.468619125115159E-007
   27.6450000000000         3.754101217997142E-007
   27.8350000000000         4.071426074854950E-007
   28.0250000000000         4.384177326995996E-007
   28.2150000000000         4.668159334612675E-007
   28.4050000000000         4.878007739737756E-007
   28.5950000000000         5.093999845658573E-007
   28.7850000000000         5.319635560002274E-007
   28.9750000000000         5.629287815441759E-007
   29.1650000000000         6.008156487263192E-007
   29.3550000000000         6.488038126959011E-007
   29.5450000000000         7.179709994996722E-007
   29.7350000000000         7.898504482762494E-007
   29.9250000000000         8.600440601424799E-007
   30.1150000000000         9.174133764745359E-007
   30.3050000000000         9.508615460353830E-007
   30.4950000000000         9.506281854940559E-007
   30.6850000000000         9.099121716968783E-007
   30.8750000000000         8.341140309636394E-007
   31.0650000000000         7.279165392655230E-007
   31.2550000000000         5.940739528422529E-007
   31.4450000000000         4.543508341045131E-007
   31.6350000000000         3.215114134116938E-007
   31.8250000000000         2.112136446981299E-007
   32.0150000000000         1.314844795415220E-007
   32.2050000000000         8.666030993549118E-008
   32.3950000000000         7.776329414780667E-008
   32.5850000000000         9.602427987062502E-008
   32.7750000000000         1.354940469827505E-007
   32.9650000000000         1.866205883754924E-007
   33.1550000000000         2.401306200567576E-007
   33.3450000000000         2.894150726241312E-007
   33.5350000000000         3.311267338088418E-007
   33.7250000000000         3.642467722746236E-007
   33.9150000000000         3.881421070662783E-007
   34.1050000000000         4.052502585123716E-007
   34.2950000000000         4.241996472596272E-007
   34.4850000000000         4.440467814627146E-007
   34.6750000000000         4.612495837841816E-007
   34.8650000000000         4.746141480362416E-007
   35.0550000000000         4.815827676784849E-007
   35.2450000000000         4.803469711394066E-007
   35.4350000000000         4.704264587110882E-007
   35.6250000000000         4.564071045414076E-007
   35.8150000000000         4.429937781542844E-007
   36.0050000000000         4.314848485814918E-007
   36.1950000000000         4.362549702478560E-007
   36.3850000000000         4.617434036716098E-007
   36.5750000000000         5.127857804070156E-007
   36.7650000000000         5.895990655281518E-007
   36.9550000000000         6.871095669514714E-007
   37.1450000000000         7.943225657922404E-007
   37.3350000000000         8.987549511741564E-007
   37.5250000000000         9.875408736057918E-007
   37.7150000000000         1.047883205574557E-006
   37.9050000000000         1.072552906864732E-006
   38.0950000000000         1.057083070429003E-006
   38.2850000000000         9.946437493767481E-007
   38.4750000000000         8.966056280069167E-007
   38.6650000000000         7.755368244976760E-007
   38.8550000000000         6.424980044273435E-007
   39.0450000000000         5.108792050917359E-007
   39.2350000000000         3.909768326989481E-007
   39.4250000000000         2.912344527411911E-007
   39.6150000000000         2.153996182796647E-007
   39.8050000000000         1.650854111254264E-007
   39.9950000000000         1.397461362600135E-007
   40.1850000000000         1.323068950933142E-007
   40.3750000000000         1.396495866018480E-007
   40.5650000000000         1.497959060871181E-007
   40.7550000000000         1.698216292965688E-007
   40.9450000000000         1.959505283714599E-007
   41.1350000000000         2.277919501248606E-007
   41.3250000000000         2.645877768069308E-007
   41.5150000000000         3.071904869886454E-007
   41.7050000000000         3.437975285020617E-007
   41.8950000000000         3.715439534726072E-007
   42.0850000000000         3.921000075414020E-007
   42.2750000000000         3.929733069925455E-007
   42.4650000000000         3.700707395486518E-007
   42.6550000000000         3.227321409030042E-007
   42.8450000000000         2.540072281928102E-007
   43.0350000000000         1.706582493427943E-007
   43.2250000000000         8.258279167536061E-008
   43.4150000000000         2.439591459791341E-009
   43.6050000000000        -5.785271821441377E-008
   43.7950000000000        -8.981730469876779E-008
   43.9850000000000        -8.740226814567366E-008
   44.1750000000000        -5.022839940925771E-008
   44.3650000000000         1.736790157565481E-008
   44.5550000000000         1.061375237830658E-007
   44.7450000000000         2.006750091783928E-007
   44.9350000000000         2.989059669299161E-007
   45.1250000000000         3.883567724059972E-007
   45.3150000000000         4.491750721164525E-007
   45.5050000000000         4.901761910404218E-007
   45.6950000000000         5.089875874410926E-007
   45.8850000000000         5.094735214161429E-007
   46.0750000000000         4.975836136877141E-007
   46.2650000000000         4.792485259978967E-007
   46.4550000000000         4.596687885249410E-007
   46.6450000000000         4.408499625689328E-007
   46.8350000000000         4.213060521708302E-007
   47.0250000000000         4.031177656603093E-007
   47.2150000000000         3.884108315347947E-007
   47.4050000000000         3.701895966731097E-007
   47.5950000000000         3.495593163325911E-007
   47.7850000000000         3.317744580661737E-007
   47.9750000000000         3.187140266315780E-007
   48.1650000000000         3.196129671691577E-007
   48.3550000000000         3.383037604236923E-007
   48.5450000000000         3.762702322800508E-007
   48.7350000000000         4.356533647641677E-007
   48.9250000000000         5.134866891856777E-007
   49.1150000000000         6.075968677162697E-007
   49.3050000000000         7.009718188612908E-007
   49.4950000000000         7.916068505124098E-007
   49.6850000000000         8.590677481928946E-007
   49.8750000000000         9.009460468321124E-007
   50.0650000000000         9.121009726148732E-007
   50.2550000000000         8.837965619382975E-007
   50.4450000000000         8.310199448205847E-007
   50.6350000000000         7.598694275497207E-007
   50.8250000000000         6.826033054021120E-007
   51.0150000000000         6.133978879334014E-007
   51.2050000000000         5.544531224180334E-007
   51.3950000000000         5.162630594035931E-007
   51.5850000000000         5.079985198304238E-007
   51.7750000000000         5.229793497884813E-007
   51.9650000000000         5.573055500505572E-007
   52.1550000000000         6.048257219231367E-007
   52.3450000000000         6.574988147937882E-007
   52.5350000000000         7.097553166120605E-007
   52.7250000000000         7.619960817304410E-007
   52.9150000000000         8.093065218851482E-007
   53.1050000000000         8.479397474956558E-007
   53.2950000000000         8.778595656503574E-007
   53.4850000000000         9.012674360175369E-007
   53.6750000000000         9.189026052687328E-007
   53.8650000000000         9.240269476441398E-007
   54.0550000000000         9.159443518577614E-007
   54.2450000000000         8.947249757572174E-007
   54.4350000000000         8.598715730543357E-007
   54.6250000000000         8.118607008214478E-007
   54.8150000000000         7.541675297165489E-007
   55.0050000000000         6.936095218065496E-007
   55.1950000000000         6.382688575227064E-007
   55.3850000000000         5.974414264296190E-007
   55.5750000000000         5.810450437840324E-007
   55.7650000000000         5.948707945261212E-007
   55.9550000000000         6.477726764848507E-007
   56.1450000000000         7.368454849744371E-007
   56.3350000000000         8.498616699230449E-007
   56.5250000000000         9.756673778785097E-007
   56.7150000000000         1.098505974473516E-006
   56.9050000000000         1.202244274236622E-006
   57.0950000000000         1.271843202996708E-006
   57.2850000000000         1.297722240219608E-006
   57.4750000000000         1.280441710659582E-006
   57.6650000000000         1.218803618333106E-006
   57.8550000000000         1.116936486155654E-006
   58.0450000000000         9.932525824780798E-007
   58.2350000000000         8.609399742935007E-007
   58.4250000000000         7.337667757087782E-007
   58.6150000000000         6.249131759908875E-007
   58.8050000000000         5.373952197585018E-007
   58.9950000000000         4.775726410381130E-007
   59.1850000000000         4.516506156152266E-007
   59.3750000000000         4.476823050864188E-007
   59.5650000000000         4.674895894727945E-007
   59.7550000000000         5.039167458835241E-007
   59.9450000000000         5.519994397316070E-007
   60.1350000000000         6.000243164331678E-007
   60.3250000000000         6.512349518190684E-007
   60.5150000000000         7.015179614761463E-007
   60.7050000000000         7.483317273126231E-007
   60.8950000000000         7.887156747266436E-007
   61.0850000000000         8.175251843714507E-007
   61.2750000000000         8.291520665994455E-007
   61.4650000000000         8.208206594110327E-007
   61.6550000000000         7.901053593560463E-007
   61.8450000000000         7.371060361139606E-007
   62.0350000000000         6.669058996874488E-007
   62.2250000000000         5.839631200082055E-007
   62.4150000000000         4.920491007834933E-007
   62.6050000000000         4.107147281072783E-007
   62.7950000000000         3.502599090939919E-007
   62.9850000000000         3.203462122090439E-007
   63.1750000000000         3.275444269770110E-007
   63.3650000000000         3.732710560106848E-007
   63.5550000000000         4.555260126807211E-007
   63.7450000000000         5.675880010107557E-007
   63.9350000000000         6.927642911465412E-007
   64.1250000000000         8.133963794551234E-007
   64.3150000000000         9.166091743479521E-007
   64.5050000000000         9.887312116173508E-007
   64.6950000000000         1.025607031086035E-006
   64.8850000000000         1.025555088393489E-006
   65.0750000000000         9.836022126431235E-007
   65.2650000000000         9.130350516956046E-007
   65.4550000000000         8.246922231995472E-007
   65.6450000000000         7.301612306935456E-007
   65.8350000000000         6.401807864113683E-007
   66.0250000000000         5.649463802557746E-007
   66.2150000000000         5.084857971206141E-007
   66.4050000000000         4.735653956925572E-007
   66.5950000000000         4.578621699748808E-007
   66.7850000000000         4.605855810933405E-007
   66.9750000000000         4.794769962145955E-007
   67.1650000000000         5.100340910701268E-007
   67.3550000000000         5.482945042881262E-007
   67.5450000000000         5.904107454032924E-007
   67.7350000000000         6.342604162527152E-007
   67.9250000000000         6.808809014853939E-007
   68.1150000000000         7.250011621504747E-007
   68.3050000000000         7.659230364510876E-007
   68.4950000000000         7.983787926455585E-007
   68.6850000000000         8.190603047795995E-007
   68.8750000000000         8.261255066588471E-007
   69.0650000000000         8.182609574335556E-007
   69.2550000000000         7.961064157604700E-007
   69.4450000000000         7.621279137133583E-007
   69.6350000000000         7.247730791837815E-007
   69.8250000000000         6.916565593336128E-007
   70.0150000000000         6.704158775734568E-007
   70.2050000000000         6.677176917571667E-007
   70.3950000000000         6.888833747487224E-007
   70.5850000000000         7.332154303384738E-007
   70.7750000000000         8.002988377301560E-007
   70.9650000000000         8.852978554742478E-007
   71.1550000000000         9.766267120700666E-007
   71.3450000000000         1.064017329119185E-006
   71.5350000000000         1.137552063868670E-006
   71.7250000000000         1.190261332214030E-006
   71.9150000000000         1.218419703874023E-006
   72.1050000000000         1.222677668598100E-006
   72.2950000000000         1.208358766173838E-006
   72.4850000000000         1.182937924687364E-006
   72.6750000000000         1.155933893855336E-006
   72.8650000000000         1.139968930317288E-006
   73.0550000000000         1.138196877898724E-006
   73.2450000000000         1.155248603015450E-006
   73.4350000000000         1.191715746428727E-006
   73.6250000000000         1.244894223003269E-006
   73.8150000000000         1.308862205637592E-006
   74.0050000000000         1.375619783624913E-006
   74.1950000000000         1.436929536074191E-006
   74.3850000000000         1.486049398735000E-006
   74.5750000000000         1.510856559809942E-006
   74.7650000000000         1.520349144337494E-006
   74.9550000000000         1.502465809069671E-006
   75.1450000000000         1.468130133312125E-006
   75.3350000000000         1.414550541425162E-006
   75.5250000000000         1.346333752536782E-006
   75.7150000000000         1.271749226922164E-006
   75.9050000000000         1.194638533961929E-006
   76.0950000000000         1.117951610119010E-006
   76.2850000000000         1.046731828983239E-006
   76.4750000000000         9.856513119324546E-007
   76.6650000000000         9.373261628605311E-007
   76.8550000000000         9.071586691075939E-007
   77.0450000000000         9.060522368046778E-007
   77.2350000000000         9.342658543036733E-007
   77.4250000000000         9.889139508754282E-007
   77.6150000000000         1.067138084807116E-006
   77.8050000000000         1.168255793783624E-006
   77.9950000000000         1.283533905999858E-006
   78.1850000000000         1.402348242705304E-006
   78.3750000000000         1.511935645283729E-006
   78.5650000000000         1.603106833883287E-006
   78.7550000000000         1.656723077917977E-006
   78.9450000000000         1.676834391947984E-006
   79.1350000000000         1.649584706132163E-006
   79.3250000000000         1.580031388726519E-006
   79.5150000000000         1.472610533477320E-006
   79.7050000000000         1.336757978601670E-006
   79.8950000000000         1.184712373305659E-006
   80.0850000000000         1.030577241900386E-006
   80.2750000000000         8.901928463540658E-007
   80.4650000000000         7.736998973829330E-007
   80.6550000000000         6.907590770467349E-007
   80.8450000000000         6.476154047028848E-007
   81.0350000000000         6.442790004785711E-007
   81.2250000000000         6.815038726583993E-007
   81.4150000000000         7.568640620789011E-007
   81.6050000000000         8.654899215102319E-007
   81.7950000000000         9.990948321989500E-007
   81.9850000000000         1.146347681233749E-006
   82.1750000000000         1.294758396981266E-006
   82.3650000000000         1.438146524974439E-006
   82.5550000000000         1.565573133073568E-006
   82.7450000000000         1.666795179174249E-006
   82.9350000000000         1.734259341521101E-006
   83.1250000000000         1.758937411845483E-006
   83.3150000000000         1.737466970142678E-006
   83.5050000000000         1.670893119594655E-006
   83.6950000000000         1.559121610591815E-006
   83.8850000000000         1.409012671298259E-006
   84.0750000000000         1.232903385764887E-006
   84.2650000000000         1.042485869540028E-006
   84.4550000000000         8.526689171512663E-007
   84.6450000000000         6.779262993545508E-007
   84.8350000000000         5.319354459232265E-007
   85.0250000000000         4.249094326464522E-007
   85.2150000000000         3.642404522462866E-007
   85.4050000000000         3.524437017797004E-007
   85.5950000000000         3.861301332001084E-007
   85.7850000000000         4.599152840715816E-007
   85.9750000000000         5.634122709840410E-007
   86.1650000000000         6.855790166327972E-007
   86.3550000000000         8.141073314038322E-007
   86.5450000000000         9.366776066251172E-007
   86.7350000000000         1.042810215187379E-006
   86.9250000000000         1.123829401174392E-006
   87.1150000000000         1.173930497629839E-006
   87.3050000000000         1.191705193640688E-006
   87.4950000000000         1.177620204412929E-006
   87.6850000000000         1.136223490196680E-006
   87.8750000000000         1.072914252212016E-006
   88.0650000000000         9.973355129995749E-007
   88.2550000000000         9.113396833623743E-007
   88.4450000000000         8.286649440296346E-007
   88.6350000000000         7.562705698764241E-007
   88.8250000000000         7.083531294633727E-007
   89.0150000000000         6.885556059148697E-007
   89.2050000000000         7.082732324796338E-007
   89.3950000000000         7.713009569781298E-007
   89.5850000000000         8.777128681741949E-007
   89.7750000000000         1.025014344950775E-006
   89.9650000000000         1.207162305883629E-006
   90.1550000000000         1.415096414941617E-006
   90.3450000000000         1.637646754971670E-006
   90.5350000000000         1.864515624148300E-006
   90.7250000000000         2.075244309683521E-006
   90.9150000000000         2.257397004923310E-006
   91.1050000000000         2.398285035941384E-006
   91.2950000000000         2.488422315759695E-006
   91.4850000000000         2.522696313232038E-006
   91.6750000000000         2.501105214972844E-006
   91.8650000000000         2.427926899403598E-006
   92.0550000000000         2.309344269011879E-006
   92.2450000000000         2.161647887354271E-006
   92.4350000000000         1.994940337794812E-006
   92.6250000000000         1.822621510672214E-006
   92.8150000000000         1.658174339660544E-006
   93.0050000000000         1.513226910921216E-006
   93.1950000000000         1.396356100011861E-006
   93.3850000000000         1.312596028830604E-006
   93.5750000000000         1.263509824647917E-006
   93.7650000000000         1.247389771554599E-006
   93.9550000000000         1.259879959871489E-006
   94.1450000000000         1.294365611952509E-006
   94.3350000000000         1.342986974899026E-006
   94.5250000000000         1.397606805728195E-006
   94.7150000000000         1.449767884711313E-006
   94.9050000000000         1.501871373566071E-006
   95.0950000000000         1.537484255028102E-006
   95.2850000000000         1.562185124892551E-006
   95.4750000000000         1.570887997246183E-006
   95.6650000000000         1.563970849252454E-006
   95.8550000000000         1.544389398613672E-006
   96.0450000000000         1.516005670003129E-006
   96.2350000000000         1.483636784052967E-006
   96.4250000000000         1.452994090912249E-006
   96.6150000000000         1.429369528101203E-006
   96.8050000000000         1.418987852676304E-006
   96.9950000000000         1.426352246066366E-006
   97.1850000000000         1.454646149956341E-006
   97.3750000000000         1.510028589981272E-006
   97.5650000000000         1.581672610440628E-006
   97.7550000000000         1.669458423493509E-006
   97.9450000000000         1.767009817289460E-006
   98.1350000000000         1.866007682289557E-006
   98.3250000000000         1.957482072344958E-006
   98.5150000000000         2.032874460651969E-006
   98.7050000000000         2.084855377602064E-006
   98.8950000000000         2.104794444249742E-006
   99.0850000000000         2.103725285749661E-006
   99.2750000000000         2.070466784374527E-006
   99.4650000000000         2.017551900604813E-006
   99.6550000000000         1.950719626269701E-006
   99.8450000000000         1.872148787790556E-006
   100.035000000000         1.801968143290980E-006
   100.225000000000         1.735190512002336E-006
   100.415000000000         1.688605336342753E-006
   100.605000000000         1.659350146350072E-006
   100.795000000000         1.646920532345595E-006
   100.985000000000         1.649742375128659E-006
   101.175000000000         1.663909785367858E-006
   101.365000000000         1.682123671788702E-006
   101.555000000000         1.702108789995772E-006
   101.745000000000         1.719538158703653E-006
   101.935000000000         1.730987966820207E-006
   102.125000000000         1.735245330471282E-006
   102.315000000000         1.731823883966823E-006
   102.505000000000         1.721650936512401E-006
   102.695000000000         1.703954867921816E-006
   102.885000000000         1.678380377450623E-006
   103.075000000000         1.646919924341486E-006
   103.265000000000         1.612076922710726E-006
   103.455000000000         1.572215985276282E-006
   103.645000000000         1.528759801802940E-006
   103.835000000000         1.484007765574880E-006
   104.025000000000         1.434129737113246E-006
   104.215000000000         1.386611229331233E-006
   104.405000000000         1.346482326688236E-006
   104.595000000000         1.318467258126478E-006
   104.785000000000         1.306898572821693E-006
   104.975000000000         1.314601152922919E-006
   105.165000000000         1.343299230115897E-006
   105.355000000000         1.387555241360604E-006
   105.545000000000         1.444941222053607E-006
   105.735000000000         1.511579219257155E-006
   105.925000000000         1.588433860817283E-006
   106.115000000000         1.660029681681655E-006
   106.305000000000         1.725480641668823E-006
   106.495000000000         1.781667029362704E-006
   106.685000000000         1.829361880329795E-006
   106.875000000000         1.871007552583119E-006
   107.065000000000         1.910036495486354E-006
   107.255000000000         1.950197818002355E-006
   107.445000000000         1.994289063851039E-006
   107.635000000000         2.043278898905952E-006
   107.825000000000         2.095878803224288E-006
   108.015000000000         2.148071091451694E-006
   108.205000000000         2.195119289327904E-006
   108.395000000000         2.233828580612548E-006
   108.585000000000         2.258076158511002E-006
   108.775000000000         2.266242570589609E-006
   108.965000000000         2.247181695512515E-006
   109.155000000000         2.208856428381152E-006
   109.345000000000         2.153883108402142E-006
   109.535000000000         2.087620894043027E-006
   109.725000000000         2.016328499180214E-006
   109.915000000000         1.945934329494842E-006
   110.105000000000         1.881714419660143E-006