  -1.42500000000000         0.000000000000000E+000
  -1.23500000000000         0.000000000000000E+000
  -1.04500000000000         0.000000000000000E+000
 -0.855000000000000         0.000000000000000E+000
 -0.665000000000000         0.000000000000000E+000
 -0.475000000000000         0.000000000000000E+000
 -0.285000000000000         0.000000000000000E+000
 -9.499999999999975E-002    0.000000000000000E+000
  9.500000000000020E-002    0.000000000000000E+000
  0.285000000000000         0.000000000000000E+000
  0.475000000000000         0.000000000000000E+000
  0.665000000000000         0.000000000000000E+000
  0.855000000000000         0.000000000000000E+000
   1.04500000000000         0.000000000000000E+000
   1.23500000000000         0.000000000000000E+000
   1.42500000000000         0.000000000000000E+000
   1.61500000000000         0.000000000000000E+000
   1.80500000000000         0.000000000000000E+000
   1.99500000000000         0.000000000000000E+000
   2.18500000000000         0.000000000000000E+000
   2.37500000000000         0.000000000000000E+000
   2.56500000000000         0.000000000000000E+000
   2.75500000000000         0.000000000000000E+000
   2.94500000000000         0.000000000000000E+000
   3.13500000000000         0.000000000000000E+000
   3.32500000000000         0.000000000000000E+000
   3.51500000000000         0.000000000000000E+000
   3.70500000000000         0.000000000000000E+000
   3.89500000000000         0.000000000000000E+000
   4.08500000000000         0.000000000000000E+000
   4.27500000000000         0.000000000000000E+000
   4.46500000000000         0.000000000000000E+000
   4.65500000000000         0.000000000000000E+000
   4.84500000000000         0.000000000000000E+000
   5.03500000000000         0.000000000000000E+000
   5.22500000000000         0.000000000000000E+000
   5.41500000000000         0.000000000000000E+000
   5.60500000000000         0.000000000000000E+000
   5.79500000000000         0.000000000000000E+000
   5.98500000000000         0.000000000000000E+000
   6.17500000000000         0.000000000000000E+000
   6.36500000000000         0.000000000000000E+000
   6.55500000000000         0.000000000000000E+000
   6.74500000000000         4.274329028885204E-190
   6.93500000000000        -1.905370287699119E-186
   7.12500000000000         2.543094050006781E-184
   7.31500000000000        -8.567332844375234E-181
   7.50500000000000        -7.839845898596993E-179
   7.69500000000000        -3.638209968062916E-177
   7.88500000000000        -1.148189983458703E-175
   8.07500000000000        -2.770984855662706E-174
   8.26500000000000        -5.445756543140084E-173
   8.45500000000000        -9.060979267199958E-172
   8.64500000000000        -1.310388392988860E-170
   8.83500000000000        -1.678612098163298E-169
   9.02500000000000        -1.932119319297336E-168
   9.21500000000000        -2.020799804681813E-167
   9.40500000000000        -1.938034806782539E-166
   9.59500000000000        -1.717192829851670E-165
   9.78500000000000        -1.414691059300538E-164
   9.97500000000000        -1.089595562665600E-163
   10.1650000000000        -7.883106988242508E-163
   10.3550000000000        -5.379907963062756E-162
   10.5450000000000        -3.476227109606683E-161
   10.7350000000000        -2.133708272198764E-160
   10.9250000000000        -1.247805263888245E-159
   11.1150000000000        -6.971228824635344E-159
   11.3050000000000        -3.729754424300877E-158
   11.4950000000000        -1.915239171505120E-157
   11.6850000000000        -9.458425940586799E-157
   11.8750000000000        -4.500664629265599E-156
   12.0650000000000        -2.067004313530293E-155
   12.2550000000000        -9.177016643313001E-155
   12.4450000000000        -3.944530065675934E-154
   12.6350000000000        -1.643675478770758E-153
   12.8250000000000        -6.648403911879627E-153
   13.0150000000000        -2.613466392222956E-152
   13.2050000000000        -9.995402095629687E-152
   13.3950000000000        -3.723267851984325E-151
   13.5850000000000        -1.352134506262935E-150
   13.7750000000000        -4.791756435166117E-150
   13.9650000000000        -1.658575917690080E-149
   14.1550000000000        -5.611891264452932E-149
   14.3450000000000        -1.857661457790931E-148
   14.5350000000000        -6.020625954184238E-148
   14.7250000000000        -1.911851798223134E-147
   14.9150000000000        -5.952652270263741E-147
   15.1050000000000        -1.818461040946646E-146
   15.2950000000000        -5.454011374260588E-146
   15.4850000000000        -1.607001292687728E-145
   15.6750000000000        -4.654387891252702E-145
   15.8650000000000        -1.325871652183694E-144
   16.0550000000000        -3.716785943565088E-144
   16.2450000000000        -1.025848424040382E-143
   16.4350000000000        -2.789062334994086E-143
   16.6250000000000        -7.472901508853312E-143
   16.8150000000000        -1.974054856697042E-142
   17.0050000000000        -5.143239598909080E-142
   17.1950000000000        -1.322135158369037E-141
   17.3850000000000        -3.354405160691720E-141
   17.5750000000000        -8.401942214163324E-141
   17.7650000000000        -2.078152384906860E-140
   17.9550000000000        -5.076952488177937E-140
   18.1450000000000        -1.225285839801350E-139
   18.3350000000000        -2.921782871045035E-139
   18.5250000000000        -6.884784947166691E-139
   18.7150000000000        -1.603281570881469E-138
   18.9050000000000        -3.690132460375539E-138
   19.0950000000000        -8.394882252381119E-138
   19.2850000000000        -1.887768539829788E-137
   19.4750000000000        -4.196232475801650E-137
   19.6650000000000        -9.220553241014142E-137
   19.8550000000000        -2.002838486983286E-136
   20.0450000000000        -4.300564975791706E-136
   20.2350000000000        -9.128251191856350E-136
   20.4250000000000        -1.915199313346450E-135
   20.6150000000000        -3.971662255876645E-135
   20.8050000000000        -8.139726532610685E-135
   20.9950000000000        -1.648332172815925E-134
   21.1850000000000        -3.297269788170352E-134
   21.3750000000000        -6.512675772258790E-134
   21.5650000000000        -1.269406881269608E-133
   21.7550000000000        -2.439549770133250E-133
   21.9450000000000        -4.617027877328120E-133
   22.1350000000000        -8.590439157680784E-133
   22.3250000000000        -1.567475604724596E-132
   22.5150000000000        -2.794836964609959E-132
   22.7050000000000        -4.843056778250652E-132
   22.8950000000000        -8.085911997051512E-132
   23.0850000000000        -1.281483239022216E-131
   23.2750000000000        -1.872787530576797E-131
   23.4650000000000        -2.354626369515243E-131
   23.6550000000000        -1.963136574757573E-131
   23.8450000000000         1.376741868445651E-131
   24.0350000000000         1.274466588896737E-130
   24.2250000000000         4.378297155731997E-130
   24.4150000000000         1.199224841927644E-129
   24.6050000000000         2.945993089347905E-129
   24.7950000000000         6.763714916288880E-129
   24.9850000000000         1.479015293579466E-128
   25.1750000000000         3.110937095971014E-128
   25.3650000000000         6.328597740828641E-128
   25.5550000000000         1.248744551386107E-127
   25.7450000000000         2.392695489646835E-127
   25.9350000000000         4.450718000153284E-127
   26.1250000000000         8.023354633485417E-127
   26.3150000000000         1.396789260993905E-126
   26.5050000000000         2.333612384676334E-126
   26.6950000000000         3.700138846338310E-126
   26.8850000000000         5.451370790309916E-126
   27.0750000000000         7.121341843680456E-126
   27.2650000000000         7.165783359408287E-126
   27.4550000000000         1.560463776627000E-126
   27.6450000000000        -1.904595894461246E-125
   27.8350000000000        -7.489300397281195E-125
   28.0250000000000        -2.076091386342416E-124
   28.2150000000000        -4.994385495494044E-124
   28.4050000000000        -1.107424359451579E-123
   28.5950000000000        -2.322422889927761E-123
   28.7850000000000        -4.667905725804409E-123
   28.9750000000000        -9.059893873850851E-123
   29.1650000000000        -1.705590972079947E-122
   29.3550000000000        -3.122403350121806E-122
   29.5450000000000        -5.565462131964718E-122
   29.7350000000000        -9.659898473652182E-122
   29.9250000000000        -1.631153718562752E-121
   30.1150000000000        -2.673645789912554E-121
   30.3050000000000        -4.237007666010014E-121
   30.4950000000000        -6.447278159880112E-121
   30.6850000000000        -9.306626140103598E-121
   30.8750000000000        -1.245042187955033E-120
   31.0650000000000        -1.464031684247009E-120
   31.2550000000000        -1.276776467453152E-120
   31.4450000000000         1.951905563752845E-123
   31.6350000000000         3.771531929859510E-120
   31.8250000000000         1.274280997391522E-119
   32.0150000000000         3.195890596779335E-119
   32.2050000000000         7.049358873753367E-119
   32.3950000000000         1.442030877470274E-118
   32.5850000000000         2.800650086409333E-118
   32.7750000000000         5.228231799525568E-118
   32.9650000000000         9.448368050336451E-118
   33.1550000000000         1.660125315621264E-117
   33.3450000000000         2.843437928314320E-117
   33.5350000000000         4.754437036556926E-117
   33.7250000000000         7.765189829855913E-117
   33.9150000000000         1.238512584955051E-116
   34.1050000000000         1.926981870751734E-116
   34.2950000000000         2.918582189899462E-116
   34.4850000000000         4.287941062066259E-116
   34.6750000000000         6.075667694611855E-116
   34.8650000000000         8.221781637565933E-116
   35.0550000000000         1.043885819155002E-115
   35.2450000000000         1.198427131266144E-115
   35.4350000000000         1.126942754966095E-115
   35.6250000000000         5.214180707942850E-116
   35.8150000000000        -1.178443602054757E-115
   36.0050000000000        -4.944802696027741E-115
   36.1950000000000        -1.240092727642562E-114
   36.3850000000000        -2.616813334948293E-114
   36.5750000000000        -5.035065094855956E-114
   36.7650000000000        -9.118420803615958E-114
   36.9550000000000        -1.578561142914198E-113
   37.1450000000000        -2.634616606574728E-113
   37.3350000000000        -4.259759029636750E-113
   37.5250000000000        -6.689646023013645E-113
   37.7150000000000        -1.021494663882879E-112
   37.9050000000000        -1.516279547406661E-112
   38.0950000000000        -2.184438656206228E-112
   38.2850000000000        -3.044274654985828E-112
   38.4750000000000        -4.080079741378919E-112
   38.6650000000000        -5.205072376124728E-112
   38.8550000000000        -6.200068374631389E-112
   39.0450000000000        -6.616408887249035E-112
   39.2350000000000        -5.628164016083641E-112
   39.4250000000000        -1.815151078033669E-112
   39.6150000000000         7.144225852625300E-112
   39.8050000000000         2.489121869810790E-111
   39.9950000000000         5.693144977044228E-111
   40.1850000000000         1.113061279605817E-110
   40.3750000000000         1.993579482233128E-110
   40.5650000000000         3.365019541196916E-110
   40.7550000000000         5.428144918730712E-110
   40.9450000000000         8.430995645398130E-110
   41.1350000000000         1.265859551880126E-109
   41.3250000000000         1.840260679205501E-109
   41.5150000000000         2.589715210954056E-109
   41.7050000000000         3.520076988062532E-109
   41.8950000000000         4.599649925935142E-109
   42.0850000000000         5.727249513793916E-109
   42.2750000000000         6.683489007251701E-109
   42.4650000000000         7.059414746222247E-109
   42.6550000000000         6.155839647992551E-109
   42.8450000000000         2.846653826125917E-109
   43.0350000000000        -4.599276127159501E-109
   43.2250000000000        -1.873920850232375E-108
   43.4150000000000        -4.321439983518824E-108
   43.6050000000000        -8.302451055140730E-108
   43.7950000000000        -1.447751740529636E-107
   43.9850000000000        -2.368193470679611E-107
   44.1750000000000        -3.691595567338325E-107
   44.3650000000000        -5.529019096371116E-107
   44.5550000000000        -7.989483172376962E-107
   44.7450000000000        -1.115476263629303E-106
   44.9350000000000        -1.503583678287898E-106
   45.1250000000000        -1.950273710232390E-106
   45.3150000000000        -2.417734078411425E-106
   45.5050000000000        -2.827658380992826E-106
   45.6950000000000        -3.039218091354666E-106
   45.8850000000000        -2.819317444105943E-106
   46.0750000000000        -1.804095366448261E-106
   46.2650000000000         5.485039479884691E-107
   46.4550000000000         5.013580647788850E-106
   46.6450000000000         1.265710289645716E-105
   46.8350000000000         2.488754910642513E-105
   47.0250000000000         4.348509211215152E-105
   47.2150000000000         7.058180869734426E-105
   47.4050000000000         1.085523510346759E-104
   47.5950000000000         1.597561594859031E-104
   47.7850000000000         2.260495854759863E-104
   47.9750000000000         3.079600683987217E-104
   48.1650000000000         4.033871041154694E-104
   48.3550000000000         5.056708088860636E-104
   48.5450000000000         6.008564591319773E-104
   48.7350000000000         6.639951620758634E-104
   48.9250000000000         6.543755009693986E-104
   49.1150000000000         5.097046348512365E-104
   49.3050000000000         1.394841182514707E-104
   49.4950000000000        -5.818021300853090E-104
   49.6850000000000        -1.820504419399402E-103
   49.8750000000000        -3.786636009447633E-103
   50.0650000000000        -6.730627373391701E-103
   50.2550000000000        -1.092952135187921E-102
   50.4450000000000        -1.665644921876838E-102
   50.6350000000000        -2.412537904068841E-102
   50.8250000000000        -3.340132894469557E-102
   51.0150000000000        -4.426488286074812E-102
   51.2050000000000        -5.601955772712192E-102
   51.3950000000000        -6.723225930084079E-102
   51.5850000000000        -7.540197396386233E-102
   51.7750000000000        -7.656157523317164E-102
   51.9650000000000        -6.483409202190109E-102
   52.1550000000000        -3.199009721346136E-102
   52.3450000000000         3.291093443959247E-102
   52.5350000000000         1.436638599469280E-101
   52.7250000000000         3.166529388510780E-101
   52.9150000000000         5.699137763934650E-101
   53.1050000000000         9.211793166115721E-101
   53.2950000000000         1.384493768219655E-100
   53.4850000000000         1.964926527013087E-100
   53.6750000000000         2.650913174605029E-100
   53.8650000000000         3.403827715626160E-100
   54.0550000000000         4.144595072190033E-100
   54.2450000000000         4.737540759722742E-100
   54.4350000000000         4.972307130430658E-100
   54.6250000000000         4.545603491895236E-100
   54.8150000000000         3.045849546654324E-100
   55.0050000000000        -5.456280945040755E-102
   55.1950000000000        -5.392659596501718E-100
   55.3850000000000        -1.368497211172980E-099
   55.5750000000000        -2.566316201861945E-099
   55.7650000000000        -4.196224162514374E-099
   55.9550000000000        -6.294768723751755E-099
   56.1450000000000        -8.846883691479306E-099
   56.3350000000000        -1.175299742196474E-098
   56.5250000000000        -1.478786931884121E-098
   56.7150000000000        -1.755248971107462E-098
   56.9050000000000        -1.942244307860641E-098
   57.0950000000000        -1.949898842662165E-098
   57.2850000000000        -1.657278224854040E-098
   57.4750000000000        -9.114564179592767E-099
   57.6650000000000         4.688039218695904E-099
   57.8550000000000         2.682370366792878E-098
   58.0450000000000         5.925294561813296E-098
   58.2350000000000         1.035768631360891E-097
   58.4250000000000         1.605523841003621E-097
   58.6150000000000         2.294358435428743E-097
   58.8050000000000         3.071537050187928E-097
   58.9950000000000         3.873271914013716E-097
   59.1850000000000         4.592186622910343E-097
   59.3750000000000         5.067230352403100E-097
   59.5650000000000         5.075969775829601E-097
   59.7550000000000         4.331988997384388E-097
   59.9450000000000         2.490970432108064E-097
   60.1350000000000        -8.302075243431558E-098
   60.3250000000000        -6.016516997486748E-097
   60.5150000000000        -1.339513598893817E-096
   60.7050000000000        -2.314910099226929E-096
   60.8950000000000        -3.520225420900798E-096
   61.0850000000000        -4.907706254228105E-096
   61.2750000000000        -6.373238754269397E-096
   61.4650000000000        -7.739594336200352E-096
   61.6550000000000        -8.741599582045106E-096
   61.8450000000000        -9.016845715510196E-096
   62.0350000000000        -8.106800399710266E-096
   62.2250000000000        -5.474356276940311E-096
   62.4150000000000        -5.446972374194753E-097
   62.6050000000000         7.223460565767917E-096
   62.7950000000000         1.823012981670326E-095
   62.9850000000000         3.258624915895294E-095
   63.1750000000000         4.992697206008272E-095
   63.3650000000000         6.919458105620334E-095
   63.5550000000000         8.840991823549001E-095
   63.7450000000000         1.044645542656169E-094
   63.9350000000000         1.129816910321820E-094
   64.1250000000000         1.083107190170508E-094
   64.3150000000000         8.373615565509960E-095
   64.5050000000000         3.199291876763376E-095
   64.6950000000000        -5.381820235283467E-095
   64.8850000000000        -1.788343916500910E-094
   65.0750000000000        -3.445090094211602E-094
   65.2650000000000        -5.461839768255075E-094
   65.4550000000000        -7.702764012165406E-094
   65.6450000000000        -9.913388658331157E-094
   65.8350000000000        -1.169430261910834E-093
   66.0250000000000        -1.248441197420188E-093
   66.2150000000000        -1.156236217420130E-093
   66.4050000000000        -8.076725590379542E-094
   66.5950000000000        -1.116848912425820E-094
   66.7850000000000         1.016375656981622E-093
   66.9750000000000         2.636169451592038E-093
   67.1650000000000         4.757089412420684E-093
   67.3550000000000         7.306687708560889E-093
   67.5450000000000         1.009455876653303E-092
   67.7350000000000         1.277525133184971E-092
   67.9250000000000         1.481605454220434E-092
   68.1150000000000         1.547809293350501E-092
   68.3050000000000         1.382180762142271E-092
   68.4950000000000         8.750166361593307E-093
   68.6850000000000        -8.957791261392761E-094
   68.8750000000000        -1.617487987694040E-092
   69.0650000000000        -3.780655129616732E-092
   69.2550000000000        -6.585022377047580E-092
   69.4450000000000        -9.931136910271490E-092
   69.6350000000000        -1.356989251746051E-091
   69.8250000000000        -1.705814671956622E-091
   70.0150000000000        -1.972167382149941E-091
   70.2050000000000        -2.063591532265951E-091
   70.3950000000000        -1.863790197047875E-091
   70.5850000000000        -1.238499699842537E-091
   70.7750000000000        -4.769970859141162E-093
   70.9650000000000         1.834330716916415E-091
   71.1550000000000         4.490082285858403E-091
   71.3450000000000         7.920906811427923E-091
   71.5350000000000         1.200148750162591E-090
   71.7250000000000         1.643008624319222E-090
   71.9150000000000         2.068056227920155E-090
   72.1050000000000         2.396517164373445E-090
   72.2950000000000         2.522030616900281E-090
   72.4850000000000         2.313015063504936E-090
   72.6750000000000         1.620506332244927E-090
   72.8650000000000         2.931461274796407E-091
   73.0550000000000        -1.799289338490034E-090
   73.2450000000000        -4.733112816762893E-090
   73.4350000000000        -8.489167330208309E-090
   73.6250000000000        -1.290468384130877E-089
   73.8150000000000        -1.762305422224188E-089
   74.0050000000000        -2.204880195996747E-089
   74.1950000000000        -2.531808609290563E-089
   74.3850000000000        -2.629802080420672E-089
   74.5750000000000        -2.363037265286582E-089
   74.7650000000000        -1.583605892984049E-089
   74.9550000000000        -1.495400619661349E-090
   75.1450000000000         2.048572518182049E-089
   75.3350000000000         5.052281396098964E-089
   75.5250000000000         8.792593187172692E-089
   75.7150000000000         1.304319682705407E-088
   75.9050000000000         1.737532619986179E-088
   76.0950000000000         2.112278519398477E-088
   76.2850000000000         2.336849800367128E-088
   76.4750000000000         2.296636862369433E-088
   76.6650000000000         1.861360017315178E-088
   76.8550000000000         8.988136899510673E-089
   77.0450000000000        -7.037363257678137E-089
   77.2350000000000        -3.010057010578923E-088
   77.4250000000000        -5.998053025994803E-088
   77.6150000000000        -9.517812558181405E-088
   77.8050000000000        -1.324905780166364E-087
   77.9950000000000        -1.666496797525078E-087
   78.1850000000000        -1.901200668455716E-087
   78.3750000000000        -1.931784333349202E-087
   78.5650000000000        -1.644118414115233E-087
   78.7550000000000        -9.177639134965726E-088
   78.9450000000000         3.566161696090014E-088
   79.1350000000000         2.252299377866678E-087
   79.3250000000000         4.774170102575632E-087
   79.5150000000000         7.820519137019714E-087
   79.7050000000000         1.114229105810202E-086
   79.8950000000000         1.430531179693731E-086
   80.0850000000000         1.666351091593223E-086
   80.2750000000000         1.735362986987538E-086
   80.4650000000000         1.532396825594370E-086
   80.6550000000000         9.410806619880323E-087
   80.8450000000000        -1.524435181561897E-087
   81.0350000000000        -1.838727445441794E-086
   81.2250000000000        -4.156772375789508E-086
   81.4150000000000        -7.058979111375391E-086
   81.6050000000000        -1.037139528153188E-085
   81.7950000000000        -1.375324977557987E-085
   81.9850000000000        -1.666200402315272E-085
   82.1750000000000        -1.833257043898155E-085
   82.3650000000000        -1.778166090888077E-085
   82.5550000000000        -1.385001288787373E-085
   82.7450000000000        -5.295945667442524E-086
   82.9350000000000         9.047340670491434E-086
   83.1250000000000         3.004182987351910E-085
   83.3150000000000         5.793994585402039E-085
   83.5050000000000         9.201335423682859E-085
   83.6950000000000         1.301383155312049E-084
   83.8850000000000         1.683792391120772E-084
   84.0750000000000         2.006339131180255E-084
   84.2650000000000         2.184272098890014E-084
   84.4550000000000         2.109621466631719E-084
   84.6450000000000         1.655541028963207E-084
   84.8350000000000         6.858067783918440E-085
   85.0250000000000        -9.292995743330859E-085
   85.2150000000000        -3.289819618966605E-084
   85.4050000000000        -6.435378764655974E-084
   85.5950000000000        -1.030756910707938E-083
   85.7850000000000        -1.470749898121772E-083
   85.9750000000000        -1.925228030012716E-083
   86.1650000000000        -2.333625938403938E-083
   86.3550000000000        -2.610499908887318E-083
   86.5450000000000        -2.645215874162303E-083
   86.7350000000000        -2.305116183073261E-083
   86.9250000000000        -1.443445552415202E-083
   87.1150000000000         8.672732011748092E-085
   87.3050000000000         2.411593683995827E-083
   87.4950000000000         5.608186058402663E-083
   87.6850000000000         9.668744784572810E-083
   87.8750000000000         1.445929422364367E-082
   88.0650000000000         1.967533578662221E-082
   88.2550000000000         2.479935553762943E-082
   88.4450000000000         2.906684509291424E-082
   88.6350000000000         3.144957573536551E-082
   88.8250000000000         3.066669342730202E-082
   89.0150000000000         2.523547520944592E-082
   89.2050000000000         1.357388091398280E-082
   89.3950000000000        -5.834141190147042E-083
   89.5850000000000        -3.420280043784033E-082
   89.7750000000000        -7.213591801771095E-082
   89.9650000000000        -1.192520850075516E-081
   90.1550000000000        -1.737615580910003E-081
   90.3450000000000        -2.320275738324637E-081
   90.5350000000000        -2.881619034872402E-081
   90.7250000000000        -3.337230444805367E-081
   90.9150000000000        -3.576037363905708E-081
   91.1050000000000        -3.462100548826417E-081
   91.2950000000000        -2.840439891910461E-081
   91.4850000000000        -1.548012856476063E-081
   91.6750000000000         5.691791248424786E-082
   91.8650000000000         3.632210043454329E-081
   92.0550000000000         7.698485976988879E-081
   92.2450000000000         1.272486937706122E-080
   92.4350000000000         1.852649605505898E-080
   92.6250000000000         2.473446780325433E-080
   92.8150000000000         3.075717417863491E-080
   93.0050000000000         3.575168183054182E-080
   93.1950000000000         3.861327340455322E-080
   93.3850000000000         3.799260204368735E-080
   93.5750000000000         3.235076935747678E-080
   93.7650000000000         2.006259414878231E-080
   93.9550000000000        -4.229661391732991E-082
   94.1450000000000        -3.035924609051400E-080
   94.3350000000000        -7.041415807997703E-080
   94.5250000000000        -1.203246527918014E-079
   94.7150000000000        -1.785094437644673E-079
   94.9050000000000        -2.416682072320434E-079
   95.0950000000000        -3.044095177979349E-079
   95.2850000000000        -3.589649175637864E-079
   95.4750000000000        -3.950614082865113E-079
   95.6650000000000        -4.000374217497576E-079
   95.8550000000000        -3.592955201656805E-079
   96.0450000000000        -2.571857497502885E-079
   96.2350000000000        -7.840337600385955E-080
   96.4250000000000         1.900398255844277E-079
   96.6150000000000         5.562537643470006E-079
   96.8050000000000         1.020363260285235E-078
   96.9950000000000         1.570986001842368E-078
   97.1850000000000         2.181530127725045E-078
   97.3750000000000         2.806669186047550E-078
   97.5650000000000         3.379485857079972E-078
   97.7550000000000         3.809909104241159E-078
   97.9450000000000         3.985186494419594E-078
   98.1350000000000         3.773213592791382E-078
   98.3250000000000         3.029560389336190E-078
   98.5150000000000         1.608962031052850E-078
   98.7050000000000        -6.181524060776048E-079
   98.8950000000000        -3.743862467696722E-078
   99.0850000000000        -7.795975497669274E-078
   99.2750000000000        -1.270724937086529E-077
   99.4650000000000        -1.828248949274172E-077
   99.6550000000000        -2.416643032113085E-077
   99.8450000000000        -2.981645122058073E-077
   100.035000000000        -3.448532513866028E-077
   100.225000000000        -3.722022634744043E-077
   100.415000000000        -3.688496001563569E-077
   100.605000000000        -3.221261430191754E-077
   100.795000000000        -2.189533945361044E-077
   100.985000000000        -4.716480245201381E-078
   101.175000000000         2.027240819125779E-077
   101.365000000000         5.353123768445586E-077
   101.555000000000         9.477495856076149E-077
   101.745000000000         1.426953447565948E-076
   101.935000000000         1.946837167732673E-076
   102.125000000000         2.465865775627294E-076
   102.315000000000         2.925355149289205E-076
   102.505000000000         3.249012050150901E-076
   102.695000000000         3.344275971738638E-076
   102.885000000000         3.106047490851853E-076
   103.075000000000         2.423354790967785E-076
   103.265000000000         1.189400920152843E-076
   103.455000000000        -6.847690202993135E-077
   103.645000000000        -3.253053851979932E-076
   103.835000000000        -6.514037865308520E-076
   104.025000000000        -1.038873465623362E-075
   104.215000000000        -1.469802342172402E-075
   104.405000000000        -1.914217707472306E-075
   104.595000000000        -2.328560250728090E-075
   104.785000000000        -2.655056959372873E-075
   104.975000000000        -2.822419797882873E-075
   105.165000000000        -2.748318001487440E-075
   105.355000000000        -2.344051047372989E-075
   105.545000000000        -1.521772976591813E-075
   105.735000000000        -2.044736682002310E-076
   105.925000000000         1.661301526116190E-075
   106.115000000000         4.090321338554431E-075
   106.305000000000         7.041847011676231E-075
   106.495000000000         1.040230315937231E-074
   106.685000000000         1.396913661533846E-074
   106.875000000000         1.743808102049768E-074
   107.065000000000         2.039652402067412E-074
   107.255000000000         2.232604141183754E-074
   107.445000000000         2.261733634742114E-074
   107.635000000000         2.060071028790982E-074
   107.825000000000         1.559470117701177E-074
   108.015000000000         6.974564936436918E-075
   108.205000000000        -5.739221741396760E-075
   108.395000000000        -2.277433464994164E-074
   108.585000000000        -4.398639197746746E-074
   108.775000000000        -6.873283933645632E-074
   108.965000000000        -9.575208829369309E-074
   109.155000000000        -1.230626447751049E-073
   109.345000000000        -1.479002976642801E-073
   109.535000000000        -1.667140887449714E-073
   109.725000000000        -1.752432287132920E-073
   109.915000000000        -1.686967759737040E-073
   110.105000000000        -1.420551505931013E-073