  -1.42500000000000         0.000000000000000E+000
  -1.23500000000000         0.000000000000000E+000
  -1.04500000000000         0.000000000000000E+000
 -0.855000000000000         0.000000000000000E+000
 -0.665000000000000         0.000000000000000E+000
 -0.475000000000000         0.000000000000000E+000
 -0.285000000000000         0.000000000000000E+000
 -9.499999999999975E-002    0.000000000000000E+000
  9.500000000000020E-002    0.000000000000000E+000
  0.285000000000000         0.000000000000000E+000
  0.475000000000000         0.000000000000000E+000
  0.665000000000000         0.000000000000000E+000
  0.855000000000000         0.000000000000000E+000
   1.04500000000000         0.000000000000000E+000
   1.23500000000000         0.000000000000000E+000
   1.42500000000000         0.000000000000000E+000
   1.61500000000000         0.000000000000000E+000
   1.80500000000000         0.000000000000000E+000
   1.99500000000000         0.000000000000000E+000
   2.18500000000000         0.000000000000000E+000
   2.37500000000000         0.000000000000000E+000
   2.56500000000000         0.000000000000000E+000
   2.75500000000000         0.000000000000000E+000
   2.94500000000000         0.000000000000000E+000
   3.13500000000000         0.000000000000000E+000
   3.32500000000000         0.000000000000000E+000
   3.51500000000000         0.000000000000000E+000
   3.70500000000000         0.000000000000000E+000
   3.89500000000000         0.000000000000000E+000
   4.08500000000000         0.000000000000000E+000
   4.27500000000000         0.000000000000000E+000
   4.46500000000000         0.000000000000000E+000
   4.65500000000000         0.000000000000000E+000
   4.84500000000000         0.000000000000000E+000
   5.03500000000000         0.000000000000000E+000
   5.22500000000000         0.000000000000000E+000
   5.41500000000000         0.000000000000000E+000
   5.60500000000000         0.000000000000000E+000
   5.79500000000000         0.000000000000000E+000
   5.98500000000000         0.000000000000000E+000
   6.17500000000000         0.000000000000000E+000
   6.36500000000000         0.000000000000000E+000
   6.55500000000000         0.000000000000000E+000
   6.74500000000000         0.000000000000000E+000
   6.93500000000000        -7.638068365583531E-192
   7.12500000000000         6.543278696194711E-187
   7.31500000000000         3.682156832686681E-185
   7.50500000000000         1.569268914186629E-181
   7.69500000000000         1.342375606790943E-179
   7.88500000000000         5.912608028520589E-178
   8.07500000000000         1.782094068430824E-176
   8.26500000000000         4.130556401389607E-175
   8.45500000000000         7.841908752763403E-174
   8.64500000000000         1.267882297725374E-172
   8.83500000000000         1.791704015167239E-171
   9.02500000000000         2.253988821158319E-170
   9.21500000000000         2.558730617739230E-169
   9.40500000000000         2.648601512814062E-168
   9.59500000000000         2.520825926834133E-167
   9.78500000000000         2.221148087523558E-166
   9.97500000000000         1.822347714579778E-165
   10.1650000000000         1.399158447802245E-164
   10.3550000000000         1.009664322412849E-163
   10.5450000000000         6.874437075476341E-163
   10.7350000000000         4.431428649872584E-162
   10.9250000000000         2.712951814650662E-161
   11.1150000000000         1.581783944876230E-160
   11.3050000000000         8.805629590312145E-160
   11.4950000000000         4.691186868571399E-159
   11.6850000000000         2.396763637091130E-158
   11.8750000000000         1.176570185816940E-157
   12.0650000000000         5.559256484198110E-157
   12.2550000000000         2.532268743405799E-156
   12.4450000000000         1.113580363847451E-155
   12.6350000000000         4.733871993433103E-155
   12.8250000000000         1.947608094906232E-154
   13.0150000000000         7.762962338881562E-154
   13.2050000000000         3.000467547448536E-153
   13.3950000000000         1.125442836981030E-152
   13.5850000000000         4.099289208145167E-152
   13.7750000000000         1.450631528081000E-151
   13.9650000000000         4.988956399032162E-151
   14.1550000000000         1.667721352126243E-150
   14.3450000000000         5.418204631476706E-150
   14.5350000000000         1.710161781622570E-149
   14.7250000000000         5.240073124095054E-149
   14.9150000000000         1.556687765614318E-148
   15.1050000000000         4.474616451274747E-148
   15.2950000000000         1.240629235880017E-147
   15.4850000000000         3.301554193766279E-147
   15.6750000000000         8.365097991851155E-147
   15.8650000000000         1.989374659200655E-146
   16.0550000000000         4.317646539439576E-146
   16.2450000000000         7.990650594419851E-146
   16.4350000000000         9.779911855748854E-146
   16.6250000000000        -9.283404141039847E-146
   16.8150000000000        -1.275531292622002E-144
   17.0050000000000        -6.248371731549571E-144
   17.1950000000000        -2.418775778678270E-143
   17.3850000000000        -8.346469154020307E-143
   17.5750000000000        -2.679230105962395E-142
   17.7650000000000        -8.163675478292598E-142
   17.9550000000000        -2.387847673779426E-141
   18.1450000000000        -6.751292746672969E-141
   18.3350000000000        -1.853693191087661E-140
   18.5250000000000        -4.958878644137948E-140
   18.7150000000000        -1.295635472069687E-139
   18.9050000000000        -3.312509842778811E-139
   19.0950000000000        -8.299794726632528E-139
   19.2850000000000        -2.040622081060081E-138
   19.4750000000000        -4.928469740173189E-138
   19.6650000000000        -1.170376226223525E-137
   19.8550000000000        -2.735049844393216E-137
   20.0450000000000        -6.294382420629475E-137
   20.2350000000000        -1.427484774294380E-136
   20.4250000000000        -3.191977454175982E-136
   20.6150000000000        -7.040550648400885E-136
   20.8050000000000        -1.532274176370930E-135
   20.9950000000000        -3.290726204289614E-135
   21.1850000000000        -6.972816612578281E-135
   21.3750000000000        -1.457079044258617E-134
   21.5650000000000        -3.000072363641864E-134
   21.7550000000000        -6.077530839800652E-134
   21.9450000000000        -1.208674894931116E-133
   22.1350000000000        -2.352008929498498E-133
   22.3250000000000        -4.455924503868420E-133
   22.5150000000000        -8.154424794734461E-133
   22.7050000000000        -1.422626393911118E-132
   22.8950000000000        -2.308654144353807E-132
   23.0850000000000        -3.298114335348737E-132
   23.2750000000000        -3.472990442359075E-132
   23.4650000000000         2.107370628951834E-133
   23.6550000000000         1.633541679398476E-131
   23.8450000000000         6.704892346732009E-131
   24.0350000000000         2.062449306246622E-130
   24.2250000000000         5.594276105532556E-130
   24.4150000000000         1.408632749151071E-129
   24.6050000000000         3.368537964911552E-129
   24.7950000000000         7.742415761293978E-129
   24.9850000000000         1.722362152991766E-128
   25.1750000000000         3.724318871657683E-128
   25.3650000000000         7.849097588742020E-128
   25.5550000000000         1.615007967777948E-127
   25.7450000000000         3.247324050976139E-127
   25.9350000000000         6.383118073302407E-127
   26.1250000000000         1.226383407754035E-126
   26.3150000000000         2.301417615165139E-126
   26.5050000000000         4.212543108555754E-126
   26.6950000000000         7.504054214476416E-126
   26.8850000000000         1.296319980130202E-125
   27.0750000000000         2.159486820401666E-125
   27.2650000000000         3.436861888971166E-125
   27.4550000000000         5.139087274970145E-125
   27.6450000000000         6.977028472527475E-125
   27.8350000000000         7.870336693363809E-125
   28.0250000000000         4.892462661464094E-125
   28.2150000000000        -8.884390637049161E-125
   28.4050000000000        -4.862459788828738E-124
   28.5950000000000        -1.457902483124745E-123
   28.7850000000000        -3.630616426347823E-123
   28.9750000000000        -8.212652525494465E-123
   29.1650000000000        -1.746839532278704E-122
   29.3550000000000        -3.553628820860881E-122
   29.5450000000000        -6.980719871271242E-122
   29.7350000000000        -1.331953427320517E-121
   29.9250000000000        -2.477930424408823E-121
   30.1150000000000        -4.506069500472361E-121
   30.3050000000000        -8.023149205811899E-121
   30.4950000000000        -1.400213708020190E-120
   30.6850000000000        -2.396634925159738E-120
   30.8750000000000        -4.023851581423283E-120
   31.0650000000000        -6.625419451733050E-120
   31.2550000000000        -1.069115976631812E-119
   31.4450000000000        -1.688714028991007E-119
   31.6350000000000        -2.606062622525992E-119
   31.8250000000000        -3.917913836670325E-119
   32.0150000000000        -5.712636281899752E-119
   32.2050000000000        -8.021646466855650E-119
   32.3950000000000        -1.071888673036603E-118
   32.5850000000000        -1.332887874769842E-118
   32.7750000000000        -1.467992711399980E-118
   32.9650000000000        -1.230359116247876E-118
   33.1550000000000        -1.430850250506319E-119
   33.3450000000000         2.663424032781349E-118
   33.5350000000000         8.707358652912606E-118
   33.7250000000000         2.054679971372569E-117
   33.9150000000000         4.236068868330122E-117
   34.1050000000000         8.078448526048591E-117
   34.2950000000000         1.460695442693185E-116
   34.4850000000000         2.536226546788800E-116
   34.6750000000000         4.259356342226262E-116
   34.8650000000000         6.948055186399509E-116
   35.0550000000000         1.103527766774088E-115
   35.2450000000000         1.708347483509903E-115
   35.4350000000000         2.577772421216586E-115
   35.6250000000000         3.787236946271154E-115
   35.8150000000000         5.404852274505101E-115
   36.0050000000000         7.461313249874003E-115
   36.1950000000000         9.893115599584863E-115
   36.3850000000000         1.244267438736706E-114
   36.5750000000000         1.449131555414493E-114
   36.7650000000000         1.479110919382165E-114
   36.9550000000000         1.104905336197963E-114
   37.1450000000000        -6.973077757305134E-116
   37.3350000000000        -2.698857976853337E-114
   37.5250000000000        -7.822410468792676E-114
   37.7150000000000        -1.704043976762743E-113
   37.9050000000000        -3.274071417701536E-113
   38.0950000000000        -5.838112569888070E-113
   38.2850000000000        -9.881587908983714E-113
   38.4750000000000        -1.606308973679611E-112
   38.6650000000000        -2.524130287363549E-112
   38.8550000000000        -3.848107413747902E-112
   39.0450000000000        -5.701392678732703E-112
   39.2350000000000        -8.211254125264728E-112
   39.4250000000000        -1.148157874585745E-111
   39.6150000000000        -1.554086861691144E-111
   39.8050000000000        -2.025180718654739E-111
   39.9950000000000        -2.516280755627382E-111
   40.1850000000000        -2.927495429395909E-111
   40.3750000000000        -3.068966710225951E-111
   40.5650000000000        -2.609401353978645E-111
   40.7550000000000        -1.003350420150110E-111
   40.9450000000000         2.608059697698815E-111
   41.1350000000000         9.527588473830235E-111
   41.3250000000000         2.166579195037595E-110
   41.5150000000000         4.173530801984767E-110
   41.7050000000000         7.346240355655933E-110
   41.8950000000000         1.217854730730831E-109
   42.0850000000000         1.929825384494214E-109
   42.2750000000000         2.946275245153042E-109
   42.4650000000000         4.352131170258613E-109
   42.6550000000000         6.231906966794387E-109
   42.8450000000000         8.650596079534980E-109
   43.0350000000000         1.161984643827288E-108
   43.2250000000000         1.504231441926118E-108
   43.4150000000000         1.862490882133361E-108
   43.6050000000000         2.174934239043155E-108
   43.7950000000000         2.328639258815753E-108
   43.9850000000000         2.133921989337182E-108
   44.1750000000000         1.290211843041454E-108
   44.3650000000000        -6.574107096272210E-109
   44.5550000000000        -4.370783799326873E-108
   44.7450000000000        -1.077802500684036E-107
   44.9350000000000        -2.113384488929278E-107
   45.1250000000000        -3.706943372250406E-107
   45.3150000000000        -6.061228817234466E-107
   45.5050000000000        -9.414461268511368E-107
   45.6950000000000        -1.402529749691849E-106
   45.8850000000000        -2.014011557552437E-106
   46.0750000000000        -2.793325056898807E-106
   46.2650000000000        -3.740783706226318E-106
   46.4550000000000        -4.824174953976857E-106
   46.6450000000000        -5.956022591876420E-106
   46.8350000000000        -6.961489410558289E-106
   47.0250000000000        -7.534933649652406E-106
   47.2150000000000        -7.183586796857882E-106
   47.4050000000000        -5.157946861389467E-106
   47.5950000000000        -3.706285276492830E-107
   47.7850000000000         8.690977530388405E-106
   47.9750000000000         2.404727820604781E-105
   48.1650000000000         4.828513461218839E-105
   48.3550000000000         8.456208507174940E-105
   48.5450000000000         1.365106005517998E-104
   48.7350000000000         2.079779897935548E-104
   48.9250000000000         3.025152689465299E-104
   49.1150000000000         4.225038633353668E-104
   49.3050000000000         5.677851442738293E-104
   49.4950000000000         7.336392698636954E-104
   49.6850000000000         9.079540579975884E-104
   49.8750000000000         1.067442571699803E-103
   50.0650000000000         1.172824716289617E-103
   50.2550000000000         1.163002855519638E-103
   50.4450000000000         9.484579475401073E-104
   50.6350000000000         4.043978730172099E-104
   50.8250000000000        -6.353689122896419E-104
   51.0150000000000        -2.382259626088998E-103
   51.2050000000000        -5.092093545382638E-103
   51.3950000000000        -9.056328150914862E-103
   51.5850000000000        -1.458100071464285E-102
   51.7750000000000        -2.194792785638134E-102
   51.9650000000000        -3.135175915463558E-102
   52.1550000000000        -4.280592005826067E-102
   52.3450000000000        -5.601068490148731E-102
   52.5350000000000        -7.017808716977356E-102
   52.7250000000000        -8.381171639517606E-102
   52.9150000000000        -9.444537779094806E-102
   53.1050000000000        -9.835384085927252E-102
   53.2950000000000        -9.026213367770551E-102
   53.4850000000000        -6.309745191427867E-102
   53.6750000000000        -7.849648525157442E-103
   53.8650000000000         8.636845853642930E-102
   54.0550000000000         2.319431714408011E-101
   54.2450000000000         4.419224408761296E-101
   54.4350000000000         7.285607223251869E-101
   54.6250000000000         1.101087621035129E-100
   54.8150000000000         1.562566928662770E-100
   55.0050000000000         2.105774733059204E-100
   55.1950000000000         2.708136010403621E-100
   55.3850000000000         3.325928445904245E-100
   55.5750000000000         3.888195213648054E-100
   55.7650000000000         4.291100872947187E-100
   55.9550000000000         4.393797602537653E-100
   56.1450000000000         4.017203324657353E-100
   56.3350000000000         2.947363232396634E-100
   56.5250000000000         9.451759412133525E-101
   56.7150000000000        -2.235911328049538E-100
   56.9050000000000        -6.823247556124454E-100
   57.0950000000000        -1.298957902455353E-099
   57.2850000000000        -2.081105799176290E-099
   57.4750000000000        -3.022353562599780E-099
   57.6650000000000        -4.098545624811847E-099
   57.8550000000000        -5.265952616342930E-099
   58.0450000000000        -6.462898091567559E-099
   58.2350000000000        -7.616667607599343E-099
   58.4250000000000        -8.657483375549328E-099
   58.6150000000000        -9.540801742324428E-099
   58.8050000000000        -1.027792530002693E-098
   58.9950000000000        -1.097264064780113E-098
   59.1850000000000        -1.185804241296539E-098
   59.3750000000000        -1.332272388885933E-098
   59.5650000000000        -1.590914436058557E-098
   59.7550000000000        -2.025960307310846E-098
   59.9450000000000        -2.697775065761150E-098
   60.1350000000000        -3.636753747607512E-098
   60.3250000000000        -4.800939009783400E-098
   60.5150000000000        -6.013866027335536E-098
   60.7050000000000        -6.880841793493894E-098
   60.8950000000000        -6.685263109457830E-098
   61.0850000000000        -4.272209221690050E-098
   61.2750000000000         2.065120002746482E-098
   61.4650000000000         1.466926014153006E-097
   61.6550000000000         3.653169906334905E-097
   61.8450000000000         7.117851661126808E-097
   62.0350000000000         1.223554117391774E-096
   62.2250000000000         1.934260302100070E-096
   62.4150000000000         2.863922115316532E-096
   62.6050000000000         4.004536651936916E-096
   62.7950000000000         5.300557155416909E-096
   62.9850000000000         6.624363219797267E-096
   63.1750000000000         7.747869191400702E-096
   63.3650000000000         8.312934799252794E-096
   63.5550000000000         7.805282096206756E-096
   63.7450000000000         5.539145231514464E-096
   63.9350000000000         6.627280497142871E-097
   64.1250000000000        -7.802601264489089E-096
   64.3150000000000        -2.087411902060540E-095
   64.5050000000000        -3.945426657082067E-095
   64.6950000000000        -6.409688541540881E-095
   64.8850000000000        -9.468304411330458E-095
   65.0750000000000        -1.300061721551329E-094
   65.2650000000000        -1.672823549361242E-094
   65.4550000000000        -2.016250955375068E-094
   65.6450000000000        -2.255549042674815E-094
   65.8350000000000        -2.286518007137963E-094
   66.0250000000000        -1.975004532955023E-094
   66.2150000000000        -1.161180517928829E-094
   66.4050000000000         3.291405413844604E-095
   66.5950000000000         2.663838739020444E-094
   66.7850000000000         5.972418861062256E-094
   66.9750000000000         1.030126339148372E-093
   67.1650000000000         1.555642027158724E-093
   67.3550000000000         2.143648816736292E-093
   67.5450000000000         2.736147010503076E-093
   67.7350000000000         3.240770944211207E-093
   67.9250000000000         3.526399132927541E-093
   68.1150000000000         3.422911986684632E-093
   68.3050000000000         2.727596872646481E-093
   68.4950000000000         1.220997380129575E-093
   68.6850000000000        -1.305027779243266E-093
   68.8750000000000        -5.004821195003121E-093
   69.0650000000000        -9.921082007384997E-093
   69.2550000000000        -1.591293086095343E-092
   69.4450000000000        -2.257444201199756E-092
   69.6350000000000        -2.915260856272921E-092
   69.8250000000000        -3.447910105166743E-092
   70.0150000000000        -3.693616382434869E-092
   70.2050000000000        -3.448283188465770E-092
   70.3950000000000        -2.477220176898982E-092
   70.5850000000000        -5.392176137461971E-093
   70.7750000000000         2.574105824966420E-092
   70.9650000000000         6.981782843570454E-092
   71.1550000000000         1.263987351962080E-091
   71.3450000000000         1.925390886345796E-091
   71.5350000000000         2.618491432734062E-091
   71.7250000000000         3.236204625060491E-091
   71.9150000000000         3.622127154903426E-091
   72.1050000000000         3.569616243527964E-091
   72.2950000000000         2.829272606992210E-091
   72.4850000000000         1.128375548410071E-091
   72.6750000000000        -1.794245787299068E-091
   72.8650000000000        -6.135134989004168E-091
   73.0550000000000        -1.195376107891768E-090
   73.2450000000000        -1.908225924287102E-090
   73.4350000000000        -2.702290749774576E-090
   73.6250000000000        -3.484416297346207E-090
   73.8150000000000        -4.109244639521263E-090
   74.0050000000000        -4.374382259929703E-090
   74.1950000000000        -4.022640709473103E-090
   74.3850000000000        -2.754942981024967E-090
   74.5750000000000        -2.576659166454217E-091
   74.7650000000000         3.752180066120916E-090
   74.9550000000000         9.461683972232266E-090
   75.1450000000000         1.687659428956895E-089
   75.3350000000000         2.571898054476937E-089
   75.5250000000000         3.531590471149263E-089
   75.7150000000000         4.449282227532118E-089
   75.9050000000000         5.149207425280200E-089
   76.0950000000000         5.394362948285713E-089
   76.2850000000000         4.892113241994617E-089
   76.4750000000000         3.311983682281652E-089
   76.6650000000000         3.192313043158834E-090
   76.8550000000000        -4.372920733744425E-089
   77.0450000000000        -1.093105047735154E-088
   77.2350000000000        -1.931056090951245E-088
   77.4250000000000        -2.915095352333763E-088
   77.6150000000000        -3.966721310172797E-088
   77.8050000000000        -4.955294274660874E-088
   77.9950000000000        -5.691709118071854E-088
   78.1850000000000        -5.928193713809461E-088
   78.3750000000000        -5.367428059266075E-088
   78.5650000000000        -3.684303959043660E-088
   78.7550000000000        -5.632900807496151E-089
   78.9450000000000         4.246655050990038E-088
   79.1350000000000         1.085954147601776E-087
   79.3250000000000         1.916492019193456E-087
   79.5150000000000         2.873212119448800E-087
   79.7050000000000         3.871737811989329E-087
   79.8950000000000         4.779025818882780E-087
   80.0850000000000         5.410095518677656E-087
   80.2750000000000         5.531420861653007E-087
   80.4650000000000         4.873772033523098E-087
   80.6550000000000         3.157154509090870E-087
   80.8450000000000         1.298495217764315E-088
   81.0350000000000        -4.377736090074742E-087
   81.2250000000000        -1.038576677395672E-086
   81.4150000000000        -1.768845727422734E-086
   81.6050000000000        -2.577620012950931E-086
   81.7950000000000        -3.376837119682708E-086
   81.9850000000000        -4.037311997879484E-086
   82.1750000000000        -4.389419471552743E-086
   82.3650000000000        -4.230717379974332E-086
   82.5550000000000        -3.342727314209276E-086
   82.7450000000000        -1.518692999391309E-086
   82.9350000000000         1.396762556973262E-086
   83.1250000000000         5.456667163676650E-086
   83.3150000000000         1.055217818995652E-085
   83.5050000000000         1.635009579424403E-085
   83.6950000000000         2.223633461827732E-085
   83.8850000000000         2.727784158564985E-085
   84.0750000000000         3.021876516791129E-085
   84.2650000000000         2.952908233356411E-085
   84.4550000000000         2.352451062267336E-085
   84.6450000000000         1.057436207019361E-085
   84.8350000000000        -1.059204151913457E-085
   85.0250000000000        -4.048067189117771E-085
   85.2150000000000        -7.834657553656031E-085
   85.4050000000000        -1.216651357718348E-084
   85.5950000000000        -1.656271796289422E-084
   85.7850000000000        -2.027549753821606E-084
   85.9750000000000        -2.227669286889703E-084
   86.1650000000000        -2.128447247304268E-084
   86.3550000000000        -1.584711477499967E-084
   86.5450000000000        -4.500164287245820E-085
   86.7350000000000         1.399013976363116E-084
   86.9250000000000         4.029150751792687E-084
   87.1150000000000         7.408456174112681E-084
   87.3050000000000         1.135794409090787E-083
   87.4950000000000         1.550155834822064E-083
   87.6850000000000         1.922167677546228E-083
   87.8750000000000         2.163024084676837E-083
   88.0650000000000         2.156841794434409E-083
   88.2550000000000         1.764994815224248E-083
   88.4450000000000         8.364380810085576E-084
   88.6350000000000        -7.744498227699408E-084
   88.8250000000000        -3.181346448322953E-083
   89.0150000000000        -6.430368401370240E-083
   89.2050000000000        -1.045611861258966E-082
   89.3950000000000        -1.503182701068301E-082
   89.5850000000000        -1.971816484600010E-082
   89.7750000000000        -2.381787055432924E-082
   89.9650000000000        -2.634611441394249E-082
   90.1550000000000        -2.602925538353060E-082
   90.3450000000000        -2.134687516012314E-082
   90.5350000000000        -1.063313979074855E-082
   90.7250000000000         7.747060737751298E-083
   90.9150000000000         3.513489720612028E-082
   91.1050000000000         7.222152513243594E-082
   91.2950000000000         1.186039574862700E-081
   91.4850000000000         1.722728653262544E-081
   91.6750000000000         2.290721159345974E-081
   91.8650000000000         2.821938190427078E-081
   92.0550000000000         3.217993769698541E-081
   92.2450000000000         3.348841117714917E-081
   92.4350000000000         3.055268500387985E-081
   92.6250000000000         2.156814778571832E-081
   92.8150000000000         4.666881119924095E-082
   93.0050000000000        -2.184929154665213E-081
   93.1950000000000        -5.918295673387545E-081
   93.3850000000000        -1.076220195410735E-080
   93.5750000000000        -1.660395781362511E-080
   93.7650000000000        -2.313420422253562E-080
   93.9550000000000        -2.979160376297575E-080
   94.1450000000000        -3.571492059202108E-080
   94.3350000000000        -3.971261215308060E-080
   94.5250000000000        -4.026254226205256E-080
   94.7150000000000        -3.555639644126198E-080
   94.9050000000000        -2.360432949908294E-080
   95.0950000000000        -2.414697288623138E-081
   95.2850000000000         2.973925025301521E-080
   95.4750000000000         7.395978449962889E-080
   95.6650000000000         1.302758049215060E-079
   95.8550000000000         1.971216985005292E-079
   96.0450000000000         2.707785176096614E-079
   96.2350000000000         3.448331356534436E-079
   96.4250000000000         4.097346168142794E-079
   96.6150000000000         4.525511654735799E-079
   96.8050000000000         4.570528226127642E-079
   96.9950000000000         4.042606687915493E-079
   97.1850000000000         2.736078431592214E-079
   97.3750000000000         4.484560791190429E-080
   97.5650000000000        -2.992069835171400E-079
   97.7550000000000        -7.690342561030929E-079
   97.9450000000000        -1.363976372567918E-078
   98.1350000000000        -2.067155116437545E-078
   98.3250000000000        -2.840131366139252E-078
   98.5150000000000        -3.617848123592124E-078
   98.7050000000000        -4.304625877227932E-078
   98.8950000000000        -4.772188306407799E-078
   99.0850000000000        -4.860878583152618E-078
   99.2750000000000        -4.385344196027225E-078
   99.4650000000000        -3.145978244917174E-078
   99.6550000000000        -9.472591569452173E-079
   99.8450000000000         2.376221198965102E-078
   100.035000000000         6.925854959424253E-078
   100.225000000000         1.269794576233283E-077
   100.415000000000         1.953736199185799E-077
   100.605000000000         2.708928645021042E-077
   100.795000000000         3.475413279611544E-077
   100.985000000000         4.165251157393675E-077
   101.175000000000         4.660888067935118E-077
   101.365000000000         4.816396722792376E-077
   101.555000000000         4.462689578264628E-077
   101.745000000000         3.417784257005094E-077
   101.935000000000         1.503056314122616E-077
   102.125000000000        -1.433908262778189E-077
   102.315000000000        -5.489780754900082E-077
   102.505000000000        -1.066996393070441E-076
   102.695000000000        -1.684876553599426E-076
   102.885000000000        -2.372819004110154E-076
   103.075000000000        -3.079965873559249E-076
   103.265000000000        -3.731442700596010E-076
   103.455000000000        -4.226984873316941E-076
   103.645000000000        -4.441974552665308E-076
   103.835000000000        -4.231772958610646E-076
   104.025000000000        -3.440212168706795E-076
   104.215000000000        -1.912979791282538E-076
   104.405000000000         4.836405166463827E-077
   104.595000000000         3.838644845904782E-076
   104.785000000000         8.167389172400095E-076
   104.975000000000         1.337925980924773E-075
   105.165000000000         1.924428085164603E-075
   105.355000000000         2.536208277536027E-075
   105.545000000000         3.113777273274080E-075
   105.735000000000         3.577028896867930E-075
   105.925000000000         3.825963928386117E-075
   106.115000000000         3.743983317021152E-075
   106.305000000000         3.204411003024550E-075
   106.495000000000         2.080802091725487E-075
   106.685000000000         2.613826581838364E-076
   106.875000000000        -2.332364500843756E-075
   107.065000000000        -5.723418753029765E-075
   107.255000000000        -9.854293001229316E-075
   107.445000000000        -1.456121919440948E-074
   107.635000000000        -1.955000485299398E-074
   107.825000000000        -2.437693616158899E-074
   108.015000000000        -2.843886231383050E-074
   108.205000000000        -3.097718702980720E-074
   108.395000000000        -3.110078526565537E-074
   108.585000000000        -2.783270791063863E-074
   108.775000000000        -2.018477967812869E-074
   108.965000000000        -7.262688221115064E-075
   109.155000000000         1.159821432213131E-074
   109.345000000000         3.666949191363874E-074
   109.535000000000         6.764592826869871E-074
   109.725000000000         1.034539571854537E-073
   109.915000000000         1.420702545814541E-073
   110.105000000000         1.803743238641530E-073