  -1.42500000000000         0.000000000000000E+000
  -1.23500000000000         0.000000000000000E+000
  -1.04500000000000         0.000000000000000E+000
 -0.855000000000000         0.000000000000000E+000
 -0.665000000000000         0.000000000000000E+000
 -0.475000000000000         0.000000000000000E+000
 -0.285000000000000         0.000000000000000E+000
 -9.499999999999975E-002    0.000000000000000E+000
  9.500000000000020E-002    0.000000000000000E+000
  0.285000000000000         0.000000000000000E+000
  0.475000000000000         0.000000000000000E+000
  0.665000000000000         0.000000000000000E+000
  0.855000000000000         0.000000000000000E+000
   1.04500000000000         0.000000000000000E+000
   1.23500000000000         0.000000000000000E+000
   1.42500000000000         0.000000000000000E+000
   1.61500000000000         0.000000000000000E+000
   1.80500000000000         0.000000000000000E+000
   1.99500000000000         0.000000000000000E+000
   2.18500000000000         0.000000000000000E+000
   2.37500000000000         0.000000000000000E+000
   2.56500000000000         0.000000000000000E+000
   2.75500000000000         0.000000000000000E+000
   2.94500000000000         0.000000000000000E+000
   3.13500000000000         0.000000000000000E+000
   3.32500000000000         0.000000000000000E+000
   3.51500000000000         0.000000000000000E+000
   3.70500000000000         0.000000000000000E+000
   3.89500000000000         0.000000000000000E+000
   4.08500000000000         0.000000000000000E+000
   4.27500000000000         0.000000000000000E+000
   4.46500000000000         0.000000000000000E+000
   4.65500000000000         0.000000000000000E+000
   4.84500000000000         0.000000000000000E+000
   5.03500000000000         0.000000000000000E+000
   5.22500000000000         0.000000000000000E+000
   5.41500000000000         0.000000000000000E+000
   5.60500000000000         0.000000000000000E+000
   5.79500000000000         0.000000000000000E+000
   5.98500000000000         0.000000000000000E+000
   6.17500000000000         0.000000000000000E+000
   6.36500000000000         0.000000000000000E+000
   6.55500000000000         0.000000000000000E+000
   6.74500000000000         0.000000000000000E+000
   6.93500000000000         1.624245030976377E-190
   7.12500000000000        -7.240407093256647E-187
   7.31500000000000         9.663773632476068E-185
   7.50500000000000        -3.255593721269683E-181
   7.69500000000000        -2.979131777693224E-179
   7.88500000000000        -1.382845347236035E-177
   8.07500000000000        -4.366101068920764E-176
   8.26500000000000        -1.054357090499064E-174
   8.45500000000000        -2.073753587462153E-173
   8.64500000000000        -3.453715692440975E-172
   8.83500000000000        -5.000213429232290E-171
   9.02500000000000        -6.413263129944941E-170
   9.21500000000000        -7.392055547622197E-169
   9.40500000000000        -7.743171889090338E-168
   9.59500000000000        -7.438452821249868E-167
   9.78500000000000        -6.602764472327249E-166
   9.97500000000000        -5.450210553554543E-165
   10.1650000000000        -4.206490782852552E-164
   10.3550000000000        -3.050082761067699E-163
   10.5450000000000        -2.086429933792373E-162
   10.7350000000000        -1.351467129261216E-161
   10.9250000000000        -8.316734427734539E-161
   11.1150000000000        -4.876806715701453E-160
   11.3050000000000        -2.732234297638776E-159
   11.4950000000000        -1.466074748391348E-158
   11.6850000000000        -7.551132281483334E-158
   11.8750000000000        -3.740809332262119E-157
   12.0650000000000        -1.785763881935761E-156
   12.2550000000000        -8.228697324641322E-156
   12.4450000000000        -3.665842712652517E-155
   12.6350000000000        -1.581208398203268E-154
   12.8250000000000        -6.612551090594130E-154
   13.0150000000000        -2.684514326334585E-153
   13.2050000000000        -1.059242739950664E-152
   13.3950000000000        -4.066704228972740E-152
   13.5850000000000        -1.520766057749110E-151
   13.7750000000000        -5.544781546696427E-151
   13.9650000000000        -1.972944051138035E-150
   14.1550000000000        -6.857066641891946E-150
   14.3450000000000        -2.329813085605917E-149
   14.5350000000000        -7.744820203794734E-149
   14.7250000000000        -2.520819171150602E-148
   14.9150000000000        -8.039518853627384E-148
   15.1050000000000        -2.514089779815281E-147
   15.2950000000000        -7.714103840959993E-147
   15.4850000000000        -2.323933300200552E-146
   15.6750000000000        -6.878015296309365E-146
   15.8650000000000        -2.001060728696082E-145
   16.0550000000000        -5.726113807928974E-145
   16.2450000000000        -1.612484731424341E-144
   16.4350000000000        -4.470835392146349E-144
   16.6250000000000        -1.221092160440187E-143
   16.8150000000000        -3.286786112578893E-143
   17.0050000000000        -8.722500615888949E-143
   17.1950000000000        -2.283109658843340E-142
   17.3850000000000        -5.896363663391235E-142
   17.5750000000000        -1.502984926947188E-141
   17.7650000000000        -3.782374407721187E-141
   17.9550000000000        -9.399963989593261E-141
   18.1450000000000        -2.307479386279735E-140
   18.3350000000000        -5.596082590204455E-140
   18.5250000000000        -1.341025429625087E-139
   18.7150000000000        -3.175826538943788E-139
   18.9050000000000        -7.433495398974668E-139
   19.0950000000000        -1.719832988837084E-138
   19.2850000000000        -3.933404795802290E-138
   19.4750000000000        -8.893353440190282E-138
   19.6650000000000        -1.987908820384856E-137
   19.8550000000000        -4.393145575604402E-137
   20.0450000000000        -9.598695070921346E-137
   20.2350000000000        -2.073529248361288E-136
   20.4250000000000        -4.428604959997547E-136
   20.6150000000000        -9.351286639077800E-136
   20.8050000000000        -1.952092153232879E-135
   20.9950000000000        -4.028224746299839E-135
   21.1850000000000        -8.215754409933392E-135
   21.3750000000000        -1.655784994134717E-134
   21.5650000000000        -3.296392234451679E-134
   21.7550000000000        -6.479531142959227E-134
   21.9450000000000        -1.256668136095803E-133
   22.1350000000000        -2.402423707680608E-133
   22.3250000000000        -4.521035016014501E-133
   22.5150000000000        -8.358831005634073E-133
   22.7050000000000        -1.514141548153234E-132
   22.8950000000000        -2.676244676298656E-132
   23.0850000000000        -4.586788107032811E-132
   23.2750000000000        -7.545880984583079E-132
   23.4650000000000        -1.170338072322464E-131
   23.6550000000000        -1.649346118874100E-131
   23.8450000000000        -1.916329970730339E-131
   24.0350000000000        -1.126184208864747E-131
   24.2250000000000         2.926643067077271E-131
   24.4150000000000         1.551134498291685E-130
   24.6050000000000         4.849718706032775E-130
   24.7950000000000         1.274590823781374E-129
   24.9850000000000         3.055183538793057E-129
   25.1750000000000         6.894848939383343E-129
   25.3650000000000         1.487674450348292E-128
   25.5550000000000         3.094352035453222E-128
   25.7450000000000         6.232903745615502E-128
   25.9350000000000         1.218659489611121E-127
   26.1250000000000         2.314563214619798E-127
   26.3150000000000         4.267534250335583E-127
   26.5050000000000         7.622362406396630E-127
   26.6950000000000         1.313526131210564E-126
   26.8850000000000         2.168289002248222E-126
   27.0750000000000         3.385047031528336E-126
   27.2650000000000         4.874398902846796E-126
   27.4550000000000         6.108044708103481E-126
   27.6450000000000         5.467375137965067E-126
   27.8350000000000        -1.129419690849247E-126
   28.0250000000000        -2.299196637170345E-125
   28.2150000000000        -8.002089237186106E-125
   28.4050000000000        -2.127786152004772E-124
   28.5950000000000        -5.008421489634612E-124
   28.7850000000000        -1.095299313373026E-123
   28.9750000000000        -2.274646324769136E-123
   29.1650000000000        -4.538058985436354E-123
   29.3550000000000        -8.755892018672943E-123
   29.5450000000000        -1.640319171589921E-122
   29.7350000000000        -2.990464812013883E-122
   29.9250000000000        -5.311080591577752E-122
   30.1150000000000        -9.188848942552347E-122
   30.3050000000000        -1.547093459324545E-121
   30.4950000000000        -2.528947807339039E-121
   30.6850000000000        -3.997059160078993E-121
   30.8750000000000        -6.065465740578409E-121
   31.0650000000000        -8.728219474308128E-121
   31.2550000000000        -1.162878614071705E-120
   31.4450000000000        -1.357997005063013E-120
   31.6350000000000        -1.162136889957479E-120
   31.8250000000000         7.518512828359863E-122
   32.0150000000000         3.680130900130298E-120
   32.2050000000000         1.221956939604509E-119
   32.3950000000000         3.046769462039311E-119
   32.5850000000000         6.701674273991549E-119
   32.7750000000000         1.368923979039478E-118
   32.9650000000000         2.656895511218871E-118
   33.1550000000000         4.959303838167329E-118
   33.3450000000000         8.965371710579673E-118
   33.5350000000000         1.576436796576175E-117
   33.7250000000000         2.703223244949598E-117
   33.9150000000000         4.527208931921420E-117
   34.1050000000000         7.409571067778791E-117
   34.2950000000000         1.184974004077801E-116
   34.4850000000000         1.850018338939675E-116
   34.6750000000000         2.814391607662979E-116
   34.8650000000000         4.158772062892180E-116
   35.0550000000000         5.938668629938031E-116
   35.2450000000000         8.125538175681187E-116
   35.4350000000000         1.049269172874938E-115
   35.6250000000000         1.240792064455234E-115
   35.8150000000000         1.247408039776766E-115
   36.0050000000000         7.929834956744255E-116
   36.1950000000000        -6.316169847137750E-116
   36.3850000000000        -3.919368869367309E-115
   36.5750000000000        -1.057550765751729E-114
   36.7650000000000        -2.305261622981994E-114
   36.9550000000000        -4.522550671125794E-114
   37.1450000000000        -8.303793966055947E-114
   37.3350000000000        -1.453409377610975E-113
   37.5250000000000        -2.449087827867559E-113
   37.7150000000000        -3.995474866356160E-113
   37.9050000000000        -6.330767550622499E-113
   38.0950000000000        -9.757337146501472E-113
   38.2850000000000        -1.463163444420616E-112
   38.4750000000000        -2.132558083544762E-112
   38.6650000000000        -3.013593746144606E-112
   38.8550000000000        -4.110485586472158E-112
   39.0450000000000        -5.369619728504532E-112
   39.2350000000000        -6.624720963626794E-112
   39.4250000000000        -7.508322054616318E-112
   39.6150000000000        -7.314478373279587E-112
   39.8050000000000        -4.793516230618710E-112
   39.9950000000000         2.144184732001410E-112
   40.1850000000000         1.684043468214936E-111
   40.3750000000000         4.444051335702243E-111
   40.5650000000000         9.259645500700821E-111
   40.7550000000000         1.723112559225052E-110
   40.9450000000000         2.988659619187754E-110
   41.1350000000000         4.926890904476344E-110
   41.3250000000000         7.798925916332233E-110
   41.5150000000000         1.191988148545725E-109
   41.7050000000000         1.763984371795764E-109
   41.8950000000000         2.529617404009486E-109
   42.0850000000000         3.511851343651118E-109
   42.2750000000000         4.705972219251175E-109
   42.4650000000000         6.051577166406765E-109
   42.6550000000000         7.388549822815630E-109
   42.8450000000000         8.390796232643933E-109
   43.0350000000000         8.470278276743477E-109
   43.2250000000000         6.643071304323324E-109
   43.4150000000000         1.349379045860453E-109
   43.6050000000000        -9.778400633048195E-109
   43.7950000000000        -3.019993496367432E-108
   43.9850000000000        -6.479296677317437E-108
   44.1750000000000        -1.201912868494995E-107
   44.3650000000000        -2.050735983320307E-107
   44.5550000000000        -3.302940125116019E-107
   44.7450000000000        -5.086739588823551E-107
   44.9350000000000        -7.541749926907369E-107
   45.1250000000000        -1.080035756631757E-106
   45.3150000000000        -1.495279002579045E-106
   45.5050000000000        -1.998774706428098E-106
   45.6950000000000        -2.569789187356318E-106
   45.8850000000000        -3.153677581142871E-106
   46.0750000000000        -3.641129816116578E-106
   46.2650000000000        -3.839233820393209E-106
   46.4550000000000        -3.432698315880958E-106
   46.6450000000000        -1.934073174233447E-106
   46.8350000000000         1.377000784772761E-106
   47.0250000000000         7.523195486208097E-106
   47.2150000000000         1.790133578739033E-105
   47.4050000000000         3.434428279119891E-105
   47.5950000000000         5.915122918056719E-105
   47.7850000000000         9.505162339584208E-105
   47.9750000000000         1.450500716614420E-104
   48.1650000000000         2.120764493873563E-104
   48.3550000000000         2.983371712253203E-104
   48.5450000000000         4.042313567640604E-104
   48.7350000000000         5.266626256954718E-104
   48.9250000000000         6.565495183528886E-104
   49.1150000000000         7.753253160638433E-104
   49.3050000000000         8.502372795963588E-104
   49.4950000000000         8.283292809994020E-104
   49.6850000000000         6.291524701639411E-104
   49.8750000000000         1.365376016276292E-104
   50.0650000000000        -8.097692134261597E-104
   50.2550000000000        -2.421100800261218E-103
   50.4450000000000        -4.962987327140259E-103
   50.6350000000000        -8.750551503393201E-103
   50.8250000000000        -1.413063136260185E-102
   51.0150000000000        -2.144305650237752E-102
   51.2050000000000        -3.095128684968614E-102
   51.3950000000000        -4.273048843868385E-102
   51.5850000000000        -5.649954538400565E-102
   51.7750000000000        -7.138323854495150E-102
   51.9650000000000        -8.559294397261086E-102
   52.1550000000000        -9.602019351327396E-102
   52.3450000000000        -9.774918091372622E-102
   52.5350000000000        -8.351403842622881E-102
   52.7250000000000        -4.315691413389358E-102
   52.9150000000000         3.681407833718081E-102
   53.1050000000000         1.734103208956231E-101
   53.2950000000000         3.868622186495782E-101
   53.4850000000000         6.995179528190920E-101
   53.6750000000000         1.133534298914551E-100
   53.8650000000000         1.706864959169003E-100
   54.0550000000000         2.426988830852491E-100
   54.2450000000000         3.281811086601216E-100
   54.4350000000000         4.227254319547134E-100
   54.6250000000000         5.171287796164867E-100
   54.8150000000000         5.954583646467324E-100
   55.0050000000000         6.328710623893509E-100
   55.1950000000000         5.933849778876168E-100
   55.3850000000000         4.279499977222856E-100
   55.5750000000000         7.335603764188435E-101
   55.7650000000000        -5.472501589852534E-100
   55.9550000000000        -1.521209144113578E-099
   56.1450000000000        -2.939262274010920E-099
   56.3350000000000        -4.883024946875713E-099
   56.5250000000000        -7.405401294357524E-099
   56.7150000000000        -1.050241528803537E-098
   56.9050000000000        -1.407534738456588E-098
   57.0950000000000        -1.788294365790581E-098
   57.2850000000000        -2.148496298668211E-098
   57.4750000000000        -2.418060091235116E-098
   57.6650000000000        -2.494849737492736E-098
   57.8550000000000        -2.239914600924672E-098
   58.0450000000000        -1.475548998111443E-098
   58.2350000000000         1.169733256438076E-100
   58.4250000000000         2.460371801059941E-098
   58.6150000000000         6.112687928378142E-098
   58.8050000000000         1.117893385568917E-097
   58.9950000000000         1.778452871909227E-097
   59.1850000000000         2.589736712894128E-097
   59.3750000000000         3.523483788615156E-097
   59.5650000000000         4.515284246807306E-097
   59.7550000000000         5.452352303430406E-097
   59.9450000000000         6.161440065813373E-097
   60.1350000000000         6.398921067631472E-097
   60.3250000000000         5.845961206562975E-097
   60.5150000000000         4.112644608586507E-097
   60.7050000000000         7.558095307664716E-098
   60.8950000000000        -4.684013768475822E-097
   61.0850000000000        -1.262104706865656E-096
   61.2750000000000        -2.333329753454262E-096
   61.4650000000000        -3.683935433488027E-096
   61.6550000000000        -5.274375601210396E-096
   61.8450000000000        -7.005743274665167E-096
   62.0350000000000        -8.700776973104271E-096
   62.2250000000000        -1.008632742655507E-095
   62.4150000000000        -1.078103235834159E-095
   62.6050000000000        -1.029331237677447E-095
   62.7950000000000        -8.036117343349779E-096
   62.9850000000000        -3.365863046427233E-096
   63.1750000000000         4.346657337052341E-096
   63.3650000000000         1.560638633640420E-095
   63.5550000000000         3.064059813840962E-095
   63.7450000000000         4.920215526589042E-095
   63.9350000000000         7.033712875934405E-095
   64.1250000000000         9.213519785811956E-095
   64.3150000000000         1.114952019858233E-094
   64.5050000000000         1.239549370070574E-094
   64.6950000000000         1.236525111175242E-094
   64.8850000000000         1.035040201129802E-094
   65.0750000000000         5.569544229048960E-095
   65.2650000000000        -2.740940346706062E-095
   65.4550000000000        -1.518544689032032E-094
   65.6450000000000        -3.201144359293461E-094
   65.8350000000000        -5.285632379197871E-094
   66.0250000000000        -7.644979354554630E-094
   66.2150000000000        -1.002970892939458E-093
   66.4050000000000        -1.203867698075112E-093
   66.5950000000000        -1.309886465373881E-093
   66.7850000000000        -1.246307956747293E-093
   66.9750000000000        -9.236637157208651E-094
   67.1650000000000        -2.445635651423198E-094
   67.3550000000000         8.840302609989945E-094
   67.5450000000000         2.531977764110819E-093
   67.7350000000000         4.719962592281546E-093
   67.9250000000000         7.386573270213708E-093
   68.1150000000000         1.035006331831920E-092
   68.3050000000000         1.326824858494561E-092
   68.4950000000000         1.560235021445983E-092
   68.6850000000000         1.659331180235107E-092
   68.8750000000000         1.526195414652690E-092
   69.0650000000000         1.044685744911372E-092
   69.2550000000000         8.954646539833249E-094
   69.4450000000000        -1.457622758366708E-092
   69.6350000000000        -3.684285560504834E-092
   69.8250000000000        -6.614181915001704E-092
   70.0150000000000        -1.016638131394000E-091
   70.2050000000000        -1.410841796717148E-091
   70.3950000000000        -1.800802913655061E-091
   70.5850000000000        -2.119082071595340E-091
   70.7750000000000        -2.271432799595226E-091
   70.9650000000000        -2.137207960860077E-091
   71.1550000000000        -1.574387127166987E-091
   71.3450000000000        -4.309766922338839E-092
   71.5350000000000         1.435557461175623E-091
   71.7250000000000         4.129588558383962E-091
   71.9150000000000         7.678990233588665E-091
   72.1050000000000         1.198820222448055E-090
   72.2950000000000         1.678575545820776E-090
   72.4850000000000         2.157191856870161E-090
   72.6750000000000         2.557521269952651E-090
   72.8650000000000         2.772984263123233E-090
   73.0550000000000         2.668916798394915E-090
   73.2450000000000         2.089254314497021E-090
   73.4350000000000         8.703339280250146E-091
   73.6250000000000        -1.136629270982138E-090
   73.8150000000000        -4.033445931672317E-090
   74.0050000000000        -7.833389875434049E-090
   74.1950000000000        -1.241199067645996E-089
   74.3850000000000        -1.745426259073818E-089
   74.5750000000000        -2.240523858205851E-089
   74.7650000000000        -2.643380419882719E-089
   74.9550000000000        -2.842294097539789E-089
   75.1450000000000        -2.700205643429850E-089
   75.3350000000000        -2.063836540630611E-089
   75.5250000000000        -7.803387129122447E-090
   75.7150000000000         1.277348870495012E-089
   75.9050000000000         4.176076081368302E-089
   76.0950000000000         7.879972826442491E-089
   76.2850000000000         1.220273445508252E-088
   76.4750000000000         1.676000206783758E-088
   76.6650000000000         2.092995453208636E-088
   76.8550000000000         2.383317013363525E-088
   77.0450000000000         2.434544655390042E-088
   77.2350000000000         2.115897209571756E-088
   77.4250000000000         1.290722991370052E-088
   77.6150000000000        -1.633629403062683E-089
   77.8050000000000        -2.326045780738882E-088
   77.9950000000000        -5.198004904938451E-088
   78.1850000000000        -8.658733611334179E-088
   78.3750000000000        -1.242256744507017E-087
   78.5650000000000        -1.599951407806115E-087
   78.7550000000000        -1.867021741870805E-087
   78.9450000000000        -1.948701694934812E-087
   79.1350000000000        -1.731507597419385E-087
   79.3250000000000        -1.092827931345475E-087
   79.5150000000000         8.267704155935508E-089
   79.7050000000000         1.878969340722016E-087
   79.8950000000000         4.316747643638124E-087
   80.0850000000000         7.314987823558195E-087
   80.2750000000000         1.064888179169237E-086
   80.4650000000000         1.390936717411084E-086
   80.6550000000000         1.647198972895098E-086
   80.8450000000000         1.748547368966536E-086
   81.0350000000000         1.589270435995746E-086
   81.2250000000000         1.049830939698655E-086
   81.4150000000000         9.696933195733053E-089
   81.6050000000000        -1.632581122623994E-086
   81.7950000000000        -3.931433273786381E-086
   81.9850000000000        -6.858816037344348E-086
   82.1750000000000        -1.026299480258441E-085
   82.3650000000000        -1.382519280415734E-085
   82.5550000000000        -1.702002594795911E-085
   82.7450000000000        -1.908819770154936E-085
   82.9350000000000        -1.903248530158727E-085
   83.1250000000000        -1.565020824676261E-085
   83.3150000000000        -7.616589949650007E-086
   83.5050000000000         6.366971177765138E-086
   83.6950000000000         2.734848466034486E-085
   83.8850000000000         5.581953107962300E-085
   84.0750000000000         9.133259552293418E-085
   84.2650000000000         1.320604180644727E-084
   84.4550000000000         1.743349352807547E-084
   84.6450000000000         2.122260337964780E-084
   84.8350000000000         2.372454943813566E-084
   85.0250000000000         2.382866913753680E-084
   85.2150000000000         2.019321105566993E-084
   85.4050000000000         1.132735458546371E-084
   85.5950000000000        -4.261228250022773E-085
   85.7850000000000        -2.784140802143796E-084
   85.9750000000000        -6.014972437865009E-084
   86.1650000000000        -1.010000731619211E-083
   86.3550000000000        -1.488275100379997E-083
   86.5450000000000        -2.001990696996393E-083
   86.7350000000000        -2.493457132561672E-083
   86.9250000000000        -2.877934846564232E-083
   87.1150000000000        -3.041966442479449E-083
   87.3050000000000        -2.844978464919590E-083
   87.4950000000000        -2.125560842561034E-083
   87.6850000000000        -7.138677627265777E-084
   87.8750000000000         1.548562175576634E-083
   88.0650000000000         4.780664042258015E-083
   88.2550000000000         9.025189774493073E-083
   88.4450000000000         1.420441914655720E-082
   88.6350000000000         2.007059090980048E-082
   88.8250000000000         2.615525792599609E-082
   89.0150000000000         3.172393441217525E-082
   89.2050000000000         3.574473850558555E-082
   89.3950000000000         3.688200915948871E-082
   89.5850000000000         3.352776485332967E-082
   89.7750000000000         2.388494499310940E-082
   89.9650000000000         6.116116006599509E-083
   90.1550000000000        -2.143084730976021E-082
   90.3450000000000        -5.991327606798059E-082
   90.5350000000000        -1.096013253660964E-081
   90.7250000000000        -1.694147993931319E-081
   90.9150000000000        -2.364160822687004E-081
   91.1050000000000        -3.053042192215488E-081
   91.2950000000000        -3.679759031241042E-081
   91.4850000000000        -4.132409351141463E-081
   91.6750000000000        -4.268003916701947E-081
   91.8650000000000        -3.916121283701321E-081
   92.0550000000000        -2.887764100189301E-081
   92.2450000000000        -9.906966124455463E-082
   92.4350000000000         1.947686263093963E-081
   92.6250000000000         6.049371888476863E-081
   92.8150000000000         1.134678402833061E-080
   93.0050000000000         1.773709807635813E-080
   93.1950000000000         2.493242312393650E-080
   93.3850000000000         3.241014197008835E-080
   93.5750000000000         3.936961190053769E-080
   93.7650000000000         4.470343432592952E-080
   93.9550000000000         4.699339767707498E-080
   94.1450000000000         4.454270719304367E-080
   94.3350000000000         3.545688416267965E-080
   94.5250000000000         1.778532712265241E-080
   94.7150000000000        -1.026648389820489E-080
   94.9050000000000        -5.004826150784516E-080
   95.0950000000000        -1.021004026463814E-079
   95.2850000000000        -1.657238782710604E-079
   95.4750000000000        -2.385070713206202E-079
   95.6650000000000        -3.158472134199347E-079
   95.8550000000000        -3.905212915855281E-079
   96.0450000000000        -4.523795110828932E-079
   96.2350000000000        -4.882518764906377E-079
   96.4250000000000        -4.821727939643599E-079
   96.6150000000000        -4.160367427685552E-079
   96.8050000000000        -2.707963635124996E-079
   96.9950000000000        -2.829870386016587E-080
   97.1850000000000         3.261783171876004E-079
   97.3750000000000         8.006827446753511E-079
   97.5650000000000         1.392712607885669E-078
   97.7550000000000         2.084887370365741E-078
   97.9450000000000         2.840478067497310E-078
   98.1350000000000         3.599258238245185E-078
   98.3250000000000         4.274299232758035E-078
   98.5150000000000         4.750491186192938E-078
   98.7050000000000         4.885704804558117E-078
   98.8950000000000         4.515593271883447E-078
   99.0850000000000         3.463037066833361E-078
   99.2750000000000         1.553122582769122E-078
   99.4650000000000        -1.365717694095447E-078
   99.6550000000000        -5.394223424472731E-078
   99.8450000000000        -1.054896121612517E-077
   100.035000000000        -1.672447488829341E-077
   100.225000000000        -2.365338476881608E-077
   100.415000000000        -3.086816090032077E-077
   100.605000000000        -3.766966957475764E-077
   100.795000000000        -4.310895433504944E-077
   100.985000000000        -4.598989856712961E-077
   101.175000000000        -4.490121682822596E-077
   101.365000000000        -3.828638345445165E-077
   101.555000000000        -2.455934650813275E-077
   101.745000000000        -2.271899201362287E-078
   101.935000000000         2.966488449937327E-077
   102.125000000000         7.170791317247931E-077
   102.315000000000         1.233677839732105E-076
   102.505000000000         1.828714088454690E-076
   102.695000000000         2.468302418789447E-076
   102.885000000000         3.099538957715374E-076
   103.075000000000         3.648600465313151E-076
   103.265000000000         4.020413778283132E-076
   103.455000000000         4.100572814971231E-076
   103.645000000000         3.760201550569392E-076
   103.835000000000         2.864412351218856E-076
   104.025000000000         1.284867161752155E-076
   104.215000000000        -1.083306818149918E-076
   104.405000000000        -4.300381738502971E-076
   104.595000000000        -8.357334106544683E-076
   104.785000000000        -1.314891069126971E-075
   104.975000000000        -1.844655055216160E-075
   105.165000000000        -2.387410592322463E-075
   105.355000000000        -2.889015895781387E-075
   105.545000000000        -3.278149990324199E-075
   105.735000000000        -3.467289626886276E-075
   105.925000000000        -3.355849984240287E-075
   106.115000000000        -2.835995046962124E-075
   106.305000000000        -1.801527875589603E-075
   106.495000000000        -1.600931825251551E-076
   106.685000000000         2.151347324971876E-075
   106.875000000000         5.148178731303458E-075
   107.065000000000         8.777818112760996E-075
   107.255000000000         1.289885785915963E-074
   107.445000000000         1.726171384925926E-074
   107.635000000000         2.149344567117966E-074
   107.825000000000         2.508998375866499E-074
   108.015000000000         2.741943211844414E-074
   108.205000000000         2.774031843451102E-074
   108.395000000000         2.523852785671336E-074
   108.585000000000         1.908607126753320E-074
   108.775000000000         8.523698905275738E-075
   108.965000000000        -7.032407680320201E-075
   109.155000000000        -2.786209464632764E-074
   109.345000000000        -5.379621269486004E-074
   109.535000000000        -8.406420775875409E-074
   109.725000000000        -1.171475664179492E-073
   109.915000000000        -1.506566346698050E-073
   110.105000000000        -1.812523412879567E-073