  -1.42500000000000         0.000000000000000E+000
  -1.23500000000000         0.000000000000000E+000
  -1.04500000000000         0.000000000000000E+000
 -0.855000000000000         0.000000000000000E+000
 -0.665000000000000         0.000000000000000E+000
 -0.475000000000000         0.000000000000000E+000
 -0.285000000000000         0.000000000000000E+000
 -9.499999999999975E-002    0.000000000000000E+000
  9.500000000000020E-002    0.000000000000000E+000
  0.285000000000000         0.000000000000000E+000
  0.475000000000000         0.000000000000000E+000
  0.665000000000000         0.000000000000000E+000
  0.855000000000000         0.000000000000000E+000
   1.04500000000000         0.000000000000000E+000
   1.23500000000000         0.000000000000000E+000
   1.42500000000000         0.000000000000000E+000
   1.61500000000000         0.000000000000000E+000
   1.80500000000000         0.000000000000000E+000
   1.99500000000000         0.000000000000000E+000
   2.18500000000000         0.000000000000000E+000
   2.37500000000000         0.000000000000000E+000
   2.56500000000000         0.000000000000000E+000
   2.75500000000000         0.000000000000000E+000
   2.94500000000000         0.000000000000000E+000
   3.13500000000000         0.000000000000000E+000
   3.32500000000000         0.000000000000000E+000
   3.51500000000000         0.000000000000000E+000
   3.70500000000000         0.000000000000000E+000
   3.89500000000000         0.000000000000000E+000
   4.08500000000000         0.000000000000000E+000
   4.27500000000000         0.000000000000000E+000
   4.46500000000000         0.000000000000000E+000
   4.65500000000000         0.000000000000000E+000
   4.84500000000000         0.000000000000000E+000
   5.03500000000000         0.000000000000000E+000
   5.22500000000000         0.000000000000000E+000
   5.41500000000000         0.000000000000000E+000
   5.60500000000000         0.000000000000000E+000
   5.79500000000000         0.000000000000000E+000
   5.98500000000000         0.000000000000000E+000
   6.17500000000000         0.000000000000000E+000
   6.36500000000000         0.000000000000000E+000
   6.55500000000000         0.000000000000000E+000
   6.74500000000000         6.282373423819109E-191
   6.93500000000000        -2.307775303762339E-187
   7.12500000000000        -2.050142264856795E-185
   7.31500000000000         3.507926915034440E-181
   7.50500000000000         3.312762366380093E-179
   7.69500000000000         1.594735644485060E-177
   7.88500000000000         5.204227830100981E-176
   8.07500000000000         1.291293202371763E-174
   8.26500000000000         2.591740967270480E-173
   8.45500000000000         4.374046177434318E-172
   8.64500000000000         6.374459757672733E-171
   8.83500000000000         8.179187207757836E-170
   9.02500000000000         9.378725797828674E-169
   9.21500000000000         9.724414609020951E-168
   9.40500000000000         9.205195459463959E-167
   9.59500000000000         8.018789477985750E-166
   9.78500000000000         6.471507738918965E-165
   9.97500000000000         4.866441979881497E-164
   10.1650000000000         3.426673299294911E-163
   10.3550000000000         2.269097188969041E-162
   10.5450000000000         1.418344151611121E-161
   10.7350000000000         8.396283660858481E-161
   10.9250000000000         4.720905873453831E-160
   11.1150000000000         2.527549907075527E-159
   11.3050000000000         1.291447245512923E-158
   11.4950000000000         6.309519497196574E-158
   11.6850000000000         2.952426036571335E-157
   11.8750000000000         1.325036003716900E-156
   12.0650000000000         5.709845929672009E-156
   12.2550000000000         2.364401926952646E-155
   12.4450000000000         9.412879291173594E-155
   12.6350000000000         3.602906169159617E-154
   12.8250000000000         1.325278938558562E-153
   13.0150000000000         4.679119440589557E-153
   13.2050000000000         1.582118550173612E-152
   13.3950000000000         5.102919032642243E-152
   13.5850000000000         1.559351052884109E-151
   13.7750000000000         4.459588563479558E-151
   13.9650000000000         1.165200458563210E-150
   14.1550000000000         2.629103384464185E-150
   14.3450000000000         4.239725443875415E-150
   14.5350000000000        -1.117263568395508E-150
   14.7250000000000        -5.203202009045626E-149
   14.9150000000000        -3.171568867390783E-148
   15.1050000000000        -1.455954960388962E-147
   15.2950000000000        -5.867301709834659E-147
   15.4850000000000        -2.182484017245298E-146
   15.6750000000000        -7.667761398283726E-146
   15.8650000000000        -2.576586984933081E-145
   16.0550000000000        -8.344730065392538E-145
   16.2450000000000        -2.618010491712692E-144
   16.4350000000000        -7.984703268974135E-144
   16.6250000000000        -2.373522261069687E-143
   16.8150000000000        -6.889933680511814E-143
   17.0050000000000        -1.956000329271894E-142
   17.1950000000000        -5.436976488832378E-142
   17.3850000000000        -1.481068496153258E-141
   17.5750000000000        -3.956686755876036E-141
   17.7650000000000        -1.037212410858785E-140
   17.9550000000000        -2.669105480091318E-140
   18.1450000000000        -6.744616345435145E-140
   18.3350000000000        -1.673890646392351E-139
   18.5250000000000        -4.080518468940976E-139
   18.7150000000000        -9.770505752088529E-139
   18.9050000000000        -2.297625073288292E-138
   19.0950000000000        -5.305114996781229E-138
   19.2850000000000        -1.202246197549153E-137
   19.4750000000000        -2.672548293399124E-137
   19.6650000000000        -5.822904548573835E-137
   19.8550000000000        -1.242070436852362E-136
   20.0450000000000        -2.589772507813569E-136
   20.2350000000000        -5.266439216422707E-136
   20.4250000000000        -1.041128123599595E-135
   20.6150000000000        -1.991116384179510E-135
   20.8050000000000        -3.655176439268200E-135
   20.9950000000000        -6.355031886667579E-135
   21.1850000000000        -1.019750666377790E-134
   21.3750000000000        -1.421684339170429E-134
   21.5650000000000        -1.397016425100051E-134
   21.7550000000000         4.625295276417659E-135
   21.9450000000000         8.020690113768921E-134
   22.1350000000000         3.106145054269731E-133
   22.3250000000000         9.308909525775997E-133
   22.5150000000000         2.484477959683130E-132
   22.7050000000000         6.191014274441519E-132
   22.8950000000000         1.472193988609161E-131
   23.0850000000000         3.380891180230123E-131
   23.2750000000000         7.552787111322324E-131
   23.4650000000000         1.649056632992743E-130
   23.6550000000000         3.530178995044304E-130
   23.8450000000000         7.425744215949987E-130
   24.0350000000000         1.537134327649701E-129
   24.2250000000000         3.134230491994161E-129
   24.4150000000000         6.298440716440548E-129
   24.6050000000000         1.247662415109201E-128
   24.7950000000000         2.435893628074800E-128
   24.9850000000000         4.685009442909636E-128
   25.1750000000000         8.869446433257778E-128
   25.3650000000000         1.650763288682662E-127
   25.5550000000000         3.015253304579776E-127
   25.7450000000000         5.392151307806512E-127
   25.9350000000000         9.408207657862424E-127
   26.1250000000000         1.593549919032031E-126
   26.3150000000000         2.599805912183163E-126
   26.5050000000000         4.032204214006665E-126
   26.6950000000000         5.800650539357039E-126
   26.8850000000000         7.320415654206958E-126
   27.0750000000000         6.755116429691269E-126
   27.2650000000000        -6.099756431177140E-127
   27.4550000000000        -2.571281984732784E-125
   27.6450000000000        -9.235436991571169E-125
   27.8350000000000        -2.499909477019668E-124
   28.0250000000000        -5.977371045956857E-124
   28.2150000000000        -1.328324399997984E-123
   28.4050000000000        -2.806786840514098E-123
   28.5950000000000        -5.708223673005828E-123
   28.7850000000000        -1.125376639834041E-122
   28.9750000000000        -2.160587853705937E-122
   29.1650000000000        -4.051549049222295E-122
   29.3550000000000        -7.435572165835206E-122
   29.5450000000000        -1.337292264496422E-121
   29.7350000000000        -2.358919279172753E-121
   29.9250000000000        -4.082763874742179E-121
   30.1150000000000        -6.933813304549215E-121
   30.3050000000000        -1.155135729612926E-120
   30.4950000000000        -1.886389212626000E-120
   30.6850000000000        -3.016147138289804E-120
   30.8750000000000        -4.713086325369494E-120
   31.0650000000000        -7.177984519083166E-120
   31.2550000000000        -1.061075588058197E-119
   31.4450000000000        -1.512595138834865E-119
   31.6350000000000        -2.057113336474438E-119
   31.8250000000000        -2.617162891928303E-119
   32.0150000000000        -2.987766009707356E-119
   32.2050000000000        -2.721927291987267E-119
   32.3950000000000        -9.373485209104030E-120
   32.5850000000000         3.999031524110550E-119
   32.7750000000000         1.497001673420090E-118
   32.9650000000000         3.687354623939296E-118
   33.1550000000000         7.776017540506237E-118
   33.3450000000000         1.504664599049561E-117
   33.5350000000000         2.748695342881649E-117
   33.7250000000000         4.808507884214705E-117
   33.9150000000000         8.119419550093406E-117
   34.1050000000000         1.329372237200879E-116
   34.2950000000000         2.115741486275138E-116
   34.4850000000000         3.276662463360474E-116
   34.6750000000000         4.937227337247062E-116
   34.8650000000000         7.227755131082703E-116
   35.0550000000000         1.024955919911067E-115
   35.2450000000000         1.400591647891417E-115
   35.4350000000000         1.827540408187425E-115
   35.6250000000000         2.239363037555438E-115
   35.8150000000000         2.489454630669420E-115
   36.0050000000000         2.294372635004323E-115
   36.1950000000000         1.147376715279207E-115
   36.3850000000000        -1.809174834962412E-115
   36.5750000000000        -7.965985072829629E-115
   36.7650000000000        -1.949780664412600E-114
   36.9550000000000        -3.969563091354828E-114
   37.1450000000000        -7.338521861181589E-114
   37.3350000000000        -1.274204965837797E-113
   37.5250000000000        -2.112082209746216E-113
   37.7150000000000        -3.371637459114597E-113
   37.9050000000000        -5.209041684288705E-113
   38.0950000000000        -7.808374802938206E-113
   38.2850000000000        -1.136582399549235E-112
   38.4750000000000        -1.605325671534817E-112
   38.6650000000000        -2.194759754157251E-112
   38.8550000000000        -2.890610321021247E-112
   39.0450000000000        -3.635931111283179E-112
   39.2350000000000        -4.298301181522539E-112
   39.4250000000000        -4.619831477487846E-112
   39.6150000000000        -4.143568711316499E-112
   39.8050000000000        -2.108690298609600E-112
   39.9950000000000         2.693774552386398E-112
   40.1850000000000         1.211237348207704E-111
   40.3750000000000         2.887849138591053E-111
   40.5650000000000         5.689893765558557E-111
   40.7550000000000         1.015813284957206E-110
   40.9450000000000         1.701511046363961E-110
   41.1350000000000         2.718786671492612E-110
   41.3250000000000         4.180723440043687E-110
   41.5150000000000         6.215994695379471E-110
   41.7050000000000         8.955642957295109E-110
   41.8950000000000         1.250588018513822E-109
   42.0850000000000         1.689894838633672E-109
   42.2750000000000         2.201105767505816E-109
   42.4650000000000         2.743286662962636E-109
   42.6550000000000         3.227415848625716E-109
   42.8450000000000         3.488088338743675E-109
   43.0350000000000         3.244065341577721E-109
   43.2250000000000         2.045387017187119E-109
   43.4150000000000        -7.945313444522362E-110
   43.6050000000000        -6.281700634681344E-109
   43.7950000000000        -1.583587739026660E-108
   43.9850000000000        -3.138744749280039E-108
   44.1750000000000        -5.545907589129374E-108
   44.3650000000000        -9.120106657405137E-108
   44.5550000000000        -1.423304376721880E-107
   44.7450000000000        -2.128978430248179E-107
   44.9350000000000        -3.067726841815025E-107
   45.1250000000000        -4.266947687709063E-107
   45.3150000000000        -5.726917275892580E-107
   45.5050000000000        -7.396084024500842E-107
   45.6950000000000        -9.134443796755713E-107
   45.8850000000000        -1.066160779211918E-106
   46.0750000000000        -1.148616613596967E-106
   46.2650000000000        -1.081357597721485E-106
   46.4550000000000        -7.431479203879494E-107
   46.6450000000000         4.253464505012202E-108
   46.8350000000000         1.522252715019888E-106
   47.0250000000000         4.026925977103384E-106
   47.2150000000000         7.982681539693205E-106
   47.4050000000000         1.391329764711414E-105
   47.5950000000000         2.242669583784994E-105
   47.7850000000000         3.417453704783767E-105
   47.9750000000000         4.976974288437349E-105
   48.1650000000000         6.964177675764365E-105
   48.3550000000000         9.380407440408245E-105
   48.5450000000000         1.215027395596180E-104
   48.7350000000000         1.507116520655447E-104
   48.9250000000000         1.774383232236876E-104
   49.1150000000000         1.948099976351669E-104
   49.3050000000000         1.919247088163694E-104
   49.4950000000000         1.524828184213643E-104
   49.6850000000000         5.326824944569183E-105
   49.8750000000000        -1.373659589632832E-104
   50.0650000000000        -4.607258972746245E-104
   50.2550000000000        -9.682575966174021E-104
   50.4450000000000        -1.720579226749173E-103
   50.6350000000000        -2.784059574806449E-103
   50.8250000000000        -4.223576458877396E-103
   51.0150000000000        -6.089693985176524E-103
   51.2050000000000        -8.398119578153116E-103
   51.3950000000000        -1.109902869599346E-102
   51.5850000000000        -1.403381607622938E-102
   51.7750000000000        -1.687724964901583E-102
   51.9650000000000        -1.906414224364470E-102
   52.1550000000000        -1.970186695682224E-102
   52.3450000000000        -1.747373692934215E-102
   52.5350000000000        -1.054388881841756E-102
   52.7250000000000         3.517750136950162E-103
   52.9150000000000         2.776132414635943E-102
   53.1050000000000         6.579165451065352E-102
   53.2950000000000         1.215546393591856E-101
   53.4850000000000         1.989032291002894E-101
   53.6750000000000         3.008577135277977E-101
   53.8650000000000         4.284683669786464E-101
   54.0550000000000         5.791940825937643E-101
   54.2450000000000         7.447363113619737E-101
   54.4350000000000         9.083229653863407E-101
   54.6250000000000         1.041532592162260E-100
   54.8150000000000         1.100895481364328E-100
   55.0050000000000         1.024713379853803E-100
   55.1950000000000         7.308054008180616E-101
   55.3850000000000         1.162066563640900E-101
   55.5750000000000        -9.398052252494696E-101
   55.7650000000000        -2.567647013788918E-100
   55.9550000000000        -4.892375119000096E-100
   56.1450000000000        -8.009628123079282E-100
   56.3350000000000        -1.195082563205079E-099
   56.5250000000000        -1.663664100748927E-099
   56.7150000000000        -2.181918797942019E-099
   56.9050000000000        -2.701561011059118E-099
   57.0950000000000        -3.143894727222768E-099
   57.2850000000000        -3.393627579164005E-099
   57.4750000000000        -3.294900123795576E-099
   57.6650000000000        -2.651538953692405E-099
   57.8550000000000        -1.234018169157727E-099
   58.0450000000000         1.204071834010398E-099
   58.2350000000000         4.897254735391319E-099
   58.4250000000000         1.002482395734582E-098
   58.6150000000000         1.665189774006739E-098
   58.8050000000000         2.465602691544348E-098
   58.9950000000000         3.364376246793080E-098
   59.1850000000000         4.286593547545836E-098
   59.3750000000000         5.114564680120430E-098
   59.5650000000000         5.683861347256069E-098
   59.7550000000000         5.785068830921161E-098
   59.9450000000000         5.174072184910214E-098
   60.1350000000000         3.593667519184798E-098
   60.3250000000000         8.086852460785316E-099
   60.5150000000000        -3.344601131791721E-098
   60.7050000000000        -8.896435703356027E-098
   60.8950000000000        -1.567412929155003E-097
   61.0850000000000        -2.323506815865766E-097
   61.2750000000000        -3.081748068483719E-097
   61.4650000000000        -3.732977925522274E-097
   61.6550000000000        -4.140375699193565E-097
   61.8450000000000        -4.153865850539076E-097
   62.0350000000000        -3.635999802615108E-097
   62.2250000000000        -2.500645306988767E-097
   62.4150000000000        -7.637666932956501E-098
   62.6050000000000         1.397670733511410E-097
   62.7950000000000         3.587168509126504E-097
   62.9850000000000         5.144692209754503E-097
   63.1750000000000         5.137653376338189E-097
   63.3650000000000         2.413306079578805E-097
   63.5550000000000        -4.256890879627173E-097
   63.7450000000000        -1.591027395109138E-096
   63.9350000000000        -3.297925441502624E-096
   64.1250000000000        -5.472316573569940E-096
   64.3150000000000        -7.852713447464434E-096
   64.5050000000000        -9.913368425893872E-096
   64.6950000000000        -1.079327292308054E-095
   64.8850000000000        -9.250895448570535E-096
   65.0750000000000        -3.672569901704696E-096
   65.2650000000000         7.830101358494565E-096
   65.4550000000000         2.719349897206296E-095
   65.6450000000000         5.600575174049458E-095
   65.8350000000000         9.490956160504749E-095
   66.0250000000000         1.427935812823076E-094
   66.2150000000000         1.957987343223198E-094
   66.4050000000000         2.462215405963168E-094
   66.5950000000000         2.814718036323948E-094
   66.7850000000000         2.833343666796164E-094
   66.9750000000000         2.278864424740667E-094
   67.1650000000000         8.651894897559028E-095
   67.3550000000000        -1.714200602329935E-094
   67.5450000000000        -5.738305122382798E-094
   67.7350000000000        -1.138470883400749E-093
   67.9250000000000        -1.862759429353688E-093
   68.1150000000000        -2.710966126628176E-093
   68.3050000000000        -3.599632595452544E-093
   68.4950000000000        -4.382931787466011E-093
   68.6850000000000        -4.840769316345152E-093
   68.8750000000000        -4.673657423400606E-093
   69.0650000000000        -3.509610553393522E-093
   69.2550000000000        -9.292786069683515E-094
   69.4450000000000         3.484087855311559E-093
   69.6350000000000         1.006388824299383E-092
   69.8250000000000         1.894484792134210E-092
   70.0150000000000         2.991352458032993E-092
   70.2050000000000         4.223172027164389E-092
   70.3950000000000         5.444926109646175E-092
   70.5850000000000         6.423458851382553E-092
   70.7750000000000         6.826550711184745E-092
   70.9650000000000         6.223681937182360E-092
   71.1550000000000         4.105407593833619E-092
   71.3450000000000        -7.101439776114146E-094
   71.5350000000000        -6.802359456066741E-092
   71.7250000000000        -1.642091859242207E-091
   71.9150000000000        -2.893494113977173E-091
   72.1050000000000        -4.383266572628069E-091
   72.2950000000000        -5.986390271589238E-091
   72.4850000000000        -7.482539799851602E-091
   72.6750000000000        -8.539088991103076E-091
   72.8650000000000        -8.704261903496450E-091
   73.0550000000000        -7.417588773211861E-091
   73.2450000000000        -4.045884963157694E-091
   73.4350000000000         2.046829540245509E-091
   73.6250000000000         1.138823879865121E-090
   73.8150000000000         2.424138806159651E-090
   74.0050000000000         4.040468509566228E-090
   74.1950000000000         5.897846720272285E-090
   74.3850000000000         7.812007634514469E-090
   74.5750000000000         9.482388043509749E-090
   74.7650000000000         1.047789601037905E-089
   74.9550000000000         1.023733906616103E-089
   75.1450000000000         8.092730832665192E-090
   75.3350000000000         3.324329118984849E-090
   75.5250000000000        -4.744295254249273E-090
   75.7150000000000        -1.660516524891262E-089
   75.9050000000000        -3.237741447824182E-089
   76.0950000000000        -5.157748128841898E-089
   76.2850000000000        -7.286454560636780E-089
   76.4750000000000        -9.379121242957778E-089
   76.6650000000000        -1.106051217113416E-088
   76.8550000000000        -1.181636060318508E-088
   77.0450000000000        -1.100383187195175E-088
   77.2350000000000        -7.889648216734919E-089
   77.4250000000000        -1.724563002272296E-089
   77.6150000000000         8.138576582786547E-089
   77.8050000000000         2.207940887572487E-088
   77.9950000000000         3.999950404672881E-088
   78.1850000000000         6.107776653276411E-088
   78.3750000000000         8.351466029793635E-088
   78.5650000000000         1.043023873724035E-087
   78.7550000000000         1.190738237897787E-087
   78.9450000000000         1.220982109438413E-087
   79.1350000000000         1.065034974606648E-087
   79.3250000000000         6.481006414476282E-088
   79.5150000000000        -1.014623549102778E-088
   79.7050000000000        -1.238472813456721E-087
   79.8950000000000        -2.782728353074137E-087
   80.0850000000000        -4.696890474816153E-087
   80.2750000000000        -6.862048092881706E-087
   80.4650000000000        -9.053790254866117E-087
   80.6550000000000        -1.092303921307827E-086
   80.8450000000000        -1.198736203270228E-086
   81.0350000000000        -1.163977446787982E-086
   81.2250000000000        -9.182871020254487E-087
   81.4150000000000        -3.896075494947922E-087
   81.6050000000000         4.857536793856864E-087
   81.7950000000000         1.748150211317397E-086
   81.9850000000000         3.395525954254756E-086
   82.1750000000000         5.361214913067385E-086
   82.3650000000000         7.490599682351086E-086
   82.5550000000000         9.519845558526106E-086
   82.7450000000000         1.106127418396205E-085
   82.9350000000000         1.160124900538155E-085
   83.1250000000000         1.051748373972215E-085
   83.3150000000000         7.123148482312983E-086
   83.5050000000000         7.446654862643557E-087
   83.6950000000000        -9.161750995511946E-086
   83.8850000000000        -2.285335107844965E-085
   84.0750000000000        -4.010812172146989E-085
   84.2650000000000        -6.000822464214490E-085
   84.4550000000000        -8.072182208440729E-085
   84.6450000000000        -9.931723296865346E-085
   84.8350000000000        -1.116557240485338E-084
   85.0250000000000        -1.124206335777274E-084
   85.2150000000000        -9.534867904527004E-085
   85.4050000000000        -5.373131112605006E-085
   85.5950000000000         1.875356412562845E-085
   85.7850000000000         1.268398990280758E-084
   85.9750000000000         2.720995902618826E-084
   86.1650000000000         4.510505876475026E-084
   86.3550000000000         6.530778990808467E-084
   86.5450000000000         8.583934234184939E-084
   86.7350000000000         1.036368745610714E-083
   86.9250000000000         1.144686494852620E-083
   87.1150000000000         1.129855375281280E-083
   87.3050000000000         9.297006460370346E-084
   87.4950000000000         4.784494727962988E-084
   87.6850000000000        -2.850509580256876E-084
   87.8750000000000        -1.405646965443570E-083
   88.0650000000000        -2.896740058675289E-083
   88.2550000000000        -4.722236285637144E-083
   88.4450000000000        -6.776822742811965E-083
   88.6350000000000        -8.866670944084974E-083
   88.8250000000000        -1.069363893940801E-082
   89.0150000000000        -1.184704067794247E-082
   89.2050000000000        -1.180793913539827E-082
   89.3950000000000        -9.971518403111122E-083
   89.5850000000000        -5.693174046361954E-083
   89.7750000000000         1.636727899563010E-083
   89.9650000000000         1.248620555067440E-082
   90.1550000000000         2.704293814780489E-082
   90.3450000000000         4.504777930803200E-082
   90.5350000000000         6.561086748266897E-082
   90.7250000000000         8.702815923760012E-082
   90.9150000000000         1.066247124148529E-081
   91.1050000000000         1.206598807740158E-081
   91.2950000000000         1.243376713847732E-081
   91.4850000000000         1.119713849403363E-081
   91.6750000000000         7.735345359496580E-082
   91.8650000000000         1.437696041103412E-082
   92.0550000000000        -8.205762000879128E-082
   92.2450000000000        -2.148405573895494E-081
   92.4350000000000        -3.831820277670365E-081
   92.6250000000000        -5.809477413785916E-081
   92.8150000000000        -7.949384101771946E-081
   93.0050000000000        -1.003322430273044E-080
   93.1950000000000        -1.174508114538734E-080
   93.3850000000000        -1.266815625063318E-080
   93.5750000000000        -1.229368056263695E-080
   93.7650000000000        -1.004651318423255E-080
   93.9550000000000        -5.331762469180914E-081
   94.1450000000000         2.394052722658748E-081
   94.3350000000000         1.352544305297778E-080
   94.5250000000000         2.818479643328526E-080
   94.7150000000000         4.607821366119554E-080
   94.9050000000000         6.633979850253857E-080
   95.0950000000000         8.737972705335592E-080
   95.2850000000000         1.067579207320814E-079
   95.4750000000000         1.211117256311999E-079
   95.6650000000000         1.261718345255337E-079
   95.8550000000000         1.169046826091283E-079
   96.0450000000000         8.782036167868261E-080
   96.2350000000000         3.348120292588865E-080
   96.4250000000000        -5.076402074203802E-080
   96.6150000000000        -1.678133169394646E-079
   96.8050000000000        -3.176321032112756E-079
   96.9950000000000        -4.959176146723861E-079
   97.1850000000000        -6.927088179778965E-079
   97.3750000000000        -8.910960448550793E-079
   97.5650000000000        -1.066240611734447E-078
   97.7550000000000        -1.184968735906854E-078
   97.9450000000000        -1.206248326266057E-078
   98.1350000000000        -1.082881793724444E-078
   98.3250000000000        -7.647411299177873E-079
   98.5150000000000        -2.038202312317433E-079
   98.7050000000000         6.387291283960096E-079
   98.8950000000000         1.783588465221136E-078
   99.0850000000000         3.222555079968091E-078
   99.2750000000000         4.906710950341238E-078
   99.4650000000000         6.734473575564013E-078
   99.6550000000000         8.540974373549298E-078
   99.8450000000000         1.009067496524580E-077
   100.035000000000         1.107555937347670E-077
   100.225000000000         1.112156148428635E-077
   100.415000000000         9.806016261973306E-078
   100.605000000000         6.688761559616758E-078
   100.795000000000         1.358960319593895E-078
   100.985000000000        -6.501339626338826E-078
   101.175000000000        -1.703752041949867E-077
   101.365000000000        -3.012944683887790E-077
   101.555000000000        -4.529097880758948E-077
   101.745000000000        -6.157103865765836E-077
   101.935000000000        -7.746901788318407E-077
   102.125000000000        -9.088099586978484E-077
   102.315000000000        -9.909647601066737E-077
   102.505000000000        -9.886753584876454E-077
   102.695000000000        -8.657273255867041E-077
   102.885000000000        -5.849601756288675E-077
   103.075000000000        -1.123549047244305E-077
   103.265000000000         5.775266873985984E-077
   103.455000000000         1.494838496945404E-076
   103.645000000000         2.626759158469004E-076
   103.835000000000         3.929324655158138E-076
   104.025000000000         5.319565399751950E-076
   104.215000000000         6.669016295169890E-076
   104.405000000000         7.799946337696292E-076
   104.595000000000         8.485885563354633E-076
   104.785000000000         8.458164750938132E-076
   104.975000000000         7.420172689786923E-076
   105.165000000000         5.070818022869868E-076
   105.355000000000         1.138199622161750E-076
   105.545000000000        -4.576308717270691E-076
   105.735000000000        -1.214449920919642E-075
   105.925000000000        -2.145073410283903E-075
   106.115000000000        -3.212856390265673E-075
   106.305000000000        -4.350085342121927E-075
   106.495000000000        -5.453183201105072E-075
   106.685000000000        -6.380147017816054E-075
   106.875000000000        -6.951414721470746E-075
   107.065000000000        -6.955436374632723E-075
   107.255000000000        -6.160187249532611E-075
   107.445000000000        -4.331663455397394E-075
   107.635000000000        -1.260006364708339E-075
   107.825000000000         3.206721974619510E-075
   108.015000000000         9.121961336897370E-075
   108.205000000000         1.639523642243140E-074
   108.395000000000         2.474518590214358E-074
   108.585000000000         3.365578336660605E-074
   108.775000000000         4.234198100698303E-074
   108.965000000000         4.973235602989923E-074
   109.155000000000         5.447734798858112E-074
   109.345000000000         5.499209796946009E-074
   109.535000000000         4.954246738893642E-074
   109.725000000000         3.638124926246568E-074
   109.915000000000         1.393863634800772E-074
   110.105000000000        -1.893351218319479E-074