  -1.42500000000000         0.000000000000000E+000
  -1.23500000000000         0.000000000000000E+000
  -1.04500000000000         0.000000000000000E+000
 -0.855000000000000         0.000000000000000E+000
 -0.665000000000000         0.000000000000000E+000
 -0.475000000000000         0.000000000000000E+000
 -0.285000000000000         0.000000000000000E+000
 -9.499999999999975E-002    0.000000000000000E+000
  9.500000000000020E-002    0.000000000000000E+000
  0.285000000000000         0.000000000000000E+000
  0.475000000000000         0.000000000000000E+000
  0.665000000000000         0.000000000000000E+000
  0.855000000000000         0.000000000000000E+000
   1.04500000000000         0.000000000000000E+000
   1.23500000000000         0.000000000000000E+000
   1.42500000000000         0.000000000000000E+000
   1.61500000000000         0.000000000000000E+000
   1.80500000000000         0.000000000000000E+000
   1.99500000000000         0.000000000000000E+000
   2.18500000000000         0.000000000000000E+000
   2.37500000000000         0.000000000000000E+000
   2.56500000000000         0.000000000000000E+000
   2.75500000000000         0.000000000000000E+000
   2.94500000000000         0.000000000000000E+000
   3.13500000000000         0.000000000000000E+000
   3.32500000000000         0.000000000000000E+000
   3.51500000000000         0.000000000000000E+000
   3.70500000000000         0.000000000000000E+000
   3.89500000000000         0.000000000000000E+000
   4.08500000000000         0.000000000000000E+000
   4.27500000000000         0.000000000000000E+000
   4.46500000000000         0.000000000000000E+000
   4.65500000000000         0.000000000000000E+000
   4.84500000000000         0.000000000000000E+000
   5.03500000000000         0.000000000000000E+000
   5.22500000000000         0.000000000000000E+000
   5.41500000000000         0.000000000000000E+000
   5.60500000000000         0.000000000000000E+000
   5.79500000000000         0.000000000000000E+000
   5.98500000000000         0.000000000000000E+000
   6.17500000000000         0.000000000000000E+000
   6.36500000000000         0.000000000000000E+000
   6.55500000000000         0.000000000000000E+000
   6.74500000000000        -2.115808411518981E-190
   6.93500000000000         1.812584891291420E-185
   7.12500000000000         9.837369792121735E-184
   7.31500000000000         4.344983451797197E-180
   7.50500000000000         3.631562079401783E-178
   7.69500000000000         1.563906419965814E-176
   7.88500000000000         4.612698846169539E-175
   8.07500000000000         1.047105317377275E-173
   8.26500000000000         1.948370751570579E-172
   8.45500000000000         3.089126534824090E-171
   8.64500000000000         4.282463890235257E-170
   8.83500000000000         5.286223936570983E-169
   9.02500000000000         5.888780868862160E-168
   9.21500000000000         5.981704369744599E-167
   9.40500000000000         5.586407009553221E-166
   9.59500000000000         4.829553787492721E-165
   9.78500000000000         3.887330626990049E-164
   9.97500000000000         2.927701899616412E-163
   10.1650000000000         2.072177590022710E-162
   10.3550000000000         1.383663234191377E-161
   10.5450000000000         8.746558634400554E-161
   10.7350000000000         5.250444474877865E-160
   10.9250000000000         3.001406837797296E-159
   11.1150000000000         1.638048997790789E-158
   11.3050000000000         8.554679626029338E-158
   11.4950000000000         4.284162214071947E-157
   11.6850000000000         2.061300075026114E-156
   11.8750000000000         9.545131513222558E-156
   12.0650000000000         4.260594086282193E-155
   12.2550000000000         1.835787202238979E-154
   12.4450000000000         7.645258005758401E-154
   12.6350000000000         3.080863525219825E-153
   12.8250000000000         1.202530013410639E-152
   13.0150000000000         4.550237920118692E-152
   13.2050000000000         1.670301802992073E-151
   13.3950000000000         5.951385841905705E-151
   13.5850000000000         2.059052548892159E-150
   13.7750000000000         6.918621229043434E-150
   13.9650000000000         2.257598961573158E-149
   14.1550000000000         7.151406003123102E-149
   14.3450000000000         2.197487508420649E-148
   14.5350000000000         6.541745218829869E-148
   14.7250000000000         1.882795897389373E-147
   14.9150000000000         5.222294272730241E-147
   15.1050000000000         1.388849645945982E-146
   15.2950000000000         3.511793260758225E-146
   15.4850000000000         8.317503712461530E-146
   15.6750000000000         1.790887756806249E-145
   15.8650000000000         3.255975125272539E-145
   16.0550000000000         3.725019874629786E-145
   16.2450000000000        -5.218124082136476E-145
   16.4350000000000        -5.776337190614338E-144
   16.6250000000000        -2.748099975744358E-143
   16.8150000000000        -1.049901160032125E-142
   17.0050000000000        -3.591840890943364E-142
   17.1950000000000        -1.145084423772502E-141
   17.3850000000000        -3.467628401734514E-141
   17.5750000000000        -1.008272072512421E-140
   17.7650000000000        -2.833893597554422E-140
   17.9550000000000        -7.733974922280824E-140
   18.1450000000000        -2.056009443576204E-139
   18.3350000000000        -5.336901763517793E-139
   18.5250000000000        -1.355205158866657E-138
   18.7150000000000        -3.371542279925849E-138
   18.9050000000000        -8.228283969929630E-138
   19.0950000000000        -1.972061274269963E-137
   19.2850000000000        -4.645997370405209E-137
   19.4750000000000        -1.076854532672839E-136
   19.6650000000000        -2.457463617627383E-136
   19.8550000000000        -5.525371074976645E-136
   20.0450000000000        -1.224690511378965E-135
   20.2350000000000        -2.677136143075265E-135
   20.4250000000000        -5.773076217017448E-135
   20.6150000000000        -1.228149008610393E-134
   20.8050000000000        -2.576822483068815E-134
   20.9950000000000        -5.328638172770039E-134
   21.1850000000000        -1.084732249783719E-133
   21.3750000000000        -2.169517829314288E-133
   21.5650000000000        -4.250596002148316E-133
   21.7550000000000        -8.121217820918871E-133
   21.9450000000000        -1.502526935225296E-132
   22.1350000000000        -2.660890691973797E-132
   22.3250000000000        -4.417132178659601E-132
   22.5150000000000        -6.574345854600238E-132
   22.7050000000000        -7.724205983518439E-132
   22.8950000000000        -2.865164558233841E-132
   23.0850000000000         2.256465606605524E-131
   23.2750000000000         1.068865266555289E-130
   23.4650000000000         3.446247153971003E-130
   23.6550000000000         9.581392504777223E-130
   23.8450000000000         2.451038794570822E-129
   24.0350000000000         5.927608664023587E-129
   24.2250000000000         1.374023431216682E-128
   24.4150000000000         3.076731515686052E-128
   24.6050000000000         6.686904655462459E-128
   24.7950000000000         1.414772291479571E-127
   24.9850000000000         2.919213689206507E-127
   25.1750000000000         5.880393347419445E-127
   25.3650000000000         1.156843039322196E-126
   25.5550000000000         2.222210178100954E-126
   25.7450000000000         4.164758834149800E-126
   25.9350000000000         7.603661999755327E-126
   26.1250000000000         1.348926889161523E-125
   26.3150000000000         2.316042343433550E-125
   26.5050000000000         3.823782860194035E-125
   26.6950000000000         6.004527647936133E-125
   26.8850000000000         8.788151844567972E-125
   27.0750000000000         1.147391214121979E-124
   27.2650000000000         1.176870685400224E-124
   27.4550000000000         3.759440763389219E-125
   27.6450000000000        -2.616711846872568E-124
   27.8350000000000        -1.072349654497521E-123
   28.0250000000000        -2.991406999061923E-123
   28.2150000000000        -7.192064806849019E-123
   28.4050000000000        -1.590732497865621E-122
   28.5950000000000        -3.327028916845449E-122
   28.7850000000000        -6.674022592586045E-122
   28.9750000000000        -1.294655595054276E-121
   29.1650000000000        -2.441038805686756E-121
   29.3550000000000        -4.488370531380012E-121
   29.5450000000000        -8.065715655189937E-121
   29.7350000000000        -1.418547249016380E-120
   29.9250000000000        -2.443662268629449E-120
   30.1150000000000        -4.124489277772861E-120
   30.3050000000000        -6.819690218976355E-120
   30.4950000000000        -1.103940248477969E-119
   30.6850000000000        -1.747355787047086E-119
   30.8750000000000        -2.699033833923050E-119
   31.0650000000000        -4.055879347023003E-119
   31.2550000000000        -5.900942407221279E-119
   31.4450000000000        -8.247937428692250E-119
   31.6350000000000        -1.092805043239189E-118
   31.8250000000000        -1.337593437908845E-118
   32.0150000000000        -1.424619777635661E-118
   32.2050000000000        -1.075429580483320E-118
   32.3950000000000         2.416848924597875E-119
   32.5850000000000         3.487378534711948E-118
   32.7750000000000         1.032516431529757E-117
   32.9650000000000         2.353574781288476E-117
   33.1550000000000         4.762423730290128E-117
   33.3450000000000         8.967937845704360E-117
   33.5350000000000         1.605403446172255E-116
   33.7250000000000         2.763004960876021E-116
   33.9150000000000         4.601082439780930E-116
   34.1050000000000         7.440792917354018E-116
   34.2950000000000         1.170860149604675E-115
   34.4850000000000         1.793902192082680E-115
   34.6750000000000         2.674706506193312E-115
   34.8650000000000         3.874026695756575E-115
   35.0550000000000         5.432062842151732E-115
   35.2450000000000         7.329784514428502E-115
   35.4350000000000         9.419379150910930E-115
   35.6250000000000         1.130611643156174E-114
   35.8150000000000         1.215638911731181E-114
   36.0050000000000         1.039726798731175E-114
   36.1950000000000         3.261951193111827E-115
   36.3850000000000        -1.387583437685094E-114
   36.5750000000000        -4.844452983659700E-114
   36.7650000000000        -1.119625892387466E-113
   36.9550000000000        -2.217259087498088E-113
   37.1450000000000        -4.029061178696048E-113
   37.3350000000000        -6.909765353626178E-113
   37.5250000000000        -1.134204101633081E-112
   37.7150000000000        -1.795635764696165E-112
   37.9050000000000        -2.753500585173801E-112
   38.0950000000000        -4.098155642407507E-112
   38.2850000000000        -5.922511049076880E-112
   38.4750000000000        -8.301139360185555E-112
   38.6650000000000        -1.125085353740760E-111
   38.8550000000000        -1.466227530749165E-111
   39.0450000000000        -1.818770586003379E-111
   39.2350000000000        -2.106546188533806E-111
   39.4250000000000        -2.185499308756969E-111
   39.6150000000000        -1.805121048703461E-111
   39.8050000000000        -5.541878118850095E-112
   39.9950000000000         2.212890947482421E-111
   40.1850000000000         7.472116147880482E-111
   40.3750000000000         1.664921432347229E-110
   40.5650000000000         3.175860325709769E-110
   40.7550000000000         5.555011590084200E-110
   40.9450000000000         9.163763596350346E-110
   41.1350000000000         1.445616260502580E-109
   41.3250000000000         2.197039499425487E-109
   41.5150000000000         3.229246389817160E-109
   41.7050000000000         4.597222709089241E-109
   41.8950000000000         6.336286941776860E-109
   42.0850000000000         8.434327060815662E-109
   42.2750000000000         1.078687159132248E-108
   42.4650000000000         1.312797427784504E-108
   42.6550000000000         1.492834670927466E-108
   42.8450000000000         1.525100404424693E-108
   43.0350000000000         1.255450477147909E-108
   43.2250000000000         4.435634933078300E-109
   43.4150000000000        -1.269143581646771E-108
   43.6050000000000        -4.397183854215982E-108
   43.7950000000000        -9.651586959866176E-108
   43.9850000000000        -1.797764201709577E-107
   44.1750000000000        -3.057929103526166E-107
   44.3650000000000        -4.891275725847593E-107
   44.5550000000000        -7.462238553500961E-107
   44.7450000000000        -1.093789106631279E-106
   44.9350000000000        -1.545642368631265E-106
   45.1250000000000        -2.107275794080135E-106
   45.3150000000000        -2.767166222417859E-106
   45.5050000000000        -3.483666972659892E-106
   45.6950000000000        -4.166154709691841E-106
   45.8850000000000        -4.649077326475952E-106
   46.0750000000000        -4.657760387289232E-106
   46.2650000000000        -3.765445939696095E-106
   46.4550000000000        -1.342282275596199E-106
   46.6450000000000         3.500853717941604E-106
   46.8350000000000         1.196738447611508E-105
   47.0250000000000         2.561748176976844E-105
   47.2150000000000         4.637930976935980E-105
   47.4050000000000         7.650078665572811E-105
   47.5950000000000         1.184013220027004E-104
   47.7850000000000         1.743682719562797E-104
   47.9750000000000         2.460264745285659E-104
   48.1650000000000         3.334929100670460E-104
   48.3550000000000         4.341153745287944E-104
   48.5450000000000         5.406890238699345E-104
   48.7350000000000         6.390551221944571E-104
   48.9250000000000         7.050225827108582E-104
   49.1150000000000         7.006284362777086E-104
   49.3050000000000         5.698848933906880E-104
   49.4950000000000         2.343673834910520E-104
   49.6850000000000        -4.107001227611536E-104
   49.8750000000000        -1.498791388155181E-103
   50.0650000000000        -3.191246685866817E-103
   50.2550000000000        -5.670998537660726E-103
   50.4450000000000        -9.127843948569716E-103
   50.6350000000000        -1.373148783335052E-102
   50.8250000000000        -1.958792045685599E-102
   51.0150000000000        -2.667432702200249E-102
   51.2050000000000        -3.474794144705183E-102
   51.3950000000000        -4.322542820486903E-102
   51.5850000000000        -5.103198277037433E-102
   51.7750000000000        -5.642393785362135E-102
   51.9650000000000        -5.679583394379154E-102
   52.1550000000000        -4.849318392247916E-102
   52.3450000000000        -2.666585664985295E-102
   52.5350000000000         1.478595686658813E-102
   52.7250000000000         8.310160192882057E-102
   52.9150000000000         1.862935824777724E-101
   53.1050000000000         3.324146883626452E-101
   53.2950000000000         5.283372460348982E-101
   53.4850000000000         7.779258068059423E-101
   53.6750000000000         1.079509797021196E-100
   53.8650000000000         1.422620660464983E-100
   54.0550000000000         1.784059737699601E-100
   54.2450000000000         2.123518338330441E-100
   54.4350000000000         2.379186073708727E-100
   54.6250000000000         2.464055648689756E-100
   54.8150000000000         2.263947278913877E-100
   55.0050000000000         1.638600358669903E-100
   55.1950000000000         4.274559046041598E-101
   55.3850000000000        -1.538107140078049E-100
   55.5750000000000        -4.414435136971638E-100
   55.7650000000000        -8.316036834035166E-100
   55.9550000000000        -1.327675920971641E-099
   56.1450000000000        -1.920348516289284E-099
   56.3350000000000        -2.582679221392057E-099
   56.5250000000000        -3.265650908807857E-099
   56.7150000000000        -3.895426478703655E-099
   56.9050000000000        -4.373948034222039E-099
   57.0950000000000        -4.584896118505103E-099
   57.2850000000000        -4.407198523616226E-099
   57.4750000000000        -3.738069218520139E-099
   57.6650000000000        -2.526729344017122E-099
   57.8550000000000        -8.182405455276446E-100
   58.0450000000000         1.196009949940234E-099
   58.2350000000000         3.128912689246632E-099
   58.4250000000000         4.362808896811078E-099
   58.6150000000000         4.049717702842672E-099
   58.8050000000000         1.174742657292934E-099
   58.9950000000000        -5.282172226870943E-099
   59.1850000000000        -1.604652938309323E-098
   59.3750000000000        -3.107310237762785E-098
   59.5650000000000        -4.886532522982186E-098
   59.7550000000000        -6.558694936233378E-098
   59.9450000000000        -7.400662697951852E-098
   60.1350000000000        -6.238409427410028E-098
   60.3250000000000        -1.350187129535980E-098
   60.5150000000000         9.583137157721987E-098
   60.7050000000000         2.943364127962373E-097
   60.8950000000000         6.142590592054622E-097
   61.0850000000000         1.087056879963643E-096
   61.2750000000000         1.735958702035202E-096
   61.4650000000000         2.564625701671872E-096
   61.6550000000000         3.541379120803306E-096
   61.8450000000000         4.578968858723075E-096
   62.0350000000000         5.510726687789593E-096
   62.2250000000000         6.065252867262153E-096
   62.4150000000000         5.843565745261093E-096
   62.6050000000000         4.304874428243961E-096
   62.7950000000000         7.696831274337721E-097
   62.9850000000000        -5.548479024291280E-096
   63.1750000000000        -1.546926215377681E-095
   63.3650000000000        -2.971518866753839E-095
   63.5550000000000        -4.871147262177960E-095
   63.7450000000000        -7.230693399190864E-095
   63.9350000000000        -9.941584854302387E-095
   64.1250000000000        -1.275952476984199E-094
   64.3150000000000        -1.525936231052347E-094
   64.5050000000000        -1.679354929189155E-094
   64.6950000000000        -1.646409931664171E-094
   64.8850000000000        -1.312179873665499E-094
   65.0750000000000        -5.410123931199696E-095
   65.2650000000000         8.125878613874522E-095
   65.4550000000000         2.884468662439879E-094
   65.6450000000000         5.770889829268646E-094
   65.8350000000000         9.487048161941496E-094
   66.0250000000000         1.391441941394062E-093
   66.2150000000000         1.873953031266188E-093
   66.4050000000000         2.338994842999144E-093
   66.5950000000000         2.697733862620040E-093
   66.7850000000000         2.826217197727551E-093
   66.9750000000000         2.565962187484924E-093
   67.1650000000000         1.731055445075233E-093
   67.3550000000000         1.244156285101450E-094
   67.5450000000000        -2.434190029325595E-093
   67.7350000000000        -6.066364127196558E-093
   67.9250000000000        -1.077881814291530E-092
   68.1150000000000        -1.639412653172424E-092
   68.3050000000000        -2.247325148140588E-092
   68.4950000000000        -2.823893814005368E-092
   68.6850000000000        -3.251435613260428E-092
   68.8750000000000        -3.369715780116398E-092
   69.0650000000000        -2.979468258134519E-092
   69.2550000000000        -1.855020214614085E-092
   69.4450000000000         2.308714690096407E-093
   69.6350000000000         3.467241168402780E-092
   69.8250000000000         7.948558770794980E-092
   70.0150000000000         1.360220141931364E-091
   70.2050000000000         2.010331904702755E-091
   70.3950000000000         2.678502912980583E-091
   70.5850000000000         3.255736497395663E-091
   70.7750000000000         3.585466980308625E-091
   70.9650000000000         3.463749743618597E-091
   71.1550000000000         2.648046171154595E-091
   71.3450000000000         8.780335735332711E-092
   71.5350000000000        -2.088292356283587E-091
   71.7250000000000        -6.420793974611991E-091
   71.9150000000000        -1.214497067086979E-090
   72.1050000000000        -1.905353809308279E-090
   72.2950000000000        -2.660812803452605E-090
   72.4850000000000        -3.384277775975042E-090
   72.6750000000000        -3.928719850404360E-090
   72.8650000000000        -4.093453983956803E-090
   73.0550000000000        -3.628454498725278E-090
   73.2450000000000        -2.249723243549572E-090
   73.4350000000000         3.307279201064193E-091
   73.6250000000000         4.357263307384346E-090
   73.8150000000000         9.963731904892416E-090
   74.0050000000000         1.708806567493189E-089
   74.1950000000000         2.537274731278481E-089
   74.3850000000000         3.406036941638277E-089
   74.5750000000000         4.189941602179466E-089
   74.7650000000000         4.708193693476477E-089
   74.9550000000000         4.724117482618676E-089
   75.1450000000000         3.954226974691786E-089
   75.3350000000000         2.090132718899823E-089
   75.5250000000000        -1.163453193614093E-089
   75.7150000000000        -6.032314643622616E-089
   75.9050000000000        -1.259749791530656E-088
   76.0950000000000        -2.070374596389504E-088
   76.2850000000000        -2.985816768481630E-088
   76.4750000000000        -3.913082599038230E-088
   76.6650000000000        -4.707478282810367E-088
   76.8550000000000        -5.168913311763994E-088
   77.0450000000000        -5.045375868570114E-088
   77.2350000000000        -4.046765046161371E-088
   77.4250000000000        -1.872207658075251E-088
   77.6150000000000         1.746620314430998E-088
   77.8050000000000         6.984989503520600E-088
   77.9950000000000         1.384848331505191E-087
   78.1850000000000         2.208449446761750E-087
   78.3750000000000         3.109026165315878E-087
   78.5650000000000         3.983074177483734E-087
   78.7550000000000         4.678479926442134E-087
   78.9450000000000         4.994297211324300E-087
   79.1350000000000         4.688344296091604E-087
   79.3250000000000         3.495352594561346E-087
   79.5150000000000         1.158049647789085E-087
   79.7050000000000        -2.527359713215501E-087
   79.8950000000000        -7.651476650930069E-087
   80.0850000000000        -1.412034229416962E-086
   80.2750000000000        -2.157823188657234E-086
   80.4650000000000        -2.933431291696177E-086
   80.6550000000000        -3.630713193579526E-086
   80.8450000000000        -4.100500344977095E-086
   81.0350000000000        -4.156357540251533E-086
   81.2250000000000        -3.586315280854970E-086
   81.4150000000000        -2.174660263189328E-086
   81.6050000000000         2.647417949146789E-087
   81.7950000000000         3.843275028670420E-086
   81.9850000000000         8.542033366302305E-086
   82.1750000000000         1.414984945295506E-085
   82.3650000000000         2.020188294145810E-085
   82.5550000000000         2.592920357487296E-085
   82.7450000000000         3.023327538910250E-085
   82.9350000000000         3.170218976007812E-085
   83.1250000000000         2.868715843702186E-085
   83.3150000000000         1.945724592818906E-085
   83.5050000000000         2.446571184093994E-086
   83.6950000000000        -2.339977442273595E-085
   83.8850000000000        -5.818790540473900E-085
   84.0750000000000        -1.005708148645049E-084
   84.2650000000000        -1.472268386854182E-084
   84.4550000000000        -1.923982504595289E-084
   84.6450000000000        -2.275970924334725E-084
   84.8350000000000        -2.416129302691143E-084
   85.0250000000000        -2.209770989844740E-084
   85.2150000000000        -1.510431188335689E-084
   85.4050000000000        -1.782503107570179E-085
   85.5950000000000         1.893143519082825E-084
   85.7850000000000         4.741230594573032E-084
   85.9750000000000         8.292010322812518E-084
   86.1650000000000         1.231339972905443E-083
   86.3550000000000         1.637006312939295E-083
   86.5450000000000         1.978768300034104E-083
   86.7350000000000         2.163729557733727E-083
   86.9250000000000         2.075259409668747E-083
   87.1150000000000         1.579452893283105E-083
   87.3050000000000         5.377460956165767E-084
   87.4950000000000        -1.173118642856350E-083
   87.6850000000000        -3.633114559378250E-083
   87.8750000000000        -6.843177212549475E-083
   88.0650000000000        -1.068323238137762E-082
   88.2550000000000        -1.486730623284024E-082
   88.4450000000000        -1.890114043110272E-082
   88.6350000000000        -2.205010309624676E-082
   88.8250000000000        -2.332757139873349E-082
   89.0150000000000        -2.151601823191516E-082
   89.2050000000000        -1.523429880537183E-082
   89.3950000000000        -3.064527346918155E-083
   89.5850000000000         1.625019742348916E-082
   89.7750000000000         4.353079913340383E-082
   89.9650000000000         7.881171440512886E-082
   90.1550000000000         1.209285649029244E-081
   90.3450000000000         1.670735497497817E-081
   90.5350000000000         2.123674559314480E-081
   90.7250000000000         2.495190011044081E-081
   90.9150000000000         2.686645833226225E-081
   91.1050000000000         2.575015076874892E-081
   91.2950000000000         2.018414262091526E-081
   91.4850000000000         8.671309607641260E-082
   91.6750000000000        -1.018711218900938E-081
   91.8650000000000        -3.744084537663222E-081
   92.0550000000000        -7.346488400417905E-081
   92.2450000000000        -1.175678574358201E-080
   92.4350000000000        -1.675570926562932E-080
   92.6250000000000        -2.192999846989669E-080
   92.8150000000000        -2.663408864482546E-080
   93.0050000000000        -2.996535324278977E-080
   93.1950000000000        -3.076287429355872E-080
   93.3850000000000        -2.764126257058073E-080
   93.5750000000000        -1.907176037098990E-080
   93.7650000000000        -3.522247410792860E-081
   93.9550000000000         2.033470114667036E-080
   94.1450000000000         5.334142016581147E-080
   94.3350000000000         9.550585739854737E-080
   94.5250000000000         1.455976711845584E-079
   94.7150000000000         2.007180366035586E-079
   94.9050000000000         2.558882345784143E-079
   95.0950000000000         3.037206462930346E-079
   95.2850000000000         3.342544793621977E-079
   95.4750000000000         3.350550187053586E-079
   95.6650000000000         2.916862370400588E-079
   95.8550000000000         1.886682972329316E-079
   96.0450000000000         1.101936107064067E-080
   96.2350000000000        -2.535494981425593E-079
   96.4250000000000        -6.117709834220307E-079
   96.6150000000000        -1.061354335737292E-078
   96.8050000000000        -1.587086176188341E-078
   96.9950000000000        -2.156805313327230E-078
   97.1850000000000        -2.717712177700534E-078
   97.3750000000000        -3.193638675394109E-078
   97.5650000000000        -3.484063189942072E-078
   97.7550000000000        -3.465785148999202E-078
   97.9450000000000        -2.998244526448808E-078
   98.1350000000000        -1.933448915016117E-078
   98.3250000000000        -1.313160041873619E-079
   98.5150000000000         2.519085978312020E-078
   98.7050000000000         6.072446660829369E-078
   98.8950000000000         1.049507347465507E-077
   99.0850000000000         1.562949207396714E-077
   99.2750000000000         2.115876908544756E-077
   99.4650000000000         2.657487913744885E-077
   99.6550000000000         3.115682182654747E-077
   99.8450000000000         3.396546827005075E-077
   100.035000000000         3.386307596812819E-077
   100.225000000000         2.956580129131794E-077
   100.415000000000         1.973707005061701E-077
   100.605000000000         3.128030126110521E-078
   100.795000000000        -2.123178858957631E-077
   100.985000000000        -5.379528178412412E-077
   101.175000000000        -9.421835337512083E-077
   101.365000000000        -1.410570081398910E-076
   101.555000000000        -1.914676389838738E-076
   101.745000000000        -2.409480946323950E-076
   101.935000000000        -2.831680426643560E-076
   102.125000000000        -3.099467909199686E-076
   102.315000000000        -3.114434026821176E-076
   102.505000000000        -2.766256037355960E-076
   102.695000000000        -1.940783656004010E-076
   102.885000000000        -5.319783639436853E-077
   103.075000000000         1.542106438014809E-076
   103.265000000000         4.319519510133796E-076
   103.455000000000         7.771537212536370E-076
   103.645000000000         1.177815161781248E-075
   103.835000000000         1.610413284900801E-075
   104.025000000000         2.037871433574529E-075
   104.215000000000         2.408276815802396E-075
   104.405000000000         2.654803383184149E-075
   104.595000000000         2.697340712567630E-075
   104.785000000000         2.446333269674016E-075
   104.975000000000         1.809280901802404E-075
   105.165000000000         7.002240479665806E-076
   105.355000000000        -9.476785771016568E-076
   105.545000000000        -3.166686208980702E-075
   105.735000000000        -5.936747702926985E-075
   105.925000000000        -9.166638307012512E-075
   106.115000000000        -1.267567043300933E-074
   106.305000000000        -1.617829909425099E-074
   106.495000000000        -1.927452970201072E-074
   106.685000000000        -2.144952148160508E-074
   106.875000000000        -2.208606906255997E-074
   107.065000000000        -2.049362869843617E-074
   107.255000000000        -1.595711758949050E-074
   107.445000000000        -7.807741423942856E-075
   107.635000000000         4.483499999708682E-075
   107.825000000000         2.119127856934911E-074
   108.015000000000         4.220502593531360E-074
   108.205000000000         6.688993019746582E-074
   108.395000000000         9.395223243393146E-074
   108.585000000000         1.213255090718332E-073
   108.775000000000         1.460987042798807E-073
   108.965000000000         1.645100023887187E-073
   109.155000000000         1.720325498133259E-073
   109.345000000000         1.635778050845571E-073
   109.535000000000         1.338391291328280E-073
   109.725000000000         7.779137061621242E-074
   109.915000000000        -8.648978207794533E-075
   110.105000000000        -1.278143722783134E-073