  -1.42500000000000         0.000000000000000E+000
  -1.23500000000000         0.000000000000000E+000
  -1.04500000000000         0.000000000000000E+000
 -0.855000000000000         0.000000000000000E+000
 -0.665000000000000         0.000000000000000E+000
 -0.475000000000000         0.000000000000000E+000
 -0.285000000000000         0.000000000000000E+000
 -9.499999999999975E-002    0.000000000000000E+000
  9.500000000000020E-002    0.000000000000000E+000
  0.285000000000000         0.000000000000000E+000
  0.475000000000000         0.000000000000000E+000
  0.665000000000000         0.000000000000000E+000
  0.855000000000000         0.000000000000000E+000
   1.04500000000000         0.000000000000000E+000
   1.23500000000000         0.000000000000000E+000
   1.42500000000000         0.000000000000000E+000
   1.61500000000000         0.000000000000000E+000
   1.80500000000000         0.000000000000000E+000
   1.99500000000000         0.000000000000000E+000
   2.18500000000000         0.000000000000000E+000
   2.37500000000000         0.000000000000000E+000
   2.56500000000000         0.000000000000000E+000
   2.75500000000000         0.000000000000000E+000
   2.94500000000000         0.000000000000000E+000
   3.13500000000000         0.000000000000000E+000
   3.32500000000000         0.000000000000000E+000
   3.51500000000000         0.000000000000000E+000
   3.70500000000000         0.000000000000000E+000
   3.89500000000000         0.000000000000000E+000
   4.08500000000000         0.000000000000000E+000
   4.27500000000000         0.000000000000000E+000
   4.46500000000000         0.000000000000000E+000
   4.65500000000000         0.000000000000000E+000
   4.84500000000000         3.992174847613732E-140
   5.03500000000000        -8.629093420505740E-135
   5.22500000000000        -2.038058996274726E-132
   5.41500000000000        -1.160056364276832E-130
   5.60500000000000        -3.662051332707191E-129
   5.79500000000000        -7.985234063869440E-128
   5.98500000000000        -1.331720192666487E-126
   6.17500000000000        -1.800802365534132E-125
   6.36500000000000        -2.049992635194056E-124
   6.55500000000000        -2.016099221119775E-123
   6.74500000000000        -1.745170997345853E-122
   6.93500000000000        -1.348022663769836E-121
   7.12500000000000        -9.386469611809180E-121
   7.31500000000000        -5.935095690194034E-120
   7.50500000000000        -3.424105254387283E-119
   7.69500000000000        -1.806360257310719E-118
   7.88500000000000        -8.704838054041066E-118
   8.07500000000000        -3.809951791696575E-117
   8.26500000000000        -1.492900392923725E-116
   8.45500000000000        -5.061083587675071E-116
   8.64500000000000        -1.347214537682237E-115
   8.83500000000000        -1.685372892830472E-115
   9.02500000000000         1.017473544514150E-114
   9.21500000000000         1.074228712468830E-113
   9.40500000000000         6.560118483345175E-113
   9.59500000000000         3.252210665251348E-112
   9.78500000000000         1.416529358435098E-111
   9.97500000000000         5.582330268860084E-111
   10.1650000000000         2.012886674588740E-110
   10.3550000000000         6.644290805523992E-110
   10.5450000000000         1.986379801757819E-109
   10.7350000000000         5.214315878117896E-109
   10.9250000000000         1.097855307414272E-108
   11.1150000000000         1.173982820439853E-108
   11.3050000000000        -4.692520928999161E-108
   11.4950000000000        -4.261574679765328E-107
   11.6850000000000        -2.184855709559311E-106
   11.8750000000000        -9.202229488210057E-106
   12.0650000000000        -3.469104493627791E-105
   12.2550000000000        -1.211315652580134E-104
   12.4450000000000        -3.986214610577865E-104
   12.6350000000000        -1.248941163822184E-103
   12.8250000000000        -3.750035972525672E-103
   13.0150000000000        -1.083883732221715E-102
   13.2050000000000        -3.025353024297824E-102
   13.3950000000000        -8.174188171628510E-102
   13.5850000000000        -2.141713413820957E-101
   13.7750000000000        -5.448869469480969E-101
   13.9650000000000        -1.347424364445113E-100
   14.1550000000000        -3.240740443746836E-100
   14.3450000000000        -7.583780628779846E-100
   14.5350000000000        -1.726848013582328E-099
   14.7250000000000        -3.824907281708316E-099
   14.9150000000000        -8.235070388557175E-099
   15.1050000000000        -1.721154832988509E-098
   15.2950000000000        -3.484503151342676E-098
   15.4850000000000        -6.809785235067788E-098
   15.6750000000000        -1.277553794755367E-097
   15.8650000000000        -2.279288327848348E-097
   16.0550000000000        -3.801502706035949E-097
   16.2450000000000        -5.719497908338804E-097
   16.4350000000000        -7.060071822777839E-097
   16.6250000000000        -4.462969078520840E-097
   16.8150000000000         1.144014627179253E-096
   17.0050000000000         6.412591723281785E-096
   17.1950000000000         2.086025624622443E-095
   17.3850000000000         5.677017007413904E-095
   17.5750000000000         1.405625122852657E-094
   17.7650000000000         3.273424101985238E-094
   17.9550000000000         7.290535690553489E-094
   18.1450000000000         1.567874553577050E-093
   18.3350000000000         3.275597234763034E-093
   18.5250000000000         6.675304251825597E-093
   18.7150000000000         1.330784691551212E-092
   18.9050000000000         2.600885027841299E-092
   19.0950000000000         4.991201770011777E-092
   19.2850000000000         9.416584779102358E-092
   19.4750000000000         1.748242827553046E-091
   19.6650000000000         3.196359806246440E-091
   19.8550000000000         5.758496066731367E-091
   20.0450000000000         1.022720091236624E-090
   20.2350000000000         1.791193811537263E-090
   20.4250000000000         3.094312184420900E-090
   20.6150000000000         5.273212834878846E-090
   20.8050000000000         8.865150995905652E-090
   20.9950000000000         1.470146077908477E-089
   21.1850000000000         2.404424071069820E-089
   21.3750000000000         3.876959371192889E-089
   21.5650000000000         6.160026244176737E-089
   21.7550000000000         9.637756032297141E-089
   21.9450000000000         1.483349670734017E-088
   22.1350000000000         2.242827520694319E-088
   22.3250000000000         3.325171810532820E-088
   22.5150000000000         4.821023734278593E-088
   22.7050000000000         6.808970269665907E-088
   22.8950000000000         9.312518864195910E-088
   23.0850000000000         1.221600226667748E-087
   23.2750000000000         1.511080576082653E-087
   23.4650000000000         1.702700927686274E-087
   23.6550000000000         1.598153903329993E-087
   23.8450000000000         8.239364507147899E-088
   24.0350000000000        -1.286436204285916E-087
   24.2250000000000        -5.876011544668858E-087
   24.4150000000000        -1.484458777087009E-086
   24.6050000000000        -3.126786584492176E-086
   24.7950000000000        -6.001228079358080E-086
   24.9850000000000        -1.086191693593882E-085
   25.1750000000000        -1.885504256628031E-085
   25.3650000000000        -3.169054188395465E-085
   25.5550000000000        -5.187309860481128E-085
   25.7450000000000        -8.300444737127429E-085
   25.9350000000000        -1.301660350079015E-084
   26.1250000000000        -2.003832142147653E-084
   26.3150000000000        -3.031560238609515E-084
   26.5050000000000        -4.510123431426198E-084
   26.6950000000000        -6.599897338307117E-084
   26.8850000000000        -9.498726878677949E-084
   27.0750000000000        -1.343888678038855E-083
   27.2650000000000        -1.867381165899562E-083
   27.4550000000000        -2.544706789141741E-083
   27.6450000000000        -3.393217113544717E-083
   27.8350000000000        -4.412645283706977E-083
   28.0250000000000        -5.567480118085931E-083
   28.2150000000000        -6.758923709835703E-083
   28.4050000000000        -7.781738240513722E-083
   28.5950000000000        -8.259638457440086E-083
   28.7850000000000        -7.550830643166824E-083
   28.9750000000000        -4.612808670123310E-083
   29.1650000000000         2.187398821889045E-083
   29.3550000000000         1.533460935407002E-082
   29.5450000000000         3.851903951508820E-082
   29.7350000000000         7.710592195590381E-082
   29.9250000000000         1.387477978063454E-081
   30.1150000000000         2.341673863510178E-081
   30.3050000000000         3.781376011479420E-081
   30.4950000000000         5.906795965450811E-081
   30.6850000000000         8.984872438808845E-081
   30.8750000000000         1.336563750658968E-080
   31.0650000000000         1.950018582075178E-080
   31.2550000000000         2.795914087259714E-080
   31.4450000000000         3.944962742731841E-080
   31.6350000000000         5.482746296877886E-080
   31.8250000000000         7.509942173879593E-080
   32.0150000000000         1.014078025413786E-079
   32.2050000000000         1.349858833146021E-079
   32.3950000000000         1.770678298737446E-079
   32.5850000000000         2.287298029628996E-079
   32.7750000000000         2.906298163949880E-079
   32.9650000000000         3.626016367064159E-079
   33.1550000000000         4.430418157950921E-079
   33.3450000000000         5.280077704831244E-079
   33.5350000000000         6.099174482476410E-079
   33.7250000000000         6.757061741431475E-079
   33.9150000000000         7.042522935192311E-079
   34.1050000000000         6.628287610425509E-079
   34.2950000000000         5.022716402584245E-079
   34.4850000000000         1.504778327808936E-079
   34.6750000000000        -4.962465556630363E-079
   34.8650000000000        -1.584567267025154E-078
   35.0550000000000        -3.318920386000606E-078
   35.2450000000000        -5.980523379080452E-078
   35.4350000000000        -9.951487885811707E-078
   35.6250000000000        -1.574498628288368E-077
   35.8150000000000        -2.404242911215213E-077
   36.0050000000000        -3.573852111951317E-077
   36.1950000000000        -5.199483072425466E-077
   36.3850000000000        -7.430206726974573E-077
   36.5750000000000        -1.045505315449994E-076
   36.7650000000000        -1.451070884747111E-076
   36.9550000000000        -1.988953880835943E-076
   37.1450000000000        -2.694737951484580E-076
   37.3350000000000        -3.611024276443695E-076
   37.5250000000000        -4.787866889601764E-076
   37.7150000000000        -6.282795512301393E-076
   37.9050000000000        -8.160184688640175E-076
   38.0950000000000        -1.048965078521902E-075
   38.2850000000000        -1.334306758895995E-075
   38.4750000000000        -1.678968789651898E-075
   38.6650000000000        -2.088874556872923E-075
   38.8550000000000        -2.567879555488909E-075
   39.0450000000000        -3.116293744394263E-075
   39.2350000000000        -3.728897491233870E-075
   39.4250000000000        -4.392350875629151E-075
   39.6150000000000        -5.081897230246176E-075
   39.8050000000000        -5.757273141819447E-075
   39.9950000000000        -6.357763471213100E-075
   40.1850000000000        -6.796387341856375E-075
   40.3750000000000        -6.953277021653763E-075
   40.5650000000000        -6.668425329184934E-075
   40.7550000000000        -5.734139447627406E-075
   40.9450000000000        -3.887762235270571E-075
   41.1350000000000        -8.055199477775606E-076
   41.3250000000000         3.901258052899891E-075
   41.5150000000000         1.068581309673656E-074
   41.7050000000000         2.005918834849876E-074
   41.8950000000000         3.257396276353313E-074
   42.0850000000000         4.879460593964325E-074
   42.2750000000000         6.924966242515536E-074
   42.4650000000000         9.436003876098901E-074
   42.6550000000000         1.243368049707214E-073
   42.8450000000000         1.590412940041735E-073
   43.0350000000000         1.978001277621052E-073
   43.2250000000000         2.391684591730209E-073
   43.4150000000000         2.806366626081217E-073
   43.6050000000000         3.182795362910022E-073
   43.7950000000000         3.463535520796896E-073
   43.9850000000000         3.568576810567416E-073
   44.1750000000000         3.390877989270294E-073
   44.3650000000000         2.792345780890282E-073
   44.5550000000000         1.601008717580938E-073
   44.7450000000000        -3.895275746560728E-074
   44.9350000000000        -3.416869090303636E-073
   45.1250000000000        -7.740957625302242E-073
   45.3150000000000        -1.362717435277879E-072
   45.5050000000000        -2.131866038590819E-072
   45.6950000000000        -3.099480947866679E-072
   45.8850000000000        -4.271284465231217E-072
   46.0750000000000        -5.632973620243297E-072
   46.2650000000000        -7.140263625259559E-072
   46.4550000000000        -8.706770317733749E-072
   46.6450000000000        -1.018998858113555E-071
   46.8350000000000        -1.137601340207042E-071
   47.0250000000000        -1.196417465425357E-071
   47.2150000000000        -1.155342026789954E-071
   47.4050000000000        -9.633073006570957E-072
   47.5950000000000        -5.581468071637636E-072
   47.7850000000000         1.323113912029663E-072
   47.9750000000000         1.187397434527541E-071
   48.1650000000000         2.688413284317212E-071
   48.3550000000000         4.710502179148061E-071
   48.5450000000000         7.311012373465167E-071
   48.7350000000000         1.051392556042383E-070
   48.9250000000000         1.429016656114050E-070
   49.1150000000000         1.853399465476644E-070
   49.3050000000000         2.303621530016919E-070
   49.4950000000000         2.745564953855596E-070
   49.6850000000000         3.129114555026013E-070
   49.8750000000000         3.385737806835677E-070
   50.0650000000000         3.426869330033725E-070
   50.2550000000000         3.143622317974915E-070
   50.4450000000000         2.408428132114768E-070
   50.6350000000000         1.079249815388178E-070
   50.8250000000000        -9.929939172325546E-071
   51.0150000000000        -3.953241395678088E-070
   51.2050000000000        -7.926963219312954E-070
   51.3950000000000        -1.300061611004462E-069
   51.5850000000000        -1.919820299058923E-069
   51.7750000000000        -2.645479672985174E-069
   51.9650000000000        -3.458851255082657E-069
   52.1550000000000        -4.327309474084663E-069
   52.3450000000000        -5.201394260232345E-069
   52.5350000000000        -6.013092967118448E-069
   52.7250000000000        -6.675162401799360E-069
   52.9150000000000        -7.081831774233094E-069
   53.1050000000000        -7.111142008704744E-069
   53.2950000000000        -6.629005988505560E-069
   53.4850000000000        -5.494801385625110E-069
   53.6750000000000        -3.567925152177803E-069
   53.8650000000000        -7.142551862867920E-070
   54.0550000000000         3.189085688293620E-069
   54.2450000000000         8.252815119708369E-069
   54.4350000000000         1.458100348439209E-068
   54.6250000000000         2.228572127127940E-068
   54.8150000000000         3.151313051698712E-068
   55.0050000000000         4.248210747181003E-068
   55.1950000000000         5.553410802998064E-068
   55.3850000000000         7.118912473975721E-068
   55.5750000000000         9.019696263631203E-068
   55.7650000000000         1.135655634046169E-067
   55.9550000000000         1.425388954561010E-067
   56.1450000000000         1.784865958117588E-067
   56.3350000000000         2.226572957026922E-067
   56.5250000000000         2.757393531767545E-067
   56.7150000000000         3.371694210958046E-067
   56.9050000000000         4.041347145406729E-067
   57.0950000000000         4.702336796537453E-067
   57.2850000000000         5.237972317410784E-067
   57.4750000000000         5.459340256211621E-067
   57.6650000000000         5.084526131827729E-067
   57.8550000000000         3.719328917498613E-067
   58.0450000000000         8.436718497627294E-068
   58.2350000000000        -4.190398473832860E-067
   58.4250000000000        -1.214148642382920E-066
   58.6150000000000        -2.383319832087478E-066
   58.8050000000000        -4.006985396525064E-066
   58.9950000000000        -6.150331989099024E-066
   59.1850000000000        -8.844224657834819E-066
   59.3750000000000        -1.205986544844325E-065
   59.5650000000000        -1.567731997395074E-065
   59.7550000000000        -1.944900284976409E-065
   59.9450000000000        -2.296051284893821E-065
   60.1350000000000        -2.559283469913536E-065
   60.3250000000000        -2.649180553461290E-065
   60.5150000000000        -2.455273881294036E-065
   60.7050000000000        -1.842998395549764E-065
   60.8950000000000        -6.582666884023462E-066
   61.0850000000000         1.263148387836435E-065
   61.2750000000000         4.080291641207670E-065
   61.4650000000000         7.924864934518294E-065
   61.6550000000000         1.287177627935307E-064
   61.8450000000000         1.890264153246040E-064
   62.0350000000000         2.586343567093289E-064
   62.2250000000000         3.341868680775855E-064
   62.4150000000000         4.100598924128488E-064
   62.6050000000000         4.779608260653804E-064
   62.7950000000000         5.266515709641023E-064
   62.9850000000000         5.418721201935527E-064
   63.1750000000000         5.065499840553462E-064
   63.3650000000000         4.013808749616427E-064
   63.5550000000000         2.058571582640209E-064
   63.7450000000000        -1.001989161684666E-064
   63.9350000000000        -5.345708905902243E-064
   64.1250000000000        -1.110067626189754E-063
   64.3150000000000        -1.831491200304582E-063
   64.5050000000000        -2.692271724116388E-063
   64.6950000000000        -3.670940767473976E-063
   64.8850000000000        -4.727661023243647E-063
   65.0750000000000        -5.801062245814791E-063
   65.2650000000000        -6.805647211205986E-063
   65.4550000000000        -7.630024066989212E-063
   65.6450000000000        -8.136194939448670E-063
   65.8350000000000        -8.160092831278183E-063
   66.0250000000000        -7.513524173393422E-063
   66.2150000000000        -5.987664005244856E-063
   66.4050000000000        -3.358290869107534E-063
   66.5950000000000         6.069328802312416E-064
   66.7850000000000         6.138608087581727E-063
   66.9750000000000         1.345230783208889E-062
   67.1650000000000         2.273053500832795E-062
   67.3550000000000         3.409809257969486E-062
   67.5450000000000         4.758850868580735E-062
   67.7350000000000         6.309875755028327E-062
   67.9250000000000         8.032940478153116E-062
   68.1150000000000         9.870769381576914E-062
   68.3050000000000         1.172922205783373E-061
   68.4950000000000         1.346599636030997E-061
   68.6850000000000         1.487797652297263E-061
   68.8750000000000         1.568810393595429E-061
   69.0650000000000         1.553325268879749E-061
   69.2550000000000         1.395531592807389E-061
   69.4450000000000         1.039851109176739E-061
   69.6350000000000         4.216722455853790E-062
   69.8250000000000        -5.304582344096977E-062
   70.0150000000000        -1.890682979961572E-061
   70.2050000000000        -3.729206425457628E-061
   70.3950000000000        -6.102720827359109E-061
   70.5850000000000        -9.041532139829806E-061
   70.7750000000000        -1.253323910816429E-060
   70.9650000000000        -1.650312985134770E-060
   71.1550000000000        -2.079188312334611E-060
   71.3450000000000        -2.513169728503145E-060
   71.5350000000000        -2.912261022137196E-060
   71.7250000000000        -3.221149821998258E-060
   71.9150000000000        -3.367701875680249E-060
   72.1050000000000        -3.262454499656697E-060
   72.2950000000000        -2.799586763473024E-060
   72.4850000000000        -1.859903572860096E-060
   72.6750000000000        -3.164078558103652E-061
   72.8650000000000         1.956961729780012E-060
   73.0550000000000         5.072894102760210E-060
   73.2450000000000         9.114143351517087E-060
   73.4350000000000         1.411260134127051E-059
   73.6250000000000         2.002405425440152E-059
   73.8150000000000         2.669908216849578E-059
   74.0050000000000         3.385111374120289E-059
   74.1950000000000         4.102336111256880E-059
   74.3850000000000         4.755724244078215E-059
   74.5750000000000         5.256594562902308E-059
   74.7650000000000         5.491796833274309E-059
   74.9550000000000         5.323672479784871E-059
   75.1450000000000         4.592353420712793E-059
   75.3350000000000         3.121233873920942E-059
   75.5250000000000         7.265121638438669E-060
   75.7150000000000        -2.768307840043437E-059
   75.9050000000000        -7.512177256381166E-059
   76.0950000000000        -1.359999954339870E-058
   76.2850000000000        -2.103977358815414E-058
   76.4750000000000        -2.971394078379329E-058
   76.6650000000000        -3.933638214956525E-058
   76.8550000000000        -4.940764139474138E-058
   77.0450000000000        -5.917229609172107E-058
   77.2350000000000        -6.758389721414611E-058
   77.4250000000000        -7.328443493863216E-058
   77.6150000000000        -7.460669985988140E-058
   77.8050000000000        -6.960897271404989E-058
   77.9950000000000        -5.615192191593267E-058
   78.1850000000000        -3.202711089245917E-058
   78.3750000000000         4.855200547550631E-059
   78.5650000000000         5.621452767773951E-058
   78.7550000000000         1.230854804070803E-057
   78.9450000000000         2.054473737817405E-057
   79.1350000000000         3.018142225229166E-057
   79.3250000000000         4.088113361767781E-057
   79.5150000000000         5.207757420774999E-057
   79.7050000000000         6.294286734204798E-057
   79.8950000000000         7.236781840424386E-057
   80.0850000000000         7.896171484632019E-057
   80.2750000000000         8.107848627417517E-057
   80.4650000000000         7.687575268250306E-057
   80.6550000000000         6.441225468550172E-057
   80.8450000000000         4.178726778260365E-057
   81.0350000000000         7.322794027054112E-058
   81.2250000000000        -4.021438042621967E-057
   81.4150000000000        -1.013581551047808E-056
   81.6050000000000        -1.756685337770549E-056
   81.7950000000000        -2.614546449926333E-056
   81.9850000000000        -3.555180084050449E-056
   82.1750000000000        -4.529429195935227E-056
   82.3650000000000        -5.469637381295540E-056
   82.5550000000000        -6.289399234883404E-056
   82.7450000000000        -6.884684199308100E-056
   82.9350000000000        -7.136591451404446E-056
   83.1250000000000        -6.915928026025286E-056
   83.3150000000000        -6.089711901291883E-056
   83.5050000000000        -4.529590754493607E-056
   83.6950000000000        -2.122042837402807E-056
   83.8850000000000         1.219901631763537E-056
   84.0750000000000         5.543801375499353E-056
   84.2650000000000         1.084429404643738E-055
   84.4550000000000         1.704950033057248E-055
   84.6450000000000         2.400795503881885E-055
   84.8350000000000         3.147669635701183E-055
   85.0250000000000         3.911114094405467E-055
   85.2150000000000         4.645736265908075E-055
   85.4050000000000         5.294739892919449E-055
   85.5950000000000         5.789825929119220E-055
   85.7850000000000         6.051543610109378E-055
   85.9750000000000         5.990194637186392E-055
   86.1650000000000         5.507428672525750E-055
   86.3550000000000         4.498716608655788E-055
   86.5450000000000         2.856947604953683E-055
   86.7350000000000         4.774619912154980E-056
   86.9250000000000        -2.735103503442315E-055
   87.1150000000000        -6.857731556563434E-055
   87.3050000000000        -1.193725516005163E-054
   87.4950000000000        -1.797549009316123E-054
   87.6850000000000        -2.491096373849417E-054
   87.8750000000000        -3.259714567303601E-054
   88.0650000000000        -4.077742519317240E-054
   88.2550000000000        -4.905757414297827E-054
   88.4450000000000        -5.687709873588081E-054
   88.6350000000000        -6.348172996798554E-054
   88.8250000000000        -6.790032173221443E-054
   89.0150000000000        -6.893059017702926E-054
   89.2050000000000        -6.513937982675701E-054
   89.3950000000000        -5.488438793814033E-054
   89.5850000000000        -3.636538147325866E-054
   89.7750000000000        -7.713714203102946E-055
   89.9650000000000         3.287084526706153E-054
   90.1550000000000         8.692762306631711E-054
   90.3450000000000         1.554803954929692E-053
   90.5350000000000         2.387175247953174E-053
   90.7250000000000         3.356091672144570E-053
   90.9150000000000         4.434714531257946E-053
   91.1050000000000         5.574976102411673E-053
   91.2950000000000         6.702885633807800E-053
   91.4850000000000         7.714303491714666E-053
   91.6750000000000         8.471821022794860E-053
   91.8650000000000         8.803552899488013E-053
   92.0550000000000         8.504806100325645E-053
   92.2450000000000         7.343712104148129E-053
   92.4350000000000         5.071966858648405E-053
   92.6250000000000         1.441781518656444E-053
   92.8150000000000        -3.770033106026462E-053
   93.0050000000000        -1.073028376687187E-052
   93.1950000000000        -1.950992177505206E-052
   93.3850000000000        -3.003770181771636E-052
   93.5750000000000        -4.204885992384446E-052
   93.7650000000000        -5.503200025578128E-052
   93.9550000000000        -6.817887267181137E-052
   94.1450000000000        -8.034331767753553E-052
   94.3350000000000        -9.001721876046697E-052
   94.5250000000000        -9.533265173756625E-052
   94.7150000000000        -9.410032758125374E-052
   94.9050000000000        -8.389462185278918E-052
   95.0950000000000        -6.219468037003239E-052
   95.2850000000000        -2.658899833180796E-052
   95.4750000000000         2.495276652768948E-052
   95.6650000000000         9.374234945472978E-052
   95.8550000000000         1.799785598698396E-051
   96.0450000000000         2.823136897891475E-051
   96.2350000000000         3.974084748177778E-051
   96.4250000000000         5.195144778436095E-051
   96.6150000000000         6.401338029909125E-051
   96.8050000000000         7.478159773318309E-051
   96.9950000000000         8.281593141600519E-051
   97.1850000000000         8.640875608186457E-051
   97.3750000000000         8.364705101560411E-051
   97.5650000000000         7.251479306945305E-051
   97.7550000000000         5.103982636303271E-051
   97.9450000000000         1.748660572118313E-051
   98.1350000000000        -2.940753258853541E-051
   98.3250000000000        -9.015961667239481E-051
   98.5150000000000        -1.642443559922069E-050
   98.7050000000000        -2.497921549076691E-050
   98.8950000000000        -3.433067055557179E-050
   99.0850000000000        -4.394329946159831E-050
   99.2750000000000        -5.308116055495800E-050
   99.4650000000000        -6.080586577296399E-050
   99.6550000000000        -6.599118664268657E-050
   99.8450000000000        -6.735813026084910E-050
   100.035000000000        -6.353378061376959E-050
   100.225000000000        -5.313621102340743E-050
   100.415000000000        -3.488632116051780E-050
   100.605000000000        -7.745527490612399E-051
   100.795000000000         2.892413735844225E-050
   100.985000000000         7.518372094778674E-050
   101.175000000000         1.303340895451812E-049
   101.365000000000         1.927381279839676E-049
   101.555000000000         2.596639267298140E-049
   101.745000000000         3.271672814732562E-049
   101.935000000000         3.900340420773850E-049
   102.125000000000         4.418041589358059E-049
   102.315000000000         4.748993530344118E-049
   102.505000000000         4.808748432926791E-049
   102.695000000000         4.508121771368632E-049
   102.885000000000         3.758646416651982E-049
   103.075000000000         2.479587637561933E-049
   103.265000000000         6.064491884769429E-050
   103.455000000000        -1.899229209286827E-049
   103.645000000000        -5.039135588713330E-049
   103.835000000000        -8.767034951192847E-049
   104.025000000000        -1.297791188543888E-048
   104.215000000000        -1.749830019648953E-048
   104.405000000000        -2.207886783871427E-048
   104.595000000000        -2.639047279804385E-048
   104.785000000000        -3.002500622966040E-048
   104.975000000000        -3.250237134336811E-048
   105.165000000000        -3.328488703626269E-048
   105.355000000000        -3.180023096800982E-048
   105.545000000000        -2.747372657777946E-048
   105.735000000000        -1.977031587013919E-048
   105.925000000000        -8.245935375087751E-049
   106.115000000000         7.392772435285033E-049
   106.305000000000         2.722241145667833E-048
   106.495000000000         5.103349466997157E-048
   106.685000000000         7.826197926187738E-048
   106.875000000000         1.079269522811688E-047
   107.065000000000         1.385807767145147E-047
   107.255000000000         1.682788541378498E-047
   107.445000000000         1.945767081866964E-047
   107.635000000000         2.145622249551473E-047
   107.825000000000         2.249304868282694E-047
   108.015000000000         2.221076022914700E-047
   108.205000000000         2.024281858504067E-047
   108.395000000000         1.623686325031774E-047
   108.585000000000         9.883505621557825E-048
   108.775000000000         9.500768010455960E-049
   108.965000000000        -1.068164416612295E-047
   109.155000000000        -2.497520213085509E-047
   109.345000000000        -4.169874987146307E-047
   109.535000000000        -6.038638668794062E-047
   109.725000000000        -8.030459300385673E-047
   109.915000000000        -1.004272378143873E-046
   110.105000000000        -1.194229735153977E-046