  -1.42500000000000         0.000000000000000E+000
  -1.23500000000000         0.000000000000000E+000
  -1.04500000000000         0.000000000000000E+000
 -0.855000000000000         0.000000000000000E+000
 -0.665000000000000         0.000000000000000E+000
 -0.475000000000000         0.000000000000000E+000
 -0.285000000000000         0.000000000000000E+000
 -9.499999999999975E-002    0.000000000000000E+000
  9.500000000000020E-002    0.000000000000000E+000
  0.285000000000000         0.000000000000000E+000
  0.475000000000000         0.000000000000000E+000
  0.665000000000000         0.000000000000000E+000
  0.855000000000000         0.000000000000000E+000
   1.04500000000000         0.000000000000000E+000
   1.23500000000000         0.000000000000000E+000
   1.42500000000000         0.000000000000000E+000
   1.61500000000000         0.000000000000000E+000
   1.80500000000000         0.000000000000000E+000
   1.99500000000000         0.000000000000000E+000
   2.18500000000000         0.000000000000000E+000
   2.37500000000000         0.000000000000000E+000
   2.56500000000000         0.000000000000000E+000
   2.75500000000000         0.000000000000000E+000
   2.94500000000000         0.000000000000000E+000
   3.13500000000000         0.000000000000000E+000
   3.32500000000000         0.000000000000000E+000
   3.51500000000000         0.000000000000000E+000
   3.70500000000000         0.000000000000000E+000
   3.89500000000000         0.000000000000000E+000
   4.08500000000000         0.000000000000000E+000
   4.27500000000000         0.000000000000000E+000
   4.46500000000000         0.000000000000000E+000
   4.65500000000000         0.000000000000000E+000
   4.84500000000000         0.000000000000000E+000
   5.03500000000000         0.000000000000000E+000
   5.22500000000000         0.000000000000000E+000
   5.41500000000000         0.000000000000000E+000
   5.60500000000000         0.000000000000000E+000
   5.79500000000000         0.000000000000000E+000
   5.98500000000000         0.000000000000000E+000
   6.17500000000000         0.000000000000000E+000
   6.36500000000000         0.000000000000000E+000
   6.55500000000000         0.000000000000000E+000
   6.74500000000000         0.000000000000000E+000
   6.93500000000000         2.387301901051261E-191
   7.12500000000000        -8.769546154296872E-188
   7.31500000000000        -7.790516733436878E-186
   7.50500000000000         1.333011350758473E-181
   7.69500000000000         1.258848920172762E-179
   7.88500000000000         6.061328460393988E-178
   8.07500000000000         1.978865424358545E-176
   8.26500000000000         4.912975497473092E-175
   8.45500000000000         9.868404329871411E-174
   8.64500000000000         1.667050522922513E-172
   8.83500000000000         2.432163112245509E-171
   9.02500000000000         3.124761644177203E-170
   9.21500000000000         3.588237434297350E-169
   9.40500000000000         3.726525167869733E-168
   9.59500000000000         3.533856648939279E-167
   9.78500000000000         3.084405253313280E-166
   9.97500000000000         2.494511507278598E-165
   10.1650000000000         1.880092004888102E-164
   10.3550000000000         1.327080968804852E-163
   10.5450000000000         8.810578518571160E-163
   10.7350000000000         5.522415873002745E-162
   10.9250000000000         3.278693576311934E-161
   11.1150000000000         1.849168390642481E-160
   11.3050000000000         9.932559004518191E-160
   11.4950000000000         5.092416372013355E-159
   11.6850000000000         2.496942998979880E-158
   11.8750000000000         1.172846057617241E-157
   12.0650000000000         5.284831114022203E-157
   12.2550000000000         2.287026059037088E-156
   12.4450000000000         9.513210433822269E-156
   12.6350000000000         3.805596736549674E-155
   12.8250000000000         1.464236448618878E-154
   13.0150000000000         5.416619640177505E-154
   13.2050000000000         1.924489032285919E-153
   13.3950000000000         6.553712454677475E-153
   13.5850000000000         2.131558135632643E-152
   13.7750000000000         6.580905246427355E-152
   13.9650000000000         1.907799467685492E-151
   14.1550000000000         5.085852267182929E-151
   14.3450000000000         1.189839232864937E-150
   14.5350000000000         2.119680895390964E-150
   14.7250000000000         7.652790768746382E-151
   14.9150000000000        -1.765248673898257E-149
   15.1050000000000        -1.197543378839754E-148
   15.2950000000000        -5.709153716867880E-148
   15.4850000000000        -2.349328987621144E-147
   15.6750000000000        -8.864354637218910E-147
   15.8650000000000        -3.148682230109931E-146
   16.0550000000000        -1.067746600646759E-145
   16.2450000000000        -3.485865647860156E-145
   16.4350000000000        -1.101618646915499E-144
   16.6250000000000        -3.382773806996187E-144
   16.8150000000000        -1.012100323898031E-143
   17.0050000000000        -2.956452179294108E-143
   17.1950000000000        -8.444901575131229E-143
   17.3850000000000        -2.361696283685715E-142
   17.5750000000000        -6.472550442895503E-142
   17.7650000000000        -1.739710595601465E-141
   17.9550000000000        -4.588662205552935E-141
   18.1450000000000        -1.188231141994847E-140
   18.3350000000000        -3.021820431820649E-140
   18.5250000000000        -7.549015598285782E-140
   18.7150000000000        -1.852779061379636E-139
   18.9050000000000        -4.467693745622219E-139
   19.0950000000000        -1.058375433987514E-138
   19.2850000000000        -2.462713073339089E-138
   19.4750000000000        -5.626910984674294E-138
   19.6650000000000        -1.261839658825576E-137
   19.8550000000000        -2.775394826925487E-137
   20.0450000000000        -5.981707318864551E-137
   20.2350000000000        -1.261653035661705E-136
   20.4250000000000        -2.599417634127083E-136
   20.6150000000000        -5.217939905340166E-136
   20.8050000000000        -1.016565989400922E-135
   20.9950000000000        -1.910761037455932E-135
   21.1850000000000        -3.431478106334602E-135
   21.3750000000000        -5.785813569691534E-135
   21.5650000000000        -8.833878595182230E-135
   21.7550000000000        -1.109447598507172E-134
   21.9450000000000        -7.076266390143539E-135
   22.1350000000000         1.938414644725017E-134
   22.3250000000000         1.109572456721061E-133
   22.5150000000000         3.731227084267381E-133
   22.7050000000000         1.055058870351695E-132
   22.8950000000000         2.725708132714514E-132
   23.0850000000000         6.649396027066507E-132
   23.2750000000000         1.557309461758898E-131
   23.4650000000000         3.534998705009133E-131
   23.6550000000000         7.823724667131321E-131
   23.8450000000000         1.694967888617749E-130
   24.0350000000000         3.604155268774127E-130
   24.2250000000000         7.536078333686617E-130
   24.4150000000000         1.551423113835194E-129
   24.6050000000000         3.147015305616071E-129
   24.7950000000000         6.292540291250155E-129
   24.9850000000000         1.240341109230031E-128
   25.1750000000000         2.409557617430677E-128
   25.3650000000000         4.610730753867985E-128
   25.5550000000000         8.682458114424789E-128
   25.7450000000000         1.606869331127114E-127
   25.9350000000000         2.917263308408954E-127
   26.1250000000000         5.181988241114836E-127
   26.3150000000000         8.972753000730671E-127
   26.5050000000000         1.506125070741085E-126
   26.6950000000000         2.429512901395599E-126
   26.8850000000000         3.710372275696760E-126
   27.0750000000000         5.211270849994240E-126
   27.2650000000000         6.277316518979442E-126
   27.4550000000000         4.979480105609509E-126
   27.6450000000000        -3.493555023005133E-126
   27.8350000000000        -3.011518046236093E-125
   28.0250000000000        -9.849011514975255E-125
   28.2150000000000        -2.572552802087215E-124
   28.4050000000000        -6.032533871489865E-124
   28.5950000000000        -1.323834279604079E-123
   28.7850000000000        -2.772378382891200E-123
   28.9750000000000        -5.600265510973434E-123
   29.1650000000000        -1.098261222697376E-122
   29.3550000000000        -2.099615189801815E-122
   29.5450000000000        -3.923778645714755E-122
   29.7350000000000        -7.181325794888219E-122
   29.9250000000000        -1.288767190657122E-121
   30.1150000000000        -2.269582851890850E-121
   30.3050000000000        -3.923616246385822E-121
   30.4950000000000        -6.659098624419969E-121
   30.6850000000000        -1.109189525436462E-120
   30.8750000000000        -1.812045774992122E-120
   31.0650000000000        -2.900162329076869E-120
   31.2550000000000        -4.539679892243725E-120
   31.4450000000000        -6.932249563698020E-120
   31.6350000000000        -1.028754141981621E-119
   31.8250000000000        -1.474928024230088E-119
   32.0150000000000        -2.023276040914374E-119
   32.2050000000000        -2.610279107918883E-119
   32.3950000000000        -3.057608411869536E-119
   32.5850000000000        -2.966471545864836E-119
   32.7750000000000        -1.537976432707529E-119
   32.9650000000000         2.722134813131500E-119
   33.1550000000000         1.247397113826179E-118
   33.3450000000000         3.227100146705521E-118
   33.5350000000000         6.965122590214511E-118
   33.7250000000000         1.367214244965579E-117
   33.9150000000000         2.523745255023039E-117
   34.1050000000000         4.452593674001073E-117
   34.2950000000000         7.575359756386375E-117
   34.4850000000000         1.249241132184660E-116
   34.6750000000000         2.002667711715618E-116
   34.8650000000000         3.125387520338542E-116
   35.0550000000000         4.749214661527044E-116
   35.2450000000000         7.020220016000601E-116
   35.4350000000000         1.007146292351443E-115
   35.6250000000000         1.396487356711282E-115
   35.8150000000000         1.858104246622510E-115
   36.0050000000000         2.342480116365659E-115
   36.1950000000000         2.729965847924152E-115
   36.3850000000000         2.778483268171760E-115
   36.5750000000000         2.042479410638437E-115
   36.7650000000000        -2.485910595034981E-116
   36.9550000000000        -5.366687114129444E-115
   37.1450000000000        -1.533293080665185E-114
   37.3350000000000        -3.325307018661948E-114
   37.5250000000000        -6.375271950848811E-114
   37.7150000000000        -1.135121941569757E-113
   37.9050000000000        -1.918749429548428E-113
   38.0950000000000        -3.114557781599464E-113
   38.2850000000000        -4.885931854664947E-113
   38.4750000000000        -7.433570899886558E-113
   38.6650000000000        -1.098616940649725E-112
   38.8550000000000        -1.577365796568411E-112
   39.0450000000000        -2.197048862637799E-112
   39.2350000000000        -2.959019618856019E-112
   39.4250000000000        -3.830403311616363E-112
   39.6150000000000        -4.714555580301399E-112
   39.8050000000000        -5.404959421916631E-112
   39.9950000000000        -5.515857893773046E-112
   40.1850000000000        -4.381325092009802E-112
   40.3750000000000        -9.131559705837622E-113
   40.5650000000000         6.592501634636207E-112
   40.7550000000000         2.070844033853874E-111
   40.9450000000000         4.519340646301005E-111
   41.1350000000000         8.536586010036926E-111
   41.3250000000000         1.485072999797293E-110
   41.5150000000000         2.442333508220294E-110
   41.7050000000000         3.847150984041492E-110
   41.8950000000000         5.845477831992435E-110
   42.0850000000000         8.599385454394019E-110
   42.2750000000000         1.226707821880039E-109
   42.4650000000000         1.696358737091612E-109
   42.6550000000000         2.269156753805840E-109
   42.8450000000000         2.922776759569382E-109
   43.0350000000000         3.594630322528436E-109
   43.2250000000000         4.155521589368919E-109
   43.4150000000000         4.371877389059543E-109
   43.6050000000000         3.853599678477070E-109
   43.7950000000000         1.984831147880629E-109
   43.9850000000000        -2.164033729824232E-109
   44.1750000000000        -9.942398899383527E-109
   44.3650000000000        -2.323848256851586E-108
   44.5550000000000        -4.459880419752303E-108
   44.7450000000000        -7.732404888394723E-108
   44.9350000000000        -1.254999845469539E-107
   45.1250000000000        -1.938976688729182E-107
   45.3150000000000        -2.876439966798982E-107
   45.5050000000000        -4.115205253568362E-107
   45.6950000000000        -5.686951896109301E-107
   45.8850000000000        -7.586293896335532E-107
   46.0750000000000        -9.738362857114587E-107
   46.2650000000000        -1.195103702800401E-106
   46.4550000000000        -1.384752172845624E-106
   46.6450000000000        -1.477499912547821E-106
   46.8350000000000        -1.368589007726579E-106
   47.0250000000000        -8.990438808402657E-107
   47.2150000000000         1.616428635727056E-107
   47.4050000000000         2.134375104243154E-106
   47.5950000000000         5.448695969476085E-106
   47.7850000000000         1.065651952262613E-105
   47.9750000000000         1.843502004765440E-105
   48.1650000000000         2.956902181868807E-105
   48.3550000000000         4.489889521555897E-105
   48.5450000000000         6.521457009223942E-105
   48.7350000000000         9.106993624821385E-105
   48.9250000000000         1.224849978771464E-104
   49.1150000000000         1.584964990732152E-104
   49.3050000000000         1.965127969785098E-104
   49.4950000000000         2.314278884234355E-104
   49.6850000000000         2.544562679786281E-104
   49.8750000000000         2.516698232127985E-104
   50.0650000000000         2.022572035725805E-104
   50.2550000000000         7.659398224844115E-105
   50.4450000000000        -1.656806831420332E-104
   50.6350000000000        -5.772261239162441E-104
   50.8250000000000        -1.223623321568483E-103
   51.0150000000000        -2.182185178289652E-103
   51.2050000000000        -3.537707035935563E-103
   51.3950000000000        -5.373470617987835E-103
   51.5850000000000        -7.755337940413072E-103
   51.7750000000000        -1.070632072695499E-102
   51.9650000000000        -1.416869280703909E-102
   52.1550000000000        -1.795069477953998E-102
   52.3450000000000        -2.165540225063154E-102
   52.5350000000000        -2.459071481269000E-102
   52.7250000000000        -2.566208000163020E-102
   52.9150000000000        -2.325396976064900E-102
   53.1050000000000        -1.511277682601365E-102
   53.2950000000000         1.746858953399387E-103
   53.4850000000000         3.107798613047702E-102
   53.6750000000000         7.733008601150938E-102
   53.8650000000000         1.454039172710399E-101
   54.0550000000000         2.401480654633949E-101
   54.2450000000000         3.654976686566704E-101
   54.4350000000000         5.231478637809445E-101
   54.6250000000000         7.106603955034799E-101
   54.8150000000000         9.189302488026039E-101
   55.0050000000000         1.129000678421924E-100
   55.1950000000000         1.308321333147049E-100
   55.3850000000000         1.406706730732787E-100
   55.5750000000000         1.352479862565403E-100
   55.7650000000000         1.049580745137989E-100
   55.9550000000000         3.767739973256131E-101
   56.1450000000000        -8.095218000820455E-101
   56.3350000000000        -2.666884689444522E-100
   56.5250000000000        -5.350835540261351E-100
   56.7150000000000        -8.988808272290429E-100
   56.9050000000000        -1.364212697244103E-099
   57.0950000000000        -1.925474011431508E-099
   57.2850000000000        -2.558892693588758E-099
   57.4750000000000        -3.215052491513832E-099
   57.6650000000000        -3.810954740631072E-099
   57.8550000000000        -4.222637293916945E-099
   58.0450000000000        -4.279881644911014E-099
   58.2350000000000        -3.765089996992994E-099
   58.4250000000000        -2.418924845462310E-099
   58.6150000000000         4.434310679841559E-101
   58.8050000000000         3.908796295763295E-099
   58.9950000000000         9.413633334666908E-099
   59.1850000000000         1.669342603357700E-098
   59.3750000000000         2.570268881534112E-098
   59.5650000000000         3.612877181803469E-098
   59.7550000000000         4.730136193491421E-098
   59.9450000000000         5.811203337553508E-098
   60.1350000000000         6.696283623757306E-098
   60.3250000000000         7.176796994843733E-098
   60.5150000000000         7.003584017267149E-098
   60.7050000000000         5.905848564762888E-098
   60.8950000000000         3.622938449991858E-098
   61.0850000000000        -5.032056602611784E-100
   61.2750000000000        -5.206387450298057E-098
   61.4650000000000        -1.176096322626421E-097
   61.6550000000000        -1.939170356728263E-097
   61.8450000000000        -2.749439088319973E-097
   62.0350000000000        -3.517639379933134E-097
   62.2250000000000        -4.131119013313714E-097
   62.4150000000000        -4.467884596588861E-097
   62.6050000000000        -4.421350356766064E-097
   62.7950000000000        -3.936769717854501E-097
   62.9850000000000        -3.058226323298010E-097
   63.1750000000000        -1.981786678147794E-097
   63.3650000000000        -1.105918040289489E-097
   63.5550000000000        -1.064730367907856E-097
   63.7450000000000        -2.723536574547757E-097
   63.9350000000000        -7.110634469322628E-097
   64.1250000000000        -1.525565325225788E-096
   64.3150000000000        -2.790543744888856E-096
   64.5050000000000        -4.509596435262266E-096
   64.6950000000000        -6.557623746728517E-096
   64.8850000000000        -8.611040146032847E-096
   65.0750000000000        -1.007296401718528E-095
   65.2650000000000        -1.000661670868068E-095
   65.4550000000000        -7.097525500957388E-096
   65.6450000000000         3.269129007032368E-097
   65.8350000000000         1.418466016043058E-095
   66.0250000000000         3.639254631062131E-095
   66.2150000000000         6.844622104770754E-095
   66.4050000000000         1.107960653531029E-094
   66.5950000000000         1.620104064743077E-094
   66.7850000000000         2.177553507334127E-094
   66.9750000000000         2.696774658125622E-094
   67.1650000000000         3.043521988735585E-094
   67.3550000000000         3.025546664232863E-094
   67.5450000000000         2.392125759850206E-094
   67.7350000000000         8.449907177274002E-095
   67.9250000000000        -1.934063597072641E-094
   68.1150000000000        -6.233495113816632E-094
   68.3050000000000        -1.223573487825970E-093
   68.4950000000000        -1.991209897653627E-093
   68.6850000000000        -2.889087567063054E-093
   68.8750000000000        -3.830702237864788E-093
   69.0650000000000        -4.665077387955285E-093
   69.2550000000000        -5.164354248154328E-093
   69.4450000000000        -5.018203258603256E-093
   69.6350000000000        -3.840400863135935E-093
   69.8250000000000        -1.193925726265606E-093
   70.0150000000000         3.358641346974068E-093
   70.2050000000000         1.017321361425975E-092
   70.3950000000000         1.940669505019875E-092
   70.5850000000000         3.086393283091523E-092
   70.7750000000000         4.381583868545247E-092
   70.9650000000000         5.680482553341728E-092
   71.1550000000000         6.746583004674545E-092
   71.3450000000000         7.240537438998505E-092
   71.5350000000000         6.719597533525311E-092
   71.7250000000000         4.655640845693141E-092
   71.9150000000000         4.796484684049166E-093
   72.1050000000000        -6.339636787420128E-092
   72.2950000000000        -1.617676450758177E-091
   72.4850000000000        -2.908791981945921E-091
   72.6750000000000        -4.461041574701787E-091
   72.8650000000000        -6.153645798565099E-091
   73.0550000000000        -7.768661098030434E-091
   73.2450000000000        -8.972329532385598E-091
   73.4350000000000        -9.306097384030364E-091
   73.6250000000000        -8.194534307092307E-091
   73.8150000000000        -4.978566640542901E-091
   74.0050000000000         1.017193156314368E-091
   74.1950000000000         1.037521369580875E-090
   74.3850000000000         2.342901069334905E-090
   74.5750000000000         4.006084270696375E-090
   74.7650000000000         5.946208525868603E-090
   74.9550000000000         7.987684754640414E-090
   75.1450000000000         9.836397371009803E-090
   75.3350000000000         1.106292247105319E-089
   75.5250000000000         1.109964243622405E-089
   75.7150000000000         9.260090274438466E-090
   75.9050000000000         4.789679641637249E-090
   76.0950000000000        -3.043327227293425E-090
   76.2850000000000        -1.480976324796197E-089
   76.4750000000000        -3.073185455771319E-089
   76.6650000000000        -5.045042397120157E-089
   76.8550000000000        -7.276180080802304E-089
   77.0450000000000        -9.535259426330485E-089
   77.2350000000000        -1.145763619214397E-088
   77.4250000000000        -1.253332574868975E-088
   77.6150000000000        -1.211297013300744E-088
   77.8050000000000        -9.440666647230866E-089
   77.9950000000000        -3.722794760231990E-089
   78.1850000000000         5.759144890526081E-089
   78.3750000000000         1.948675652221838E-088
   78.5650000000000         3.749471580374190E-088
   78.7550000000000         5.912166372373168E-088
   78.9450000000000         8.274276884385776E-088
   79.1350000000000         1.055189838823914E-087
   79.3250000000000         1.232140978789104E-087
   79.5150000000000         1.301468082574012E-087
   79.7050000000000         1.193585283923199E-087
   79.8950000000000         8.308484134604578E-088
   80.0850000000000         1.361485097550264E-088
   80.2750000000000        -9.539699669696799E-088
   80.4650000000000        -2.471429765540020E-087
   80.6550000000000        -4.394410263818804E-087
   80.8450000000000        -6.622184666509764E-087
   81.0350000000000        -8.949607836245673E-087
   81.2250000000000        -1.104529896430409E-086
   81.4150000000000        -1.243909882394238E-086
   81.6050000000000        -1.252580765238431E-086
   81.7950000000000        -1.059323484227676E-086
   81.9850000000000        -5.882836849378199E-087
   82.1750000000000         2.309763783891308E-087
   82.3650000000000         1.448977982027788E-086
   82.5550000000000         3.077404257682545E-086
   82.7450000000000         5.066519294267706E-086
   82.9350000000000         7.280688447588123E-086
   83.1250000000000         9.474993916312700E-086
   83.3150000000000         1.127733226868255E-085
   83.5050000000000         1.218179033959164E-085
   83.6950000000000         1.156030515346300E-085
   83.8850000000000         8.700324961297093E-086
   84.0750000000000         2.876031743652132E-086
   84.2650000000000        -6.540761292861459E-086
   84.4550000000000        -1.992709362036293E-085
   84.6450000000000        -3.721505368493621E-085
   84.8350000000000        -5.766764214845126E-085
   85.0250000000000        -7.964422882337906E-085
   85.2150000000000        -1.003874829079876E-084
   85.4050000000000        -1.158767268605817E-084
   85.5950000000000        -1.208053811358866E-084
   85.7850000000000        -1.087503724928429E-084
   85.9750000000000        -7.260621950521788E-085
   86.1650000000000        -5.352528193327548E-086
   86.3550000000000         9.879300380083295E-085
   86.5450000000000         2.428170734573940E-084
   86.7350000000000         4.249825046998609E-084
   86.9250000000000         6.366371967894651E-084
   87.1150000000000         8.599633727438563E-084
   87.3050000000000         1.065982239396352E-083
   87.4950000000000         1.213249618237930E-083
   87.6850000000000         1.247793039058946E-083
   87.8750000000000         1.104930254188169E-083
   88.0650000000000         7.136471921903880E-084
   88.2550000000000         4.169031891559731E-086
   88.4450000000000        -1.080802596351726E-083
   88.6350000000000        -2.571023610376985E-083
   88.8250000000000        -4.450137555104016E-083
   89.0150000000000        -6.634606407352029E-083
   89.2050000000000        -8.952013012722157E-083
   89.3950000000000        -1.112162327880338E-082
   89.5850000000000        -1.274119000590438E-082
   89.7750000000000        -1.328502941642091E-082
   89.9650000000000        -1.211923340407043E-082
   90.1550000000000        -8.540271307164641E-083
   90.3450000000000        -1.842916907904566E-083
   90.5350000000000         8.577884829887535E-083
   90.7250000000000         2.308921273550965E-082
   90.9150000000000         4.164858534017555E-082
   91.1050000000000         6.360660345315378E-082
   91.2950000000000         8.749934003430159E-082
   91.4850000000000         1.108549185793676E-081
   91.6750000000000         1.300484663116294E-081
   91.8650000000000         1.402492309454546E-081
   92.0550000000000         1.355117112678224E-081
   92.2450000000000         1.090673353421139E-081
   92.4350000000000         5.387229945979356E-082
   92.6250000000000        -3.654183520935996E-082
   92.8150000000000        -1.668878422640714E-081
   93.0050000000000        -3.386184310766940E-081
   93.1950000000000        -5.481503657678283E-081
   93.3850000000000        -7.849315146014130E-081
   93.5750000000000        -1.029540303291888E-080
   93.7650000000000        -1.252091375981617E-080
   93.9550000000000        -1.411307804292725E-080
   94.1450000000000        -1.454698349810493E-080
   94.3350000000000        -1.320333800831693E-080
   94.5250000000000        -9.407315137973356E-081
   94.7150000000000        -2.493115363668532E-081
   94.9050000000000         8.102406053280920E-081
   95.0950000000000         2.271600806729613E-080
   95.2850000000000         4.130670233355619E-080
   95.4750000000000         6.328401794548703E-080
   95.6650000000000         8.732915807341210E-080
   95.8550000000000         1.112293150651898E-079
   96.0450000000000         1.317529374648809E-079
   96.2350000000000         1.446010525030892E-079
   96.4250000000000         1.444757945767185E-079
   96.6150000000000         1.253107246211148E-079
   96.8050000000000         8.070673413972202E-080
   96.9950000000000         4.610525400830145E-081
   97.1850000000000        -1.077419594357847E-079
   97.3750000000000        -2.586188254307706E-079
   97.5650000000000        -4.463584564807148E-079
   97.7550000000000        -6.637902578898601E-079
   97.9450000000000        -8.966465761253188E-079
   98.1350000000000        -1.122164621870962E-078
   98.3250000000000        -1.308141657740608E-078
   98.5150000000000        -1.412766251239721E-078
   98.7050000000000        -1.385593345608669E-078
   98.8950000000000        -1.170049182449238E-078
   99.0850000000000        -7.078297288246404E-079
   99.2750000000000         5.452174793863637E-080
   99.4650000000000         1.156720432305032E-078
   99.6550000000000         2.613621706652961E-078
   99.8450000000000         4.402290694253766E-078
   100.035000000000         6.448078193446364E-078
   100.225000000000         8.611003256174912E-078
   100.415000000000         1.067427155747518E-077
   100.605000000000         1.233728943572476E-077
   100.795000000000         1.321600095012954E-077
   100.985000000000         1.285369435717045E-077
   101.175000000000         1.074549189212079E-077
   101.365000000000         6.379436597760952E-078
   101.555000000000        -7.036979066528134E-079
   101.745000000000        -1.083113534912305E-077
   101.935000000000        -2.410069259656296E-077
   102.125000000000        -4.026936214473300E-077
   102.315000000000        -5.863547102708119E-077
   102.505000000000        -7.792602302878661E-077
   102.695000000000        -9.620513464961178E-077
   102.885000000000        -1.108236614010814E-076
   103.075000000000        -1.184336213235087E-076
   103.265000000000        -1.150931477806096E-076
   103.455000000000        -9.648760720236193E-077
   103.645000000000        -5.828928489668436E-077
   103.835000000000         3.329240819460115E-078
   104.025000000000         9.102505199932477E-077
   104.215000000000         2.054727260100343E-076
   104.405000000000         3.444476712157805E-076
   104.595000000000         5.018706868424934E-076
   104.785000000000         6.669113226232567E-076
   104.975000000000         8.232809473781425E-076
   105.165000000000         9.488778848351597E-076
   105.355000000000         1.015972032247198E-075
   105.545000000000         9.921294704773054E-076
   105.735000000000         8.420723009909098E-076
   105.925000000000         5.306385005278418E-076
   106.115000000000         2.694440508302761E-077
   106.305000000000        -6.902469277731137E-076
   106.495000000000        -1.626088024923304E-075
   106.685000000000        -2.762456544193042E-075
   106.875000000000        -4.050543891693404E-075
   107.065000000000        -5.403994138351925E-075
   107.255000000000        -6.693609714053837E-075
   107.445000000000        -7.744865293174321E-075
   107.635000000000        -8.339641827104850E-075
   107.825000000000        -8.223667711763491E-075
   108.015000000000        -7.121087476749438E-075
   108.205000000000        -4.757322403742481E-075
   108.395000000000        -8.908976362255118E-076
   108.585000000000         4.645848239072072E-075
   108.775000000000         1.189830004308480E-074
   108.965000000000         2.073580102172562E-074
   109.155000000000         3.079659533444652E-074
   109.345000000000         4.143719325738642E-074
   109.535000000000         5.169359256284133E-074
   109.725000000000         6.026333086518230E-074
   109.915000000000         6.551846728257825E-074
   110.105000000000         6.556001267742523E-074