  -1.42500000000000         0.000000000000000E+000
  -1.23500000000000         0.000000000000000E+000
  -1.04500000000000         0.000000000000000E+000
 -0.855000000000000         0.000000000000000E+000
 -0.665000000000000         0.000000000000000E+000
 -0.475000000000000         0.000000000000000E+000
 -0.285000000000000         0.000000000000000E+000
 -9.499999999999975E-002    0.000000000000000E+000
  9.500000000000020E-002    0.000000000000000E+000
  0.285000000000000         0.000000000000000E+000
  0.475000000000000         0.000000000000000E+000
  0.665000000000000         0.000000000000000E+000
  0.855000000000000         0.000000000000000E+000
   1.04500000000000         0.000000000000000E+000
   1.23500000000000         0.000000000000000E+000
   1.42500000000000         0.000000000000000E+000
   1.61500000000000         0.000000000000000E+000
   1.80500000000000         0.000000000000000E+000
   1.99500000000000         0.000000000000000E+000
   2.18500000000000         0.000000000000000E+000
   2.37500000000000         0.000000000000000E+000
   2.56500000000000         0.000000000000000E+000
   2.75500000000000         0.000000000000000E+000
   2.94500000000000         0.000000000000000E+000
   3.13500000000000         0.000000000000000E+000
   3.32500000000000         0.000000000000000E+000
   3.51500000000000         0.000000000000000E+000
   3.70500000000000         0.000000000000000E+000
   3.89500000000000         0.000000000000000E+000
   4.08500000000000         0.000000000000000E+000
   4.27500000000000         0.000000000000000E+000
   4.46500000000000         0.000000000000000E+000
   4.65500000000000         0.000000000000000E+000
   4.84500000000000         0.000000000000000E+000
   5.03500000000000         0.000000000000000E+000
   5.22500000000000         0.000000000000000E+000
   5.41500000000000         0.000000000000000E+000
   5.60500000000000         0.000000000000000E+000
   5.79500000000000         0.000000000000000E+000
   5.98500000000000         0.000000000000000E+000
   6.17500000000000         0.000000000000000E+000
   6.36500000000000         0.000000000000000E+000
   6.55500000000000         0.000000000000000E+000
   6.74500000000000        -2.010017990943033E-191
   6.93500000000000         1.721915446367030E-186
   7.12500000000000         9.689888411825053E-185
   7.31500000000000         4.129637818178772E-181
   7.50500000000000         3.532557696405555E-179
   7.69500000000000         1.555536515685895E-177
   7.88500000000000         4.686188665326404E-176
   8.07500000000000         1.085432577200286E-174
   8.26500000000000         2.058970476862920E-173
   8.45500000000000         3.325662477168382E-172
   8.64500000000000         4.694373964248620E-171
   8.83500000000000         5.898184205739644E-170
   9.02500000000000         6.686351519967258E-169
   9.21500000000000         6.910688485796002E-168
   9.40500000000000         6.566417422780892E-167
   9.59500000000000         5.775426506303734E-166
   9.78500000000000         4.729314356082729E-165
   9.97500000000000         3.623544649807919E-164
   10.1650000000000         2.609054855965925E-163
   10.3550000000000         1.772242429130557E-162
   10.5450000000000         1.139595320429289E-161
   10.7350000000000         6.958440641831313E-161
   10.9250000000000         4.045972785203959E-160
   11.1150000000000         2.245877476012389E-159
   11.3050000000000         1.192896966864151E-158
   11.4950000000000         6.075545634705286E-158
   11.6850000000000         2.972785045082174E-157
   11.8750000000000         1.399889505391841E-156
   12.0650000000000         6.354241381116071E-156
   12.2550000000000         2.784178418435448E-155
   12.4450000000000         1.179117136603296E-154
   12.6350000000000         4.832236996109177E-154
   12.8250000000000         1.918309247246908E-153
   13.0150000000000         7.383438784099768E-153
   13.2050000000000         2.757403193663723E-152
   13.3950000000000         9.998006456316609E-152
   13.5850000000000         3.521282222060255E-151
   13.7750000000000         1.205007231109907E-150
   13.9650000000000         4.006995261363531E-150
   14.1550000000000         1.294554997782497E-149
   14.3450000000000         4.061551701078808E-149
   14.5350000000000         1.236382279196680E-148
   14.7250000000000         3.646504177505421E-148
   14.9150000000000         1.039633983911906E-147
   15.1050000000000         2.855159103469961E-147
   15.2950000000000         7.510769864838963E-147
   15.4850000000000         1.874860198939771E-146
   15.6750000000000         4.366366420589553E-146
   15.8650000000000         9.160886158564392E-146
   16.0550000000000         1.579283140847159E-145
   16.2450000000000         1.437438241134006E-145
   16.4350000000000        -4.545803877752555E-145
   16.6250000000000        -3.614027397840774E-144
   16.8150000000000        -1.619878339510313E-143
   17.0050000000000        -6.029533287937022E-143
   17.1950000000000        -2.032008416017197E-142
   17.3850000000000        -6.414085600248857E-142
   17.5750000000000        -1.928691727076464E-141
   17.7650000000000        -5.578749113639967E-141
   17.9550000000000        -1.561822420748345E-140
   18.1450000000000        -4.249759009762417E-140
   18.3350000000000        -1.127302465650172E-139
   18.5250000000000        -2.921753034107687E-139
   18.7150000000000        -7.412163100960570E-139
   18.9050000000000        -1.843199803832326E-138
   19.0950000000000        -4.498344991532107E-138
   19.2850000000000        -1.078550070397352E-137
   19.4750000000000        -2.542931626625045E-137
   19.6650000000000        -5.900533869410257E-137
   19.8550000000000        -1.348422682738409E-136
   20.0450000000000        -3.036788920671206E-136
   20.2350000000000        -6.743524242402725E-136
   20.4250000000000        -1.477122598449080E-135
   20.6150000000000        -3.192306397245611E-135
   20.8050000000000        -6.807029314340858E-135
   20.9950000000000        -1.431721693738776E-134
   21.1850000000000        -2.968437957446463E-134
   21.3750000000000        -6.059975532589568E-134
   21.5650000000000        -1.215908367247904E-133
   21.7550000000000        -2.391230680439287E-133
   21.9450000000000        -4.590146961890611E-133
   22.1350000000000        -8.545393707729752E-133
   22.3250000000000        -1.526951543483148E-132
   22.5150000000000        -2.571141956642833E-132
   22.7050000000000        -3.929504381264107E-132
   22.8950000000000        -4.935494582730576E-132
   23.0850000000000        -3.064042889487544E-132
   23.2750000000000         9.233819469062948E-132
   23.4650000000000         5.212738746406273E-131
   23.6550000000000         1.758899642221709E-130
   23.8450000000000         4.997618785017826E-130
   24.0350000000000         1.295733387068251E-129
   24.2250000000000         3.164178469806339E-129
   24.4150000000000         7.392395669363935E-129
   24.6050000000000         1.666785003195502E-128
   24.7950000000000         3.646074622370028E-128
   24.9850000000000         7.763361304021804E-128
   25.1750000000000         1.612298798881646E-127
   25.3650000000000         3.269937054242579E-127
   25.5550000000000         6.480037610794573E-127
   25.7450000000000         1.254765817243279E-126
   25.9350000000000         2.372765796464265E-126
   26.1250000000000         4.376594231144469E-126
   26.3150000000000         7.858315002109788E-126
   26.5050000000000         1.369114894555600E-125
   26.6950000000000         2.302804392827965E-125
   26.8850000000000         3.708108944615855E-125
   27.0750000000000         5.633005023265691E-125
   27.2650000000000         7.841053827811785E-125
   27.4550000000000         9.316227851463972E-125
   27.6450000000000         7.187498469457008E-125
   27.8350000000000        -5.485699502798386E-125
   28.0250000000000        -4.409138771161310E-124
   28.2150000000000        -1.408343698677671E-123
   28.4050000000000        -3.602785728300667E-123
   28.5950000000000        -8.274659072276186E-123
   28.7850000000000        -1.777565800623611E-122
   28.9750000000000        -3.641520762220847E-122
   29.1650000000000        -7.190430442924829E-122
   29.3550000000000        -1.377336931313826E-121
   29.5450000000000        -2.569975119037971E-121
   29.7350000000000        -4.683837992846575E-121
   29.9250000000000        -8.352937034610112E-121
   30.1150000000000        -1.459268100369231E-120
   30.3050000000000        -2.498965152560406E-120
   30.4950000000000        -4.195578959417230E-120
   30.6850000000000        -6.904310193166034E-120
   30.8750000000000        -1.112838033308766E-119
   31.0650000000000        -1.754554785498641E-119
   31.2550000000000        -2.700452852151848E-119
   31.4450000000000        -4.044596436563632E-119
   31.6350000000000        -5.866315283366627E-119
   31.8250000000000        -8.175193840457259E-119
   32.0150000000000        -1.079929639522454E-118
   32.2050000000000        -1.317434328543758E-118
   32.3950000000000        -1.396640073905993E-118
   32.5850000000000        -1.042379048324678E-118
   32.7750000000000         2.698125224262262E-119
   32.9650000000000         3.486599174603549E-118
   33.1550000000000         1.024679776060322E-117
   33.3450000000000         2.329064125779798E-117
   33.5350000000000         4.706151494985355E-117
   33.7250000000000         8.856139481681217E-117
   33.9150000000000         1.585202251230532E-116
   34.1050000000000         2.729180410158352E-116
   34.2950000000000         4.548372879431424E-116
   34.4850000000000         7.364897104034412E-116
   34.6750000000000         1.161007536739660E-115
   34.8650000000000         1.783137190924900E-115
   35.0550000000000         2.667215697026189E-115
   35.2450000000000         3.879591195901311E-115
   35.4350000000000         5.470761744108558E-115
   35.6250000000000         7.439683824443460E-115
   35.8150000000000         9.668621851586447E-115
   36.0050000000000         1.181121927652569E-114
   36.1950000000000         1.310884509866593E-114
   36.3850000000000         1.210052619621071E-114
   36.5750000000000         6.180091595933157E-115
   36.7650000000000        -9.058584716224486E-115
   36.9550000000000        -4.075899202513727E-114
   37.1450000000000        -1.000990345539816E-113
   37.3350000000000        -2.040178866110427E-113
   37.5250000000000        -3.774100471256342E-113
   37.7150000000000        -6.557448344269125E-113
   37.9050000000000        -1.087912787664560E-112
   38.0950000000000        -1.738820129284784E-112
   38.2850000000000        -2.690783464975800E-112
   38.4750000000000        -4.042030253855731E-112
   38.6650000000000        -5.899469579127083E-112
   38.8550000000000        -8.361216819392514E-112
   39.0450000000000        -1.148196503030743E-111
   39.2350000000000        -1.521101596611775E-111
   39.4250000000000        -1.928845918854398E-111
   39.6150000000000        -2.307954852813139E-111
   39.8050000000000        -2.532089194569045E-111
   39.9950000000000        -2.374512396687291E-111
   40.1850000000000        -1.454436722627816E-111
   40.3750000000000         8.370896721506991E-112
   40.5650000000000         5.435832342304848E-111
   40.7550000000000         1.373016066230911E-110
   40.9450000000000         2.771299708942192E-110
   41.1350000000000         5.015192698072928E-110
   41.3250000000000         8.475715670004584E-110
   41.5150000000000         1.363068726478511E-109
   41.7050000000000         2.106583290874618E-109
   41.8950000000000         3.145266707706898E-109
   42.0850000000000         4.548475037953185E-109
   42.2750000000000         6.374488909906310E-109
   42.4650000000000         8.646399267477225E-109
   42.6550000000000         1.131174976125360E-108
   42.8450000000000         1.417878808283815E-108
   43.0350000000000         1.682031142033212E-108
   43.2250000000000         1.843437469226507E-108
   43.4150000000000         1.765007360834308E-108
   43.6050000000000         1.226706254427345E-108
   43.7950000000000        -1.079269729104586E-109
   43.9850000000000        -2.732703725721839E-108
   44.1750000000000        -7.345612365695799E-108
   44.3650000000000        -1.489735695360085E-107
   44.5550000000000        -2.663319551898196E-107
   44.7450000000000        -4.411331865780502E-107
   44.9350000000000        -6.918791767279922E-107
   45.1250000000000        -1.038906402185576E-106
   45.3150000000000        -1.501978393752885E-106
   45.5050000000000        -2.095807547285271E-106
   45.6950000000000        -2.822540607108685E-106
   45.8850000000000        -3.659987650544625E-106
   46.0750000000000        -4.544137233352319E-106
   46.2650000000000        -5.344341834415925E-106
   46.4550000000000        -5.829576014868694E-106
   46.6450000000000        -5.624511727845880E-106
   46.8350000000000        -4.155029099410496E-106
   47.0250000000000        -5.844668060515501E-107
   47.2150000000000         6.255228390165616E-106
   47.4050000000000         1.792883755054896E-105
   47.5950000000000         3.644453787309971E-105
   47.7850000000000         6.425764929920283E-105
   47.9750000000000         1.041951502152632E-104
   48.1650000000000         1.592494917518463E-104
   48.3550000000000         2.321722787884512E-104
   48.5450000000000         3.247786966363302E-104
   48.7350000000000         4.368543905124474E-104
   48.9250000000000         5.645417724784524E-104
   49.1150000000000         6.980786192823662E-104
   49.3050000000000         8.187773856008640E-104
   49.4950000000000         8.951813519046290E-104
   49.6850000000000         8.784297416739695E-104
   49.8750000000000         6.970280481369175E-104
   50.0650000000000         2.514744311048280E-104
   50.2550000000000        -5.904388651302886E-104
   50.4450000000000        -1.996328901322182E-103
   50.6350000000000        -4.167965420604604E-103
   50.8250000000000        -7.333309208174224E-103
   51.0150000000000        -1.172822271866579E-102
   51.2050000000000        -1.756333822322593E-102
   51.3950000000000        -2.497080834015841E-102
   51.5850000000000        -3.392526238280654E-102
   51.7750000000000        -4.413357484208613E-102
   51.9650000000000        -5.488945316284035E-102
   52.1550000000000        -6.489190986013606E-102
   52.3450000000000        -7.203201871450762E-102
   52.5350000000000        -7.316060919391774E-102
   52.7250000000000        -6.386129110835394E-102
   52.9150000000000        -3.826874858972754E-102
   53.1050000000000         1.100853714011189E-102
   53.2950000000000         9.277997090787890E-102
   53.4850000000000         2.168749609277588E-101
   53.6750000000000         3.933313432913366E-101
   53.8650000000000         6.310337367525232E-101
   54.0550000000000         9.356683745781586E-101
   54.2450000000000         1.306888291801012E-100
   54.4350000000000         1.734645210944734E-100
   54.6250000000000         2.194753174572590E-100
   54.8150000000000         2.643913452694934E-100
   55.0050000000000         3.014655478265394E-100
   55.1950000000000         3.210930823276430E-100
   55.3850000000000         3.105418955906407E-100
   55.5750000000000         2.539927439586691E-100
   55.7650000000000         1.330532602341040E-100
   55.9550000000000        -7.207830218153697E-101
   56.1450000000000        -3.806406237213247E-100
   56.3350000000000        -8.084282588010496E-100
   56.5250000000000        -1.364019621170044E-099
   56.7150000000000        -2.044321972983635E-099
   56.9050000000000        -2.829912551711578E-099
   57.0950000000000        -3.681002746220655E-099
   57.2850000000000        -4.535251737222186E-099
   57.4750000000000        -5.309052172725141E-099
   57.6650000000000        -5.904208036166180E-099
   57.8550000000000        -6.221980175672926E-099
   58.0450000000000        -6.186092082253730E-099
   58.2350000000000        -5.775224431531007E-099
   58.4250000000000        -5.063510880855504E-099
   58.6150000000000        -4.264320853888326E-099
   58.8050000000000        -3.767997119675494E-099
   58.9950000000000        -4.158202928785378E-099
   59.1850000000000        -6.184429581731901E-099
   59.3750000000000        -1.066079459900048E-098
   59.5650000000000        -1.825494522170827E-098
   59.7550000000000        -2.912791130796314E-098
   59.9450000000000        -4.238930106043901E-098
   60.1350000000000        -5.534641957953280E-098
   60.3250000000000        -6.255558630863142E-098
   60.5150000000000        -5.473428378185455E-098
   60.7050000000000        -1.766834426637611E-098
   60.8950000000000         6.864822557378565E-098
   61.0850000000000         2.302732397948501E-097
   61.2750000000000         4.984597200847403E-097
   61.4650000000000         9.070152384369129E-097
   61.6550000000000         1.487085696572054E-096
   61.8450000000000         2.258518754627059E-096
   62.0350000000000         3.217039831545763E-096
   62.2250000000000         4.316757889275678E-096
   62.4150000000000         5.448095657465389E-096
   62.6050000000000         6.412197473948369E-096
   62.7950000000000         6.894280441737750E-096
   62.9850000000000         6.440294831536287E-096
   63.1750000000000         4.443609419619813E-096
   63.3650000000000         1.510865915948661E-097
   63.5550000000000        -7.299446230890335E-096
   63.7450000000000        -1.879619485919074E-095
   63.9350000000000        -3.510985920000935E-095
   64.1250000000000        -5.667591334294648E-095
   64.3150000000000        -8.329385606929367E-095
   64.5050000000000        -1.137441220915879E-094
   64.6950000000000        -1.453388882696945E-094
   64.8850000000000        -1.734454914203264E-094
   65.0750000000000        -1.910508179547884E-094
   65.2650000000000        -1.884708510062473E-094
   65.4550000000000        -1.533488140298878E-094
   65.6450000000000        -7.112290835865676E-095
   65.8350000000000         7.382750255784000E-095
   66.0250000000000         2.961414445287198E-094
   66.2150000000000         6.063539669314434E-094
   66.4050000000000         1.006584014986650E-093
   66.5950000000000         1.485073242020473E-093
   66.7850000000000         2.009848592753495E-093
   66.9750000000000         2.522105634348680E-093
   67.1650000000000         2.930322309441895E-093
   67.3550000000000         3.106592061432505E-093
   67.5450000000000         2.887163493355036E-093
   67.7350000000000         2.079610848485433E-093
   67.9250000000000         4.793185328248087E-094
   68.1150000000000        -2.102111211265950E-093
   68.3050000000000        -5.794512122513306E-093
   68.4950000000000        -1.061217013655196E-092
   68.6850000000000        -1.638373309245447E-092
   68.8750000000000        -2.267382691616246E-092
   69.0650000000000        -2.870555175250083E-092
   69.2550000000000        -3.329831580161199E-092
   69.4450000000000        -3.484125710993622E-092
   69.6350000000000        -3.132805010439440E-092
   69.8250000000000        -2.048304016215656E-092
   70.0150000000000        -9.817981553359365E-096
   70.2050000000000         3.201042646147076E-092
   70.3950000000000         7.655435722946252E-092
   70.5850000000000         1.329296316280369E-091
   70.7750000000000         1.979210646662276E-091
   70.9650000000000         2.648886235435362E-091
   71.1550000000000         3.229506847338816E-091
   71.3450000000000         3.564484423084164E-091
   71.5350000000000         3.449509838722881E-091
   71.7250000000000         2.641146637287800E-091
   71.9150000000000         8.773989959670354E-092
   72.1050000000000        -2.086459336608464E-091
   72.2950000000000        -6.424317618731303E-091
   72.4850000000000        -1.216715366918756E-090
   72.6750000000000        -1.911450141424800E-090
   72.8650000000000        -2.673556655689109E-090
   73.0550000000000        -3.407137961543907E-090
   73.2450000000000        -3.965564847060018E-090
   73.4350000000000        -4.147869402787117E-090
   73.6250000000000        -3.702510236175494E-090
   73.8150000000000        -2.342015691009206E-090
   74.0050000000000         2.279050790741086E-091
   74.1950000000000         4.261682312907191E-090
   74.3850000000000         9.907828402178110E-090
   74.5750000000000         1.712400801880497E-089
   74.7650000000000         2.557723654967811E-089
   74.9550000000000         3.453793216696851E-089
   75.1450000000000         4.278235940141345E-089
   75.3350000000000         4.852450111032547E-089
   75.5250000000000         4.940484665934691E-089
   75.7150000000000         4.256886721397202E-089
   75.9050000000000         2.487054528298930E-089
   76.0950000000000        -6.765636402252231E-090
   76.2850000000000        -5.479945436852797E-089
   76.4750000000000        -1.203389983599666E-088
   76.6650000000000        -2.022343267375283E-088
   76.8550000000000        -2.960600468859847E-088
   77.0450000000000        -3.930957940991587E-088
   77.2350000000000        -4.794711327891079E-088
   77.4250000000000        -5.357013734793556E-088
   77.6150000000000        -5.368944532439760E-088
   77.8050000000000        -4.539441599734359E-088
   77.9950000000000        -2.560261681969968E-088
   78.1850000000000         8.533712073836238E-089
   78.3750000000000         5.904973038857369E-088
   78.5650000000000         1.264246836451700E-087
   78.7550000000000         2.087094476324658E-087
   78.9450000000000         3.006008304412469E-087
   79.1350000000000         3.925859247616979E-087
   79.3250000000000         4.703310452229009E-087
   79.5150000000000         5.145383665252301E-087
   79.7050000000000         5.015299209036790E-087
   79.8950000000000         4.048309754442959E-087
   80.0850000000000         1.979986954658492E-087
   80.2750000000000        -1.411377592511994E-087
   80.4650000000000        -6.248069348847734E-087
   80.6550000000000        -1.248400660985966E-086
   80.8450000000000        -1.982865947148845E-086
   81.0350000000000        -2.767267446245566E-086
   81.2250000000000        -3.502821364250683E-086
   81.4150000000000        -4.050114040934890E-086
   81.6050000000000        -4.231556295420981E-086
   81.7950000000000        -3.841294697180394E-086
   81.9850000000000        -2.664690399657988E-086
   82.1750000000000        -5.089615318285407E-087
   82.3650000000000         2.754453045640706E-086
   82.5550000000000         7.136906264692161E-086
   82.7450000000000         1.247234176626983E-085
   82.9350000000000         1.835621095544199E-085
   83.1250000000000         2.409319903416649E-085
   83.3150000000000         2.866691744886153E-085
   83.5050000000000         3.074778007452841E-085
   83.6950000000000         2.875722576685743E-085
   83.8850000000000         2.100639618324730E-085
   84.0750000000000         5.924317757669154E-086
   84.2650000000000        -1.761645932957354E-085
   84.4550000000000        -4.988084279834352E-085
   84.6450000000000        -8.978040037317869E-085
   84.8350000000000        -1.343553525299244E-084
   85.0250000000000        -1.783014053090153E-084
   85.2150000000000        -2.136433260017294E-084
   85.4050000000000        -2.296858002431101E-084
   85.5950000000000        -2.133943147640149E-084
   85.7850000000000        -1.503677606842843E-084
   85.9750000000000        -2.655197196912159E-085
   86.1650000000000         1.691994235236144E-084
   86.3550000000000         4.416923206788639E-084
   86.5450000000000         7.851909089113373E-084
   86.7350000000000         1.178728205399282E-083
   86.9250000000000         1.581432157302516E-083
   87.1150000000000         1.928629826082942E-083
   87.3050000000000         2.129763730028412E-083
   87.4950000000000         2.069403338040634E-083
   87.6850000000000         1.612811183828346E-083
   87.8750000000000         6.175634654952136E-084
   88.0650000000000        -1.047445445927860E-083
   88.2550000000000        -3.474746614278557E-083
   88.4450000000000        -6.682749047353140E-083
   88.6350000000000        -1.057311718245134E-082
   88.8250000000000        -1.488399625947446E-082
   89.0150000000000        -1.914413727438608E-082
   89.2050000000000        -2.263541739292834E-082
   89.3950000000000        -2.437380587739589E-082
   89.5850000000000        -2.312116722012166E-082
   89.7750000000000        -1.744197254721682E-082
   89.9650000000000        -5.819433761056219E-083
   90.1550000000000         1.315589277320883E-082
   90.3450000000000         4.051609366521592E-082
   90.5350000000000         7.656298920493271E-082
   90.7250000000000         1.204422026233390E-081
   90.9150000000000         1.696696431439069E-081
   91.1050000000000         2.196554217898676E-081
   91.2950000000000         2.632930005100486E-081
   91.4850000000000         2.907056801271772E-081
   91.6750000000000         2.892656676748775E-081
   91.8650000000000         2.440191079875179E-081
   92.0550000000000         1.386586650757473E-081
   92.2450000000000        -4.282243929225184E-082
   92.4350000000000        -3.136911418797596E-081
   92.6250000000000        -6.812053653672567E-081
   92.8150000000000        -1.142564192957117E-080
   93.0050000000000        -1.680258890889462E-080
   93.1950000000000        -2.257177052484772E-080
   93.3850000000000        -2.812016352694097E-080
   93.5750000000000        -3.255790070639018E-080
   93.7650000000000        -3.470433144565954E-080
   93.9550000000000        -3.310714834075117E-080
   94.1450000000000        -2.610791681606541E-080
   94.3350000000000        -1.196742544745131E-080
   94.5250000000000         1.093740976794374E-080
   94.7150000000000         4.383740200781484E-080
   94.9050000000000         8.721499777010226E-080
   95.0950000000000         1.403778414528899E-079
   95.2850000000000         2.009854783901370E-079
   95.4750000000000         2.645698807065547E-079
   95.6650000000000         3.241103000023694E-079
   95.8550000000000         3.697439807583035E-079
   96.0450000000000         3.887143082971429E-079
   96.2350000000000         3.656739452753107E-079
   96.4250000000000         2.834684995266746E-079
   96.6150000000000         1.245215942065390E-079
   96.8050000000000        -1.270802544263964E-079
   96.9950000000000        -4.827499459303756E-079
   97.1850000000000        -9.458291075780134E-079
   97.3750000000000        -1.507407438622004E-078
   97.5650000000000        -2.141789115828942E-078
   97.7550000000000        -2.802024708028362E-078
   97.9450000000000        -3.416107527195923E-078
   98.1350000000000        -3.884618404135091E-078
   98.3250000000000        -4.080771071459421E-078
   98.5150000000000        -3.853932923917580E-078
   98.7050000000000        -3.037737323199147E-078
   98.8950000000000        -1.463822910328125E-078
   99.0850000000000         1.018010816790985E-078
   99.2750000000000         4.512895626935382E-078
   99.4650000000000         9.047592208110546E-078
   99.6550000000000         1.453210379969020E-077
   99.8450000000000         2.071872135886702E-077
   100.035000000000         2.716243306149402E-077
   100.225000000000         3.318817640114141E-077
   100.415000000000         3.787194917862523E-077
   100.605000000000         4.004413369541434E-077
   100.795000000000         3.832427664138510E-077
   100.985000000000         3.119670495588355E-077
   101.175000000000         1.713540961575528E-077
   101.365000000000        -5.215749728170831E-078
   101.555000000000        -3.680559120492846E-077
   101.745000000000        -7.788508589847399E-077
   101.935000000000        -1.276761189416654E-076
   102.125000000000        -1.840220281321762E-076
   102.315000000000        -2.430540965243744E-076
   102.505000000000        -2.989206521340572E-076
   102.695000000000        -3.436375292209769E-076
   102.885000000000        -3.671287684104800E-076
   103.075000000000        -3.575325517068044E-076
   103.265000000000        -3.018471051993926E-076
   103.455000000000        -1.869820663340260E-076
   103.645000000000        -1.260022445711947E-078
   103.835000000000         2.636216799890826E-076
   104.025000000000         6.102087282442388E-076
   104.215000000000         1.032592811935047E-075
   104.405000000000         1.513585430838768E-075
   104.595000000000         2.022039119935188E-075
   104.785000000000         2.510688148248144E-075
   104.975000000000         2.914971494538403E-075
   105.165000000000         3.153374464766457E-075
   105.355000000000         3.129866284498624E-075
   105.545000000000         2.739001629820801E-075
   105.735000000000         1.874175408189570E-075
   105.925000000000         4.393537372453183E-076
   106.115000000000        -1.635665593056756E-075
   106.305000000000        -4.376792698146486E-075
   106.495000000000        -7.744811433791349E-075
   106.685000000000        -1.161359629623485E-074
   106.875000000000        -1.574947739793053E-074
   107.065000000000        -1.979454868522516E-074
   107.255000000000        -2.325736958257820E-074
   107.445000000000        -2.551503118885437E-074
   107.635000000000        -2.583083412415661E-074
   107.825000000000        -2.339173016009613E-074
   108.015000000000        -1.736908123215317E-074
   108.205000000000        -7.005060399539123E-075
   108.395000000000         8.274945050443631E-075
   108.585000000000         2.872633049349128E-074
   108.775000000000         5.413163076190409E-074
   108.965000000000         8.363945789542106E-074
   109.155000000000         1.156110003546153E-073
   109.345000000000         1.474939840699141E-073
   109.535000000000         1.757485928205658E-073
   109.725000000000         1.958534902967246E-073
   109.915000000000         2.024220175755243E-073
   110.105000000000         1.894579992793441E-073