  -1.42500000000000         0.000000000000000E+000
  -1.23500000000000         0.000000000000000E+000
  -1.04500000000000         0.000000000000000E+000
 -0.855000000000000         0.000000000000000E+000
 -0.665000000000000         0.000000000000000E+000
 -0.475000000000000         0.000000000000000E+000
 -0.285000000000000         0.000000000000000E+000
 -9.499999999999975E-002    0.000000000000000E+000
  9.500000000000020E-002    0.000000000000000E+000
  0.285000000000000         0.000000000000000E+000
  0.475000000000000         0.000000000000000E+000
  0.665000000000000         0.000000000000000E+000
  0.855000000000000         0.000000000000000E+000
   1.04500000000000         0.000000000000000E+000
   1.23500000000000         0.000000000000000E+000
   1.42500000000000         0.000000000000000E+000
   1.61500000000000         0.000000000000000E+000
   1.80500000000000         0.000000000000000E+000
   1.99500000000000         0.000000000000000E+000
   2.18500000000000         0.000000000000000E+000
   2.37500000000000         0.000000000000000E+000
   2.56500000000000         0.000000000000000E+000
   2.75500000000000         0.000000000000000E+000
   2.94500000000000         0.000000000000000E+000
   3.13500000000000         0.000000000000000E+000
   3.32500000000000         0.000000000000000E+000
   3.51500000000000         0.000000000000000E+000
   3.70500000000000         0.000000000000000E+000
   3.89500000000000         0.000000000000000E+000
   4.08500000000000         0.000000000000000E+000
   4.27500000000000         0.000000000000000E+000
   4.46500000000000         0.000000000000000E+000
   4.65500000000000         0.000000000000000E+000
   4.84500000000000         0.000000000000000E+000
   5.03500000000000         0.000000000000000E+000
   5.22500000000000         0.000000000000000E+000
   5.41500000000000         0.000000000000000E+000
   5.60500000000000         0.000000000000000E+000
   5.79500000000000         0.000000000000000E+000
   5.98500000000000         0.000000000000000E+000
   6.17500000000000         0.000000000000000E+000
   6.36500000000000         0.000000000000000E+000
   6.55500000000000         0.000000000000000E+000
   6.74500000000000         4.499293714616005E-189
   6.93500000000000        -2.006552793163048E-185
   7.12500000000000         2.717063162546127E-183
   7.31500000000000        -9.023639103610167E-180
   7.50500000000000        -8.072050524914677E-178
   7.69500000000000        -3.666449504305533E-176
   7.88500000000000        -1.133659593144391E-174
   8.07500000000000        -2.682598101019072E-173
   8.26500000000000        -5.172432882081055E-172
   8.45500000000000        -8.447392093777107E-171
   8.64500000000000        -1.199503553079977E-169
   8.83500000000000        -1.509074127707173E-168
   9.02500000000000        -1.706206386682973E-167
   9.21500000000000        -1.753156069491787E-166
   9.40500000000000        -1.652005262855408E-165
   9.59500000000000        -1.438367209686476E-164
   9.78500000000000        -1.164554622521217E-163
   9.97500000000000        -8.815723869431904E-163
   10.1650000000000        -6.269492271558821E-162
   10.3550000000000        -4.206311050989914E-161
   10.5450000000000        -2.672249224690911E-160
   10.7350000000000        -1.612865141992062E-159
   10.9250000000000        -9.275918401885506E-159
   11.1150000000000        -5.097064539545236E-158
   11.3050000000000        -2.682537274295312E-157
   11.4950000000000        -1.355181776859977E-156
   11.6850000000000        -6.585014822173371E-156
   11.8750000000000        -3.083416449579420E-155
   12.0650000000000        -1.393698197782829E-154
   12.2550000000000        -6.090525307251601E-154
   12.4450000000000        -2.577082628584981E-153
   12.6350000000000        -1.057262760513254E-152
   12.8250000000000        -4.210872432232925E-152
   13.0150000000000        -1.630098021024068E-151
   13.2050000000000        -6.140360614140912E-151
   13.3950000000000        -2.253045667450494E-150
   13.5850000000000        -8.060719817439008E-150
   13.7750000000000        -2.814582680259448E-149
   13.9650000000000        -9.600157047882325E-149
   14.1550000000000        -3.201368870751612E-148
   14.3450000000000        -1.044570830130774E-147
   14.5350000000000        -3.337497060809549E-147
   14.7250000000000        -1.044975770555583E-146
   14.9150000000000        -3.208498410539791E-146
   15.1050000000000        -9.667246999147283E-146
   15.2950000000000        -2.860170387784159E-145
   15.4850000000000        -8.314568088654463E-145
   15.6750000000000        -2.376318558045053E-144
   15.8650000000000        -6.680869474148880E-144
   16.0550000000000        -1.848664938249737E-143
   16.2450000000000        -5.037333268948929E-143
   16.4350000000000        -1.352281316214269E-142
   16.6250000000000        -3.578075708900705E-142
   16.8150000000000        -9.335236983854156E-142
   17.0050000000000        -2.402460240785150E-141
   17.1950000000000        -6.100815532668838E-141
   17.3850000000000        -1.529150028125415E-140
   17.5750000000000        -3.784046870265750E-140
   17.7650000000000        -9.247091692792443E-140
   17.9550000000000        -2.231922518374521E-139
   18.1450000000000        -5.321662649873442E-139
   18.3350000000000        -1.253620083690219E-138
   18.5250000000000        -2.917961049069417E-138
   18.7150000000000        -6.711545015823216E-138
   18.9050000000000        -1.525530645253542E-137
   19.0950000000000        -3.426837556857594E-137
   19.2850000000000        -7.607692070423213E-137
   19.4750000000000        -1.669192830822796E-136
   19.6650000000000        -3.619565869400879E-136
   19.8550000000000        -7.757099003039882E-136
   20.0450000000000        -1.642949561599612E-135
   20.2350000000000        -3.438825402678963E-135
   20.4250000000000        -7.112481904276991E-135
   20.6150000000000        -1.453449643814611E-134
   20.8050000000000        -2.933986436958061E-134
   20.9950000000000        -5.848745347829905E-134
   21.1850000000000        -1.150849270853248E-133
   21.3750000000000        -2.233788607134583E-133
   21.5650000000000        -4.272940909115200E-133
   21.7550000000000        -8.044352657870511E-133
   21.9450000000000        -1.487646952312812E-132
   22.1350000000000        -2.694891237532098E-132
   22.3250000000000        -4.762284435694411E-132
   22.5150000000000        -8.157308826256758E-132
   22.7050000000000        -1.340289973838212E-131
   22.8950000000000        -2.073241835425853E-131
   23.0850000000000        -2.904569104753782E-131
   23.2750000000000        -3.319686595820758E-131
   23.4650000000000        -1.752301182478651E-131
   23.6550000000000         5.873246390454134E-131
   23.8450000000000         2.928336880115879E-130
   24.0350000000000         9.037898930959627E-130
   24.2250000000000         2.363400177256939E-129
   24.4150000000000         5.651285363316166E-129
   24.6050000000000         1.273574882005502E-128
   24.7950000000000         2.745079672669211E-128
   24.9850000000000         5.703802453126323E-128
   25.1750000000000         1.147432178257418E-127
   25.3650000000000         2.239579026855882E-127
   25.5550000000000         4.243418628967735E-127
   25.7450000000000         7.798170194829412E-127
   25.9350000000000         1.386522465260685E-126
   26.1250000000000         2.374147675088928E-126
   26.3150000000000         3.883260721178039E-126
   26.5050000000000         5.978035317584360E-126
   26.6950000000000         8.406453752541718E-126
   26.8850000000000         1.002756671031726E-125
   27.0750000000000         7.551075956741176E-126
   27.2650000000000        -7.083270528027249E-126
   27.4550000000000        -5.192009350124917E-125
   27.6450000000000        -1.649896193539033E-124
   27.8350000000000        -4.228740125218809E-124
   28.0250000000000        -9.741379312826412E-124
   28.2150000000000        -2.097750604666439E-123
   28.4050000000000        -4.302100025882776E-123
   28.5950000000000        -8.487358189655978E-123
   28.7850000000000        -1.620193481957192E-122
   28.9750000000000        -3.002951937039063E-122
   29.1650000000000        -5.413906849222644E-122
   29.3550000000000        -9.499907656481136E-122
   29.5450000000000        -1.621650057344423E-121
   29.7350000000000        -2.688282933905551E-121
   29.9250000000000        -4.313442026068494E-121
   30.1150000000000        -6.660158724982052E-121
   30.3050000000000        -9.796282076043822E-121
   30.4950000000000        -1.346972312258886E-120
   30.6850000000000        -1.662867666923723E-120
   30.8750000000000        -1.646391006178104E-120
   31.0650000000000        -6.587615863690006E-121
   31.2550000000000         2.629869131567468E-120
   31.4450000000000         1.083042953176836E-119
   31.6350000000000         2.884936019766074E-119
   31.8250000000000         6.558514552924158E-119
   32.0150000000000         1.366895491431598E-118
   32.2050000000000         2.689386905383171E-118
   32.3950000000000         5.069507727195122E-118
   32.5850000000000         9.231747103742341E-118
   32.7750000000000         1.632174461327064E-117
   32.9650000000000         2.810074223737021E-117
   33.1550000000000         4.719278519290545E-117
   33.3450000000000         7.736643719583736E-117
   33.5350000000000         1.237913636718053E-116
   33.7250000000000         1.931299829912458E-116
   33.9150000000000         2.931790717134486E-116
   34.1050000000000         4.315254396514818E-116
   34.2950000000000         6.122643699777058E-116
   34.4850000000000         8.291660217768159E-116
   34.6750000000000         1.052651486165919E-115
   34.8650000000000         1.206415822206791E-115
   35.0550000000000         1.127348971460660E-115
   35.2450000000000         4.994016823408543E-116
   35.4350000000000        -1.251868801288758E-115
   35.6250000000000        -5.122075242625018E-115
   35.8150000000000        -1.277120552420700E-114
   36.0050000000000        -2.687467967550863E-114
   36.1950000000000        -5.161084222341636E-114
   36.3850000000000        -9.330711644034489E-114
   36.5750000000000        -1.612457003920406E-113
   36.7650000000000        -2.685812163195386E-113
   36.9550000000000        -4.332283232095162E-113
   37.1450000000000        -6.784090069594622E-113
   37.3350000000000        -1.032267227842666E-112
   37.5250000000000        -1.525508554659332E-112
   37.7150000000000        -2.185334198830292E-112
   37.9050000000000        -3.022927732998987E-112
   38.0950000000000        -4.010326043838571E-112
   38.2850000000000        -5.040579206473007E-112
   38.4750000000000        -5.862632229243745E-112
   38.6650000000000        -5.979395504922652E-112
   38.8550000000000        -4.494246584621109E-112
   39.0450000000000         1.117148728563981E-113
   39.2350000000000         1.029086271835828E-111
   39.4250000000000         2.984611557690458E-111
   39.6150000000000         6.446311527213724E-111
   39.8050000000000         1.223473357329427E-110
   39.9950000000000         2.149182545021559E-110
   40.1850000000000         3.574467790782586E-110
   40.3750000000000         5.694144868452267E-110
   40.5650000000000         8.742066278534976E-110
   40.7550000000000         1.297504295866289E-109
   40.9450000000000         1.863391205888889E-109
   41.1350000000000         2.586713924009139E-109
   41.3250000000000         3.459613732047444E-109
   41.5150000000000         4.429381338989970E-109
   41.7050000000000         5.363900525309787E-109
   41.8950000000000         6.000025136507160E-109
   42.0850000000000         5.869444209374678E-109
   42.2750000000000         4.196234669128320E-109
   42.4650000000000        -2.391216273330895E-110
   42.6550000000000        -9.272195196137427E-109
   42.8450000000000        -2.556133977087977E-108
   43.0350000000000        -5.281687026370360E-108
   43.2250000000000        -9.602452315907803E-108
   43.4150000000000        -1.616090698184428E-107
   43.6050000000000        -2.574447271943896E-107
   43.7950000000000        -3.925622570325193E-107
   43.9850000000000        -5.763237747042961E-107
   44.1750000000000        -8.167310638838231E-107
   44.3650000000000        -1.117398966677011E-106
   44.5550000000000        -1.472563218592302E-106
   44.7450000000000        -1.859309901319350E-106
   44.9350000000000        -2.226031305613229E-106
   45.1250000000000        -2.475969030644574E-106
   45.3150000000000        -2.444666423871597E-106
   45.5050000000000        -1.870326234879993E-106
   45.6950000000000        -3.566180847183314E-107
   45.8850000000000         2.671361739968056E-106
   46.0750000000000         8.015186445902265E-106
   46.2650000000000         1.674901686395806E-105
   46.4550000000000         3.025179050236173E-105
   46.6450000000000         5.020633843098887E-105
   46.8350000000000         7.853520062130553E-105
   47.0250000000000         1.172284099652880E-104
   47.2150000000000         1.680001856683200E-104
   47.4050000000000         2.316897336720134E-104
   47.5950000000000         3.072977237093245E-104
   47.7850000000000         3.905278130283940E-104
   47.9750000000000         4.716877966846103E-104
   48.1650000000000         5.328073161232603E-104
   48.3550000000000         5.438632604093093E-104
   48.5450000000000         4.580909527055738E-104
   48.7350000000000         2.065269730195428E-104
   48.9250000000000        -3.077865636139085E-104
   49.1150000000000        -1.215064658682535E-103
   49.3050000000000        -2.681993410788689E-103
   49.4950000000000        -4.910493413808994E-103
   49.6850000000000        -8.128478052655137E-103
   49.8750000000000        -1.256764394785256E-102
   50.0650000000000        -1.842173883050607E-102
   50.2550000000000        -2.577714515357293E-102
   50.4450000000000        -3.450630607683939E-102
   50.6350000000000        -4.411400783810828E-102
   50.8250000000000        -5.352757009880915E-102
   51.0150000000000        -6.082562901753341E-102
   51.2050000000000        -6.290779062850665E-102
   51.3950000000000        -5.512064698958672E-102
   51.5850000000000        -3.087634946327139E-102
   51.7750000000000         1.867002031264666E-102
   51.9650000000000         1.047771713849383E-101
   52.1550000000000         2.409490897565326E-101
   52.3450000000000         4.422196644861391E-101
   52.5350000000000         7.236006040121296E-101
   52.7250000000000         1.097337068663134E-100
   52.9150000000000         1.568566484414623E-100
   53.1050000000000         2.128965517881243E-100
   53.2950000000000         2.748028709572263E-100
   53.4850000000000         3.361789804042802E-100
   53.6750000000000         3.859122275872382E-100
   53.8650000000000         4.066293945402678E-100
   54.0550000000000         3.731257176322305E-100
   54.2450000000000         2.510276376653587E-100
   54.4350000000000        -3.905142183341796E-102
   54.6250000000000        -4.452565825907884E-100
   54.8150000000000        -1.133431780820697E-099
   55.0050000000000        -2.130160172973758E-099
   55.1950000000000        -3.488889076553936E-099
   55.3850000000000        -5.239860939475627E-099
   55.5750000000000        -7.368760015145057E-099
   55.7650000000000        -9.788165886459454E-099
   55.9550000000000        -1.230177686340771E-098
   56.1450000000000        -1.456259121793493E-098
   56.3350000000000        -1.602807962928025E-098
   56.5250000000000        -1.591794033784034E-098
   56.7150000000000        -1.318332694882726E-098
   56.9050000000000        -6.500392709402109E-099
   57.0950000000000         5.694652203978547E-099
   57.2850000000000         2.510751809161366E-098
   57.4750000000000         5.340004052888761E-098
   57.6650000000000         9.189052155836159E-098
   57.8550000000000         1.411164726440897E-097
   58.0450000000000         2.002439689370070E-097
   58.2350000000000         2.663235838835835E-097
   58.4250000000000         3.334187420561332E-097
   58.6150000000000         3.916703047071527E-097
   58.8050000000000         4.264124476709370E-097
   58.9950000000000         4.175189879351556E-097
   59.1850000000000         3.392333372191876E-097
   59.3750000000000         1.608126938258194E-097
   59.5650000000000        -1.516133007452905E-097
   59.7550000000000        -6.315243607759875E-097
   59.9450000000000        -1.306389918462249E-096
   60.1350000000000        -2.189586877802193E-096
   60.3250000000000        -3.269686251822642E-096
   60.5150000000000        -4.497281107599903E-096
   60.7050000000000        -5.770050474853899E-096
   60.8950000000000        -6.917479226976309E-096
   61.0850000000000        -7.687582176469039E-096
   61.2750000000000        -7.739075718702446E-096
   61.4650000000000        -6.643614617412878E-096
   61.6550000000000        -3.903809023058208E-096
   61.8450000000000         1.006481302373050E-096
   62.0350000000000         8.572943074468303E-096
   62.2250000000000         1.913699505995230E-095
   62.4150000000000         3.275415272447751E-095
   62.6050000000000         4.901592941433714E-095
   62.7950000000000         6.684374691129806E-095
   62.9850000000000         8.427329879659335E-095
   63.1750000000000         9.826062647845688E-095
   63.3650000000000         1.045563103228129E-094
   63.5550000000000         9.771039682757335E-095
   63.7450000000000         7.128577191060444E-095
   63.9350000000000         1.836829931639670E-095
   64.1250000000000        -6.753642579146173E-095
   64.3150000000000        -1.911431885448668E-094
   64.5050000000000        -3.535224629021420E-094
   64.6950000000000        -5.497524962606840E-094
   64.8850000000000        -7.662073910788571E-094
   65.0750000000000        -9.777359538797653E-094
   65.2650000000000        -1.145158439850206E-093
   65.4550000000000        -1.213709185318565E-093
   65.6450000000000        -1.113264126434856E-093
   65.8350000000000        -7.613821480674507E-094
   66.0250000000000        -7.031190992574213E-095
   66.2150000000000         1.040890646768459E-093
   66.4050000000000         2.628200494096544E-093
   66.5950000000000         4.697985482696846E-093
   66.7850000000000         7.176336077557928E-093
   66.9750000000000         9.874124918341187E-093
   67.1650000000000         1.245134835353930E-092
   67.3550000000000         1.438652844793656E-092
   67.5450000000000         1.495948268861225E-092
   67.7350000000000         1.325833378840541E-092
   67.9250000000000         8.223805267959185E-093
   68.1150000000000        -1.254980096373195E-093
   68.3050000000000        -1.617960213607212E-092
   68.4950000000000        -3.720609533581634E-092
   68.6850000000000        -6.433017295610553E-092
   68.8750000000000        -9.650246652601152E-092
   69.0650000000000        -1.311993378869034E-091
   69.2550000000000        -1.639972144742386E-091
   69.4450000000000        -1.882253679703835E-091
   69.6350000000000        -1.948015380495137E-091
   69.8250000000000        -1.723831148037178E-091
   70.0150000000000        -1.079881590839867E-091
   70.2050000000000         1.175221159344937E-092
   70.3950000000000         1.985649833729460E-091
   70.5850000000000         4.596355400010945E-091
   70.7750000000000         7.938381350000901E-091
   70.9650000000000         1.187246523429201E-090
   71.1550000000000         1.608281443878154E-090
   71.3450000000000         2.003112793563446E-090
   71.5350000000000         2.292235301381804E-090
   71.7250000000000         2.369447584477463E-090
   71.9150000000000         2.104737716584990E-090
   72.1050000000000         1.352745825028597E-090
   72.2950000000000        -3.155158790401115E-092
   72.4850000000000        -2.168612132046991E-090
   72.6750000000000        -5.120953460163622E-090
   72.8650000000000        -8.851259221576236E-090
   73.0550000000000        -1.317437726231508E-089
   73.2450000000000        -1.770797514055712E-089
   73.4350000000000        -2.182944079044726E-089
   73.6250000000000        -2.464968037903126E-089
   73.8150000000000        -2.501737626236986E-089
   74.0050000000000        -2.156944202947850E-089
   74.1950000000000        -1.284407515934423E-089
   74.3850000000000         2.528972935122106E-090
   74.5750000000000         2.555153392109800E-089
   74.7650000000000         5.649387368969506E-089
   74.9550000000000         9.446042431219053E-089
   75.1450000000000         1.369198472823553E-088
   75.3350000000000         1.792600346036358E-088
   75.5250000000000         2.144569960357038E-088
   75.7150000000000         2.329749660570729E-088
   75.9050000000000         2.230386521332134E-088
   76.0950000000000         1.714307156692057E-088
   76.2850000000000         6.496010640305814E-089
   76.4750000000000        -1.072895148216842E-088
   76.6650000000000        -3.508966378670053E-088
   76.8550000000000        -6.623100225162682E-088
   77.0450000000000        -1.024584730872028E-087
   77.2350000000000        -1.403121253139665E-087
   77.4250000000000        -1.742137710456000E-087
   77.6150000000000        -1.962872323424633E-087
   77.8050000000000        -1.964754248661928E-087
   77.9950000000000        -1.630940670903485E-087
   78.1850000000000        -8.396263915242860E-088
   78.3750000000000         5.176930768560162E-088
   78.5650000000000         2.510369230869972E-087
   78.7550000000000         5.135467617747510E-087
   78.9450000000000         8.279059572837477E-087
   79.1350000000000         1.167550051408543E-086
   79.3250000000000         1.487050711442989E-086
   79.5150000000000         1.719632482708676E-086
   79.7050000000000         1.776969539483229E-086
   79.8950000000000         1.552525975080230E-086
   80.0850000000000         9.297888870196931E-087
   80.2750000000000        -2.033478828690158E-087
   80.4650000000000        -1.933138026532748E-086
   80.6550000000000        -4.291242643007651E-086
   80.8450000000000        -7.219538200615733E-086
   81.0350000000000        -1.053081892870641E-085
   81.2250000000000        -1.386965402232217E-085
   81.4150000000000        -1.667989056279240E-085
   81.6050000000000        -1.818764807043378E-085
   81.7950000000000        -1.741082028796617E-085
   81.9850000000000        -1.320764547595850E-085
   82.1750000000000        -4.377264164345029E-086
   82.3650000000000         1.017631184961643E-085
   82.5550000000000         3.120945679256291E-085
   82.7450000000000         5.883335605408141E-085
   82.9350000000000         9.214860539785495E-085
   83.1250000000000         1.288460177919099E-084
   83.3150000000000         1.648183609502089E-084
   83.5050000000000         1.938490957109299E-084
   83.6950000000000         2.074662863351367E-084
   83.8850000000000         1.950697513582555E-084
   84.0750000000000         1.444531329148848E-084
   84.2650000000000         4.284472783222997E-085
   84.4550000000000        -1.214243407356992E-084
   84.6450000000000        -3.565550673364181E-084
   84.8350000000000        -6.642178280018594E-084
   85.0250000000000        -1.035894122234909E-083
   85.2150000000000        -1.448863819484585E-083
   85.4050000000000        -1.862251070714753E-083
   85.5950000000000        -2.213738763415153E-083
   85.7850000000000        -2.417766367256774E-083
   85.9750000000000        -2.366213968437375E-083
   86.1650000000000        -1.932711383049177E-083
   86.3550000000000        -9.817514641443056E-084
   86.5450000000000         6.163202507234151E-084
   86.7350000000000         2.963676497582293E-083
   86.9250000000000         6.106540667239391E-083
   87.1150000000000         1.000054220152570E-082
   87.3050000000000         1.447173531298321E-082
   87.4950000000000         1.917660547024663E-082
   87.6850000000000         2.356611796312336E-082
   87.8750000000000         2.686071823762247E-082
   88.0650000000000         2.804498242530957E-082
   88.2550000000000         2.589206758529276E-082
   88.4450000000000         1.902887510191577E-082
   88.6350000000000         6.052500081781792E-083
   88.8250000000000        -1.429336648245016E-082
   89.0150000000000        -4.287735160024556E-082
   89.2050000000000        -7.987627256252416E-082
   89.3950000000000        -1.244186969546321E-081
   89.5850000000000        -1.741987688105605E-081
   89.7750000000000        -2.250972057143934E-081
   89.9650000000000        -2.708624468102453E-081
   90.1550000000000        -3.029214803839513E-081
   90.3450000000000        -3.104050011051370E-081
   90.5350000000000        -2.804826794714577E-081
   90.7250000000000        -1.991082783527167E-081
   90.9150000000000        -5.226742596343095E-082
   91.1050000000000         1.722009155205792E-081
   91.2950000000000         4.821787233383216E-081
   91.4850000000000         8.782707876452553E-081
   91.6750000000000         1.350352350584789E-080
   91.8650000000000         1.873890721638213E-080
   92.0550000000000         2.406399734713944E-080
   92.2450000000000         2.884530160099047E-080
   92.4350000000000         3.222445290424906E-080
   92.6250000000000         3.312261812938626E-080
   92.8150000000000         3.027429108514615E-080
   93.0050000000000         2.229947367176866E-080
   93.1950000000000         7.822542896772427E-081
   93.3850000000000        -1.435592564272882E-080
   93.5750000000000        -4.503178684369834E-080
   93.7650000000000        -8.431742587940132E-080
   93.9550000000000        -1.313200508359209E-079
   94.1450000000000        -1.837986854939811E-079
   94.3350000000000        -2.378319670266824E-079
   94.5250000000000        -2.875416615188376E-079
   94.7150000000000        -3.249298224039612E-079
   94.9050000000000        -3.398992667284188E-079
   95.0950000000000        -3.205355813335966E-079
   95.2850000000000        -2.537317846227349E-079
   95.4750000000000        -1.262312756164751E-079
   95.6650000000000         7.385218652967091E-080
   95.8550000000000         3.550099354079841E-079
   96.0450000000000         7.198297531750894E-079
   96.2350000000000         1.162089970471531E-078
   96.4250000000000         1.663627940984123E-078
   96.6150000000000         2.191255624937697E-078
   96.8050000000000         2.694107490201609E-078
   96.9950000000000         3.101921368294535E-078
   97.1850000000000         3.324858904154684E-078
   97.3750000000000         3.255552236082217E-078
   97.5650000000000         2.774096932680119E-078
   97.7550000000000         1.756674090069219E-078
   97.9450000000000         8.835106970377358E-080
   98.1350000000000        -2.319644771053369E-078
   98.3250000000000        -5.508283686369697E-078
   98.5150000000000        -9.445383242928635E-078
   98.7050000000000        -1.399792662160247E-077
   98.8950000000000        -1.890428455333560E-077
   99.0850000000000        -2.374953681479654E-077
   99.2750000000000        -2.794808290305626E-077
   99.4650000000000        -3.073865522195878E-077
   99.6550000000000        -3.119756402424251E-077
   99.8450000000000        -2.827634018049309E-077
   100.035000000000        -2.086970106244972E-077
   100.225000000000        -7.918732714183272E-078
   100.415000000000         1.144785199633837E-077
   100.605000000000         3.773473446385272E-077
   100.795000000000         7.086815867622200E-077
   100.985000000000         1.099619382543998E-076
   101.175000000000         1.530789926556968E-076
   101.365000000000         1.970139493779670E-076
   101.555000000000         2.371304808989347E-076
   101.745000000000         2.672946369519423E-076
   101.935000000000         2.799513842761897E-076
   102.125000000000         2.663945187707803E-076
   102.315000000000         2.172785061364934E-076
   102.505000000000         1.234129684547651E-076
   102.695000000000        -2.313515625714633E-077
   102.885000000000        -2.276316657289435E-076
   103.075000000000        -4.909922288858643E-076
   103.265000000000        -8.079065824982862E-076
   103.455000000000        -1.164903881135562E-075
   103.645000000000        -1.538553836422985E-075
   103.835000000000        -1.894060914449213E-075
   104.025000000000        -2.184567286524572E-075
   104.215000000000        -2.351526150833745E-075
   104.405000000000        -2.326530326007359E-075
   104.595000000000        -2.034970129316676E-075
   104.785000000000        -1.401837330102096E-075
   104.975000000000        -3.598767594768497E-076
   105.165000000000         1.139895668902464E-075
   105.355000000000         3.115545953354896E-075
   105.545000000000         5.540012686446975E-075
   105.735000000000         8.326295822938102E-075
   105.925000000000         1.131344306460317E-074
   106.115000000000         1.425518654000990E-074
   106.305000000000         1.681350475600906E-074
   106.495000000000         1.855971785131810E-074
   106.685000000000         1.898589747464133E-074
   106.875000000000         1.752930679019259E-074
   107.065000000000         1.361219847482259E-074
   107.255000000000         6.698510905844907E-075
   107.445000000000        -3.632248426017470E-075
   107.635000000000        -1.759539430568067E-074
   107.825000000000        -3.509943844061452E-074
   108.015000000000        -5.563883777596292E-074
   108.205000000000        -7.819049567491788E-074
   108.395000000000        -1.011264823097651E-073
   108.585000000000        -1.221583316641909E-073
   108.775000000000        -1.383305879041130E-073
   108.965000000000        -1.460825590141688E-073
   109.155000000000        -1.413969828954291E-073
   109.345000000000        -1.200519948853630E-073
   109.535000000000        -7.798791122717691E-074
   109.725000000000        -1.179250949198692E-074
   109.915000000000         8.070253832975527E-074
   110.105000000000         1.997356235713257E-073