  -1.42500000000000         0.000000000000000E+000
  -1.23500000000000         0.000000000000000E+000
  -1.04500000000000         0.000000000000000E+000
 -0.855000000000000         0.000000000000000E+000
 -0.665000000000000         0.000000000000000E+000
 -0.475000000000000         0.000000000000000E+000
 -0.285000000000000         0.000000000000000E+000
 -9.499999999999975E-002    0.000000000000000E+000
  9.500000000000020E-002    0.000000000000000E+000
  0.285000000000000         0.000000000000000E+000
  0.475000000000000         0.000000000000000E+000
  0.665000000000000         0.000000000000000E+000
  0.855000000000000         0.000000000000000E+000
   1.04500000000000         0.000000000000000E+000
   1.23500000000000         0.000000000000000E+000
   1.42500000000000         0.000000000000000E+000
   1.61500000000000         0.000000000000000E+000
   1.80500000000000         0.000000000000000E+000
   1.99500000000000         0.000000000000000E+000
   2.18500000000000         0.000000000000000E+000
   2.37500000000000         0.000000000000000E+000
   2.56500000000000         0.000000000000000E+000
   2.75500000000000         0.000000000000000E+000
   2.94500000000000         0.000000000000000E+000
   3.13500000000000         0.000000000000000E+000
   3.32500000000000         0.000000000000000E+000
   3.51500000000000         0.000000000000000E+000
   3.70500000000000         0.000000000000000E+000
   3.89500000000000         0.000000000000000E+000
   4.08500000000000         0.000000000000000E+000
   4.27500000000000         0.000000000000000E+000
   4.46500000000000         0.000000000000000E+000
   4.65500000000000         0.000000000000000E+000
   4.84500000000000         0.000000000000000E+000
   5.03500000000000        -9.098949846332470E-141
   5.22500000000000        -2.327785157799195E-134
   5.41500000000000        -1.342300877380751E-132
   5.60500000000000        -3.697666669408128E-131
   5.79500000000000        -6.304055679018837E-130
   5.98500000000000        -6.960733672882793E-129
   6.17500000000000        -3.988490401858478E-128
   6.36500000000000         2.197249141902294E-127
   6.55500000000000         9.251266896999320E-126
   6.74500000000000         1.449748120683922E-124
   6.93500000000000         1.646089031830857E-123
   7.12500000000000         1.529592975927828E-122
   7.31500000000000         1.220755279881752E-121
   7.50500000000000         8.578024282471861E-121
   7.69500000000000         5.381201815450609E-120
   7.88500000000000         3.034789163657977E-119
   8.07500000000000         1.539890932245006E-118
   8.26500000000000         6.979990882417982E-118
   8.45500000000000         2.764841772562528E-117
   8.64500000000000         9.001908591596356E-117
   8.83500000000000         1.900723997617312E-116
   9.02500000000000        -2.472859929836931E-116
   9.21500000000000        -5.981495891217182E-115
   9.40500000000000        -4.556821673635880E-114
   9.59500000000000        -2.654276559203455E-113
   9.78500000000000        -1.342639048947353E-112
   9.97500000000000        -6.172665479204064E-112
   10.1650000000000        -2.637049068053047E-111
   10.3550000000000        -1.060448388000163E-110
   10.5450000000000        -4.048066934633588E-110
   10.7350000000000        -1.475758534324704E-109
   10.9250000000000        -5.161967240332835E-109
   11.1150000000000        -1.739041584367627E-108
   11.3050000000000        -5.661658852852651E-108
   11.4950000000000        -1.786619205947520E-107
   11.6850000000000        -5.480489244261704E-107
   11.8750000000000        -1.638754081163395E-106
   12.0650000000000        -4.789635651999223E-106
   12.2550000000000        -1.371981613241545E-105
   12.4450000000000        -3.861609182616786E-105
   12.6350000000000        -1.070522587635724E-104
   12.8250000000000        -2.929078250806027E-104
   13.0150000000000        -7.922989973939144E-104
   13.2050000000000        -2.121087252885736E-103
   13.3950000000000        -5.623135297681487E-103
   13.5850000000000        -1.476197037247664E-102
   13.7750000000000        -3.835646281200083E-102
   13.9650000000000        -9.855574183127599E-102
   14.1550000000000        -2.501452397963534E-101
   14.3450000000000        -6.263838485391372E-101
   14.5350000000000        -1.545599798923875E-100
   14.7250000000000        -3.753728974050150E-100
   14.9150000000000        -8.963716142906335E-100
   15.1050000000000        -2.102700222854439E-099
   15.2950000000000        -4.841582952472071E-099
   15.4850000000000        -1.093497287171281E-098
   15.6750000000000        -2.421016595650234E-098
   15.8650000000000        -5.251349258785185E-098
   16.0550000000000        -1.115259743317382E-097
   16.2450000000000        -2.317534019011339E-097
   16.4350000000000        -4.708495215236629E-097
   16.6250000000000        -9.343709167942795E-097
   16.8150000000000        -1.808759242763359E-096
   17.0050000000000        -3.409645163625807E-096
   17.1950000000000        -6.243666962806828E-096
   17.3850000000000        -1.106675643582400E-095
   17.5750000000000        -1.888370780754688E-095
   17.7650000000000        -3.074844727152121E-095
   17.9550000000000        -4.704653310980720E-095
   18.1450000000000        -6.559033043973392E-095
   18.3350000000000        -7.719424464580555E-095
   18.5250000000000        -5.619233070689361E-095
   18.7150000000000         5.875355328588285E-095
   18.9050000000000         4.017919823285965E-094
   19.0950000000000         1.249078760808955E-093
   19.2850000000000         3.143432479221929E-093
   19.4750000000000         7.111958090647511E-093
   19.6650000000000         1.503459431481145E-092
   19.8550000000000         3.024943631537118E-092
   20.0450000000000         5.851558025659869E-092
   20.2350000000000         1.094918093023881E-091
   20.4250000000000         1.989172161359259E-091
   20.6150000000000         3.516697045939640E-091
   20.8050000000000         6.057738830995721E-091
   20.9950000000000         1.017126361270320E-090
   21.1850000000000         1.664019259554263E-090
   21.3750000000000         2.649160368800432E-090
   21.5650000000000         4.094304680290899E-090
   21.7550000000000         6.118031934509130E-090
   21.9450000000000         8.779419813680881E-090
   22.1350000000000         1.195759417108702E-089
   22.3250000000000         1.511685805257530E-089
   22.5150000000000         1.687584961735205E-089
   22.7050000000000         1.425242544834291E-089
   22.8950000000000         1.388109115083520E-090
   23.0850000000000        -3.253939819573314E-089
   23.2750000000000        -1.066363101506392E-088
   23.4650000000000        -2.534336018246475E-088
   23.6550000000000        -5.266419222283849E-088
   23.8450000000000        -1.012545147873072E-087
   24.0350000000000        -1.846282514370435E-087
   24.2250000000000        -3.234421220219479E-087
   24.4150000000000        -5.485173778350283E-087
   24.6050000000000        -9.047147631033224E-087
   24.7950000000000        -1.455626474145018E-086
   24.9850000000000        -2.288787447634439E-086
   25.1750000000000        -3.520620114960463E-086
   25.3650000000000        -5.299474924598712E-086
   25.5550000000000        -7.803710140871858E-086
   25.7450000000000        -1.122947205997748E-085
   25.9350000000000        -1.575926503106000E-085
   26.1250000000000        -2.149693716807859E-085
   26.3150000000000        -2.834651177801007E-085
   26.5050000000000        -3.580020804029394E-085
   26.6950000000000        -4.258344032829228E-085
   26.8850000000000        -4.607944060685633E-085
   27.0750000000000        -4.142058406439802E-085
   27.2650000000000        -2.008378279231108E-085
   27.4550000000000         3.224143461470361E-085
   27.6450000000000         1.388376529279076E-084
   27.8350000000000         3.366502563524149E-084
   28.0250000000000         6.831089011374254E-084
   28.2150000000000         1.265933761839756E-083
   28.4050000000000         2.217084369130483E-083
   28.5950000000000         3.732409391535048E-083
   28.7850000000000         6.099081215976154E-083
   28.9750000000000         9.733585981170014E-083
   29.1650000000000         1.523393453283819E-082
   29.3550000000000         2.345092254389730E-082
   29.5450000000000         3.558477516366810E-082
   29.7350000000000         5.331545908028864E-082
   29.9250000000000         7.897745091049345E-082
   30.1150000000000         1.157929555558429E-081
   30.3050000000000         1.681816288525381E-081
   30.4950000000000         2.421699356532857E-081
   30.6850000000000         3.459295007385453E-081
   30.8750000000000         4.904812377204759E-081
   31.0650000000000         6.906105493068187E-081
   31.2550000000000         9.660480403886159E-081
   31.4450000000000         1.342978990536170E-080
   31.6350000000000         1.855951442658132E-080
   31.8250000000000         2.550253995057862E-080
   32.0150000000000         3.484825078823124E-080
   32.2050000000000         4.735727678501831E-080
   32.3950000000000         6.400165185374519E-080
   32.5850000000000         8.600908070826772E-080
   32.7750000000000         1.149082292246926E-079
   32.9650000000000         1.525691144560596E-079
   33.1550000000000         2.012283192136358E-079
   33.3450000000000         2.634822942860284E-079
   33.5350000000000         3.422226643369847E-079
   33.7250000000000         4.404742410437220E-079
   33.9150000000000         5.610781559876319E-079
   34.1050000000000         7.061376921031872E-079
   34.2950000000000         8.761113008044604E-079
   34.4850000000000         1.068394006622904E-078
   34.6750000000000         1.275172848157733E-078
   34.8650000000000         1.480272130998284E-078
   35.0550000000000         1.654618321132996E-078
   35.2450000000000         1.749851373372329E-078
   35.4350000000000         1.689489566956994E-078
   35.6250000000000         1.356921290061484E-078
   35.8150000000000         5.793561874799363E-079
   36.0050000000000        -8.932682944632096E-079
   36.1950000000000        -3.415540778707969E-078
   36.3850000000000        -7.481162818238008E-078
   36.5750000000000        -1.376599850909069E-077
   36.7650000000000        -2.318051228667348E-077
   36.9550000000000        -3.693207166588808E-077
   37.1450000000000        -5.659679224448921E-077
   37.3350000000000        -8.419932080412455E-077
   37.5250000000000        -1.222970340590694E-076
   37.7150000000000        -1.740624025528186E-076
   37.9050000000000        -2.433535508588824E-076
   38.0950000000000        -3.347581659865247E-076
   38.2850000000000        -4.535897305108591E-076
   38.4750000000000        -6.058075197814271E-076
   38.6650000000000        -7.978229500771933E-076
   38.8550000000000        -1.036144904934873E-075
   39.0450000000000        -1.326806023899668E-075
   39.2350000000000        -1.674501305752450E-075
   39.4250000000000        -2.081360772697363E-075
   39.6150000000000        -2.545270746030853E-075
   39.8050000000000        -3.057655287579071E-075
   39.9950000000000        -3.600632803327583E-075
   40.1850000000000        -4.143475432295877E-075
   40.3750000000000        -4.638324013167289E-075
   40.5650000000000        -5.015153295539200E-075
   40.7550000000000        -5.176045936553956E-075
   40.9450000000000        -4.988926641021282E-075
   41.1350000000000        -4.281038892864565E-075
   41.3250000000000        -2.832628737020174E-075
   41.5150000000000        -3.715499923064311E-076
   41.7050000000000         3.430154733211382E-075
   41.8950000000000         8.956185311395916E-075
   42.0850000000000         1.664030915495818E-074
   42.2750000000000         2.695217435904079E-074
   42.4650000000000         4.037071356515028E-074
   42.6550000000000         5.734004276285323E-074
   42.8450000000000         7.820139416291056E-074
   43.0350000000000         1.030932028673138E-073
   43.2250000000000         1.318102165589432E-073
   43.4150000000000         1.636117960003951E-073
   43.6050000000000         1.969700076013423E-073
   43.7950000000000         2.292505118103293E-073
   43.9850000000000         2.563247273614680E-073
   44.1750000000000         2.721216586136311E-073
   44.3650000000000         2.681436357880992E-073
   44.5550000000000         2.329935445229864E-073
   44.7450000000000         1.519930916469023E-073
   44.9350000000000         7.012648863411926E-075
   45.1250000000000        -2.233178251077221E-073
   45.3150000000000        -5.627936602947073E-073
   45.5050000000000        -1.035941179570597E-072
   45.6950000000000        -1.665129668396182E-072
   45.8850000000000        -2.466162915613395E-072
   46.0750000000000        -3.442059138261046E-072
   46.2650000000000        -4.574835826906701E-072
   46.4550000000000        -5.815323172611960E-072
   46.6450000000000        -7.071362622052806E-072
   46.8350000000000        -8.195225839298672E-072
   47.0250000000000        -8.971720077566829E-072
   47.2150000000000        -9.109211113192660E-072
   47.4050000000000        -8.236641885353587E-072
   47.5950000000000        -5.910454646427512E-072
   47.7850000000000        -1.635981190194175E-072
   47.9750000000000         5.091867470147614E-072
   48.1650000000000         1.472417889223118E-071
   48.3550000000000         2.756683166310248E-071
   48.5450000000000         4.366213690042470E-071
   48.7350000000000         6.264723508834151E-071
   48.9250000000000         8.359916359310390E-071
   49.1150000000000         1.048841827101657E-070
   49.3050000000000         1.240378674623672E-070
   49.4950000000000         1.377117584450016E-070
   49.6850000000000         1.417305697387919E-070
   49.8750000000000         1.313089996588158E-070
   50.0650000000000         1.014763986602981E-070
   50.2550000000000         4.774777199219038E-071
   50.4450000000000        -3.294247128781293E-071
   50.6350000000000        -1.410649243726339E-070
   50.8250000000000        -2.731530969661906E-070
   51.0150000000000        -4.204416808702682E-070
   51.2050000000000        -5.677173672480781E-070
   51.3950000000000        -6.927062730485388E-070
   51.5850000000000        -7.664078255486019E-070
   51.7750000000000        -7.548462740964971E-070
   51.9650000000000        -6.227236158286866E-070
   52.1550000000000        -3.393925881252414E-070
   52.3450000000000         1.126060339767136E-070
   52.5350000000000         7.265113433172229E-070
   52.7250000000000         1.458360827295394E-069
   52.9150000000000         2.213251141494384E-069
   53.1050000000000         2.832833813610720E-069
   53.2950000000000         3.086945880988924E-069
   53.4850000000000         2.673198244206171E-069
   53.6750000000000         1.229142773598647E-069
   53.8650000000000        -1.637879036748853E-069
   54.0550000000000        -6.298178072603019E-069
   54.2450000000000        -1.302033012413741E-068
   54.4350000000000        -2.186286684060388E-068
   54.6250000000000        -3.253836443410121E-068
   54.8150000000000        -4.425623259730873E-068
   55.0050000000000        -5.555711270961527E-068
   55.1950000000000        -6.415986849302589E-068
   55.3850000000000        -6.685125566737041E-068
   55.5750000000000        -5.945769991514697E-068
   55.7650000000000        -3.694699928668551E-068
   55.9550000000000         6.286426929445130E-069
   56.1450000000000         7.589793031167146E-068
   56.3350000000000         1.767816418980410E-067
   56.5250000000000         3.119383752279287E-067
   56.7150000000000         4.810159822124389E-067
   56.9050000000000         6.785570286435215E-067
   57.0950000000000         8.920451899168197E-067
   57.2850000000000         1.099913342900799E-066
   57.4750000000000         1.269760786114803E-066
   57.6650000000000         1.357119594211986E-066
   57.8550000000000         1.305202840976938E-066
   58.0450000000000         1.046148656467990E-066
   58.2350000000000         5.043282084388707E-067
   58.4250000000000        -3.977067718977243E-067
   58.6150000000000        -1.730123133975930E-066
   58.8050000000000        -3.543194294566371E-066
   58.9950000000000        -5.851093897227667E-066
   59.1850000000000        -8.612426490107931E-066
   59.3750000000000        -1.170839428278567E-065
   59.5650000000000        -1.492021989891377E-065
   59.7550000000000        -1.790829897502326E-065
   59.9450000000000        -2.019649618207409E-065
   60.1350000000000        -2.116594216592937E-065
   60.3250000000000        -2.006351526513878E-065
   60.5150000000000        -1.603073575172375E-065
   60.7050000000000        -8.158855454603901E-066
   60.8950000000000         4.424746840688826E-066
   61.0850000000000         2.243540685725570E-065
   61.2750000000000         4.627466671714792E-065
   61.4650000000000         7.584209860813549E-065
   61.6550000000000         1.103248716632070E-064
   61.8450000000000         1.479815523332691E-064
   62.0350000000000         1.859446935395075E-064
   62.2250000000000         2.200751416084398E-064
   62.4150000000000         2.449086315767259E-064
   62.6050000000000         2.537407319604350E-064
   62.7950000000000         2.388977807651749E-064
   62.9850000000000         1.922371378521920E-064
   63.1750000000000         1.059078494179923E-064
   63.3650000000000        -2.661906376194608E-065
   63.5550000000000        -2.092740905923092E-064
   63.7450000000000        -4.419331313363423E-064
   63.9350000000000        -7.189005987997707E-064
   64.1250000000000        -1.027507618239973E-063
   64.3150000000000        -1.347056894257815E-063
   64.5050000000000        -1.648390964390222E-063
   64.6950000000000        -1.894383732118797E-063
   64.8850000000000        -2.041643264367420E-063
   65.0750000000000        -2.043653459841801E-063
   65.2650000000000        -1.855461670769940E-063
   65.4550000000000        -1.439831353150973E-063
   65.6450000000000        -7.745234044523669E-064
   65.8350000000000         1.399422495418693E-064
   66.0250000000000         1.273037707670695E-063
   66.2150000000000         2.558820494639630E-063
   66.4050000000000         3.893972107154387E-063
   66.5950000000000         5.141023524613239E-063
   66.7850000000000         6.138434796443349E-063
   66.9750000000000         6.718826770074481E-063
   67.1650000000000         6.735930060418323E-063
   67.3550000000000         6.099676093749388E-063
   67.5450000000000         4.817307515960447E-063
   67.7350000000000         3.036491380261822E-063
   67.9250000000000         1.084315370873595E-063
   68.1150000000000        -5.060422338394125E-064
   68.3050000000000        -9.909445650204954E-064
   68.4950000000000         5.547356153473663E-064
   68.6850000000000         5.164360060678990E-063
   68.8750000000000         1.385269405832756E-062
   69.0650000000000         2.742984561936479E-062
   69.2550000000000         4.625618740410043E-062
   69.4450000000000         6.994664281156563E-062
   69.6350000000000         9.704298352265858E-062
   69.8250000000000         1.246846133231628E-061
   70.0150000000000         1.483208037859959E-061
   70.2050000000000         1.615192456036778E-061
   70.3950000000000         1.559355248992186E-061
   70.5850000000000         1.215139658606123E-061
   70.7750000000000         4.699038866626651E-062
   70.9650000000000        -7.923996084872330E-062
   71.1550000000000        -2.678420885736967E-061
   71.3450000000000        -5.268269209003579E-061
   71.5350000000000        -8.594167050351210E-061
   71.7250000000000        -1.261548466298604E-060
   71.9150000000000        -1.719126489033700E-060
   72.1050000000000        -2.205193808169637E-060
   72.2950000000000        -2.677256145791511E-060
   72.4850000000000        -3.075057618877302E-060
   72.6750000000000        -3.319174040309621E-060
   72.8650000000000        -3.310855014957600E-060
   73.0550000000000        -2.933608347766821E-060
   73.2450000000000        -2.057076564142527E-060
   73.4350000000000        -5.438003077908091E-061
   73.6250000000000         1.740512359999568E-060
   73.8150000000000         4.912603765772365E-060
   74.0050000000000         9.052636698225417E-060
   74.1950000000000         1.418014777880470E-059
   74.3850000000000         2.022491820751440E-059
   74.5750000000000         2.699318757351611E-059
   74.7650000000000         3.413037073445700E-059
   74.9550000000000         4.108246271649264E-059
   75.1450000000000         4.705966057722687E-059
   75.3350000000000         5.100738561613950E-059
   75.5250000000000         5.159178796967656E-059
   75.7150000000000         4.720881283648043E-059
   75.9050000000000         3.602775868322557E-059
   76.0950000000000         1.608160616907147E-059
   76.2850000000000        -1.458322724055287E-059
   76.4750000000000        -5.768621304735033E-059
   76.6650000000000        -1.144129423336650E-058
   76.8550000000000        -1.850341676848537E-058
   77.0450000000000        -2.684509029025354E-058
   77.2350000000000        -3.616856819744263E-058
   77.4250000000000        -4.593563232322759E-058
   77.6150000000000        -5.531875196545238E-058
   77.8050000000000        -6.316359528548873E-058
   77.9950000000000        -6.797243111665998E-058
   78.1850000000000        -6.791956943443129E-058
   78.3750000000000        -6.091088065581725E-058
   78.5650000000000        -4.469919650541679E-058
   78.7550000000000        -1.706560220382913E-058
   78.9450000000000         2.392710901032543E-058
   79.1350000000000         7.960852166505292E-058
   79.3250000000000         1.503102485318987E-057
   79.5150000000000         2.349296994587527E-057
   79.7050000000000         3.304787937044957E-057
   79.8950000000000         4.316616122008059E-057
   80.0850000000000         5.305378173610730E-057
   80.2750000000000         6.163395463077997E-057
   80.4650000000000         6.755165030541367E-057
   80.6550000000000         6.920850800932482E-057
   80.8450000000000         6.483505274000987E-057
   81.0350000000000         5.260547648412665E-057
   81.2250000000000         3.079753115292312E-057
   81.4150000000000        -2.003721089444052E-058
   81.6050000000000        -4.666434877195067E-057
   81.7950000000000        -1.032337875685198E-056
   81.9850000000000        -1.706684201818758E-056
   82.1750000000000        -2.465698739297989E-056
   82.3650000000000        -3.269665090352229E-056
   82.5550000000000        -4.061702734208745E-056
   82.7450000000000        -4.767427440846939E-056
   82.9350000000000        -5.296031798132521E-056
   83.1250000000000        -5.543073552595477E-056
   83.3150000000000        -5.395186467667874E-056
   83.5050000000000        -4.736823988577053E-056
   83.6950000000000        -3.459014322211190E-056
   83.8850000000000        -1.469953694286688E-056
   84.0750000000000         1.292898047676645E-056
   84.2650000000000         4.849718008681600E-056
   84.4550000000000         9.164867867076265E-056
   84.6450000000000         1.413387278601238E-055
   84.8350000000000         1.957172496875434E-055
   85.0250000000000         2.520348917474217E-055
   85.2150000000000         3.065825017090368E-055
   85.4050000000000         3.546749121059715E-055
   85.5950000000000         3.906903780976787E-055
   85.7850000000000         4.081775033438312E-055
   85.9750000000000         4.000420410910814E-055
   86.1650000000000         3.588264753315855E-055
   86.3550000000000         2.770955149445126E-055
   86.5450000000000         1.479401181996066E-055
   86.7350000000000        -3.438925817659356E-056
   86.9250000000000        -2.737136713490275E-055
   87.1150000000000        -5.710218526337129E-055
   87.3050000000000        -9.234439776556921E-055
   87.4950000000000        -1.323132032763465E-054
   87.6850000000000        -1.756097620331127E-054
   87.8750000000000        -2.201084998692609E-054
   88.0650000000000        -2.628588135745873E-054
   88.2550000000000        -3.000153508628399E-054
   88.4450000000000        -3.268142182566619E-054
   88.6350000000000        -3.376151226102025E-054
   88.8250000000000        -3.260310861594087E-054
   89.0150000000000        -2.851674607620594E-054
   89.2050000000000        -2.079899882428988E-054
   89.3950000000000        -8.783717234544208E-055
   89.5850000000000         8.091504993029387E-055
   89.7750000000000         3.020385141008198E-054
   89.9650000000000         5.765029855675510E-054
   90.1550000000000         9.014215693464549E-054
   90.3450000000000         1.268938598228028E-053
   90.5350000000000         1.665125065889577E-053
   90.7250000000000         2.068964592416751E-053
   90.9150000000000         2.451530147839397E-053
   91.1050000000000         2.775467736425553E-053
   91.2950000000000         2.994917636211088E-053
   91.4850000000000         3.056016506051226E-053
   91.6750000000000         2.898134718228353E-053
   91.8650000000000         2.456012436981530E-053
   92.0550000000000         1.662964346716972E-053
   92.2450000000000         4.553243440725999E-054
   92.4350000000000        -1.221706237307437E-053
   92.6250000000000        -3.406667020743302E-053
   92.8150000000000        -6.112813337840824E-053
   93.0050000000000        -9.317455506458770E-053
   93.1950000000000        -1.294980349375744E-052
   93.3850000000000        -1.687767109167164E-052
   93.5750000000000        -2.089369221793658E-052
   93.7650000000000        -2.470209489363283E-052
   93.9550000000000        -2.790756492039078E-052
   94.1450000000000        -3.000829474121052E-052
   94.3350000000000        -3.039591560910402E-052
   94.5250000000000        -2.836558897161098E-052
   94.7150000000000        -2.313999243333935E-052
   94.9050000000000        -1.391115367199871E-052
   95.0950000000000         9.608636674192010E-055
   95.2850000000000         1.953592626769590E-052
   95.4750000000000         4.482716366514815E-052
   95.6650000000000         7.601315796863647E-052
   95.8550000000000         1.126001486497495E-051
   96.0450000000000         1.533820923526750E-051
   96.2350000000000         1.962652332467599E-051
   96.4250000000000         2.381112455190807E-051
   96.6150000000000         2.746235408569112E-051
   96.8050000000000         3.003065851304436E-051
   96.9950000000000         3.085320053428806E-051
   97.1850000000000         2.917469321138389E-051
   97.3750000000000         2.418583731295393E-051
   97.5650000000000         1.508214187449361E-051
   97.7550000000000         1.144784666876098E-052
   97.9450000000000        -1.815653947121121E-051
   98.1350000000000        -4.304114547205212E-051
   98.3250000000000        -7.328049291570353E-051
   98.5150000000000        -1.080554727682147E-050
   98.7050000000000        -1.458199401221025E-050
   98.8950000000000        -1.841860876580693E-050
   99.0850000000000        -2.198503342016042E-050
   99.2750000000000        -2.485806236213851E-050
   99.4650000000000        -2.652869132990193E-050
   99.6550000000000        -2.641956973748805E-050
   99.8450000000000        -2.391462204449834E-050
   100.035000000000        -1.840202516974714E-050
   100.225000000000        -9.330871959011415E-051
   100.415000000000         3.719282917788498E-051
   100.605000000000         2.095818170936890E-050
   100.795000000000         4.229769232353947E-050
   100.985000000000         6.726316132631713E-050
   101.175000000000         9.491043267734647E-050
   101.365000000000         1.237572225334455E-049
   101.555000000000         1.517387960421943E-049
   101.745000000000         1.761986895227050E-049
   101.935000000000         1.939253958283762E-049
   102.125000000000         2.012453275832067E-049
   102.315000000000         1.941808591357025E-049
   102.505000000000         1.686797212863875E-049
   102.695000000000         1.209184205121835E-049
   102.885000000000         4.767766055173773E-050
   103.075000000000        -5.321800474188496E-050
   103.265000000000        -1.824107682861681E-049
   103.455000000000        -3.384924103884037E-049
   103.645000000000        -5.174894634369662E-049
   103.835000000000        -7.123891275518162E-049
   104.025000000000        -9.127525585412971E-049
   104.215000000000        -1.104469660780433E-048
   104.405000000000        -1.269715674119355E-048
   104.595000000000        -1.387173813764624E-048
   104.785000000000        -1.432589001234410E-048
   104.975000000000        -1.379714141277549E-048
   105.165000000000        -1.201701145394407E-048
   105.355000000000        -8.729725991934117E-049
   105.545000000000        -3.715852848257150E-049
   105.735000000000         3.179374200555792E-049
   105.925000000000         1.201371625305403E-048
   106.115000000000         2.271279401420271E-048
   106.305000000000         3.503401237605640E-048
   106.495000000000         4.853210545767487E-048
   106.685000000000         6.252959553814832E-048
   106.875000000000         7.609616260020804E-048
   107.065000000000         8.804151852178970E-048
   107.255000000000         9.692677745649156E-048
   107.445000000000         1.010994041207706E-047
   107.635000000000         9.875649004482989E-048
   107.825000000000         8.804024255563240E-048
   108.015000000000         6.716807592386561E-048
   108.205000000000         3.459750270898183E-048
   108.395000000000        -1.077688328349976E-048
   108.585000000000        -6.940061875564938E-048
   108.775000000000        -1.408211906465503E-047
   108.965000000000        -2.234493429852115E-047
   109.155000000000        -3.143392519259717E-047
   109.345000000000        -4.090110964476299E-047
   109.535000000000        -5.013428770888907E-047
   109.725000000000        -5.835603229676680E-047
   109.915000000000        -6.463538493050227E-047
   110.105000000000        -6.791492871962670E-047