  -1.42500000000000         0.000000000000000E+000
  -1.23500000000000         0.000000000000000E+000
  -1.04500000000000         0.000000000000000E+000
 -0.855000000000000         0.000000000000000E+000
 -0.665000000000000         0.000000000000000E+000
 -0.475000000000000         0.000000000000000E+000
 -0.285000000000000         0.000000000000000E+000
 -9.499999999999975E-002    0.000000000000000E+000
  9.500000000000020E-002    0.000000000000000E+000
  0.285000000000000         0.000000000000000E+000
  0.475000000000000         0.000000000000000E+000
  0.665000000000000         0.000000000000000E+000
  0.855000000000000         0.000000000000000E+000
   1.04500000000000         0.000000000000000E+000
   1.23500000000000         0.000000000000000E+000
   1.42500000000000         0.000000000000000E+000
   1.61500000000000         0.000000000000000E+000
   1.80500000000000         0.000000000000000E+000
   1.99500000000000         0.000000000000000E+000
   2.18500000000000         0.000000000000000E+000
   2.37500000000000         0.000000000000000E+000
   2.56500000000000         0.000000000000000E+000
   2.75500000000000         0.000000000000000E+000
   2.94500000000000         0.000000000000000E+000
   3.13500000000000         0.000000000000000E+000
   3.32500000000000         0.000000000000000E+000
   3.51500000000000         0.000000000000000E+000
   3.70500000000000         0.000000000000000E+000
   3.89500000000000         0.000000000000000E+000
   4.08500000000000         0.000000000000000E+000
   4.27500000000000         0.000000000000000E+000
   4.46500000000000         0.000000000000000E+000
   4.65500000000000         0.000000000000000E+000
   4.84500000000000         0.000000000000000E+000
   5.03500000000000         0.000000000000000E+000
   5.22500000000000         0.000000000000000E+000
   5.41500000000000         0.000000000000000E+000
   5.60500000000000        -2.030896183907433E-159
   5.79500000000000        -2.264124745497350E-154
   5.98500000000000         1.824154915425089E-152
   6.17500000000000        -2.336399154699586E-151
   6.36500000000000        -3.320267777011319E-150
   6.55500000000000         1.868015680457159E-132
   6.74500000000000        -1.571718294907300E-128
   6.93500000000000        -1.169538797993181E-126
   7.12500000000000        -4.331356026304007E-125
   7.31500000000000        -1.064995788977898E-123
   7.50500000000000        -1.955736556225061E-122
   7.69500000000000        -2.862036960431084E-121
   7.88500000000000        -3.478794329941017E-120
   8.07500000000000        -3.615269346182241E-119
   8.26500000000000        -3.282157892247382E-118
   8.45500000000000        -2.647142114812807E-117
   8.64500000000000        -1.922716091692325E-116
   8.83500000000000        -1.272216088905232E-115
   9.02500000000000        -7.745785855410779E-115
   9.21500000000000        -4.378759710423392E-114
   9.40500000000000        -2.317674319447124E-113
   9.59500000000000        -1.157704024180804E-112
   9.78500000000000        -5.498266510273564E-112
   9.97500000000000        -2.499989690667928E-111
   10.1650000000000        -1.094935984193699E-110
   10.3550000000000        -4.642401246492551E-110
   10.5450000000000        -1.912276341211514E-109
   10.7350000000000        -7.668127089564844E-109
   10.9250000000000        -2.995018683759642E-108
   11.1150000000000        -1.138711409196989E-107
   11.3050000000000        -4.208522470558765E-107
   11.4950000000000        -1.509319282843977E-106
   11.6850000000000        -5.242833472944836E-106
   11.8750000000000        -1.760837251826003E-105
   12.0650000000000        -5.708619974443749E-105
   12.2550000000000        -1.783708457849435E-104
   12.4450000000000        -5.362800066301843E-104
   12.6350000000000        -1.548483509890659E-103
   12.8250000000000        -4.283292302421583E-103
   13.0150000000000        -1.130903670114101E-102
   13.2050000000000        -2.833923061035864E-102
   13.3950000000000        -6.676379235012651E-102
   13.5850000000000        -1.453195933977769E-101
   13.7750000000000        -2.817242910660181E-101
   13.9650000000000        -4.405451540161064E-101
   14.1550000000000        -3.310007606307049E-101
   14.3450000000000         1.250336322017420E-100
   14.5350000000000         8.349941797803889E-100
   14.7250000000000         3.313941265291479E-099
   14.9150000000000         1.095946681357954E-098
   15.1050000000000         3.273319864224662E-098
   15.2950000000000         9.120071211958442E-098
   15.4850000000000         2.409527675658934E-097
   15.6750000000000         6.094079470495330E-097
   15.8650000000000         1.484330236786123E-096
   16.0550000000000         3.495797326202965E-096
   16.2450000000000         7.983153946794468E-096
   16.4350000000000         1.771271081068337E-095
   16.6250000000000         3.823843617850395E-095
   16.8150000000000         8.039975442473159E-095
   17.0050000000000         1.647522014070358E-094
   17.1950000000000         3.291375329712056E-094
   17.3850000000000         6.410788226921298E-094
   17.5750000000000         1.217068430288883E-093
   17.7650000000000         2.250677815494919E-093
   17.9550000000000         4.049837693679781E-093
   18.1450000000000         7.078821708670703E-093
   18.3350000000000         1.198919668957633E-092
   18.5250000000000         1.960090843632248E-092
   18.7150000000000         3.075146744420867E-092
   18.9050000000000         4.585624605329722E-092
   19.0950000000000         6.390198205820011E-092
   19.2850000000000         8.041565376567164E-092
   19.4750000000000         8.370998606820872E-092
   19.6650000000000         4.843562152319996E-092
   19.8550000000000        -7.472666053456731E-092
   20.0450000000000        -3.742693048982761E-091
   20.2350000000000        -9.980106798453541E-091
   20.4250000000000        -2.175437561813067E-090
   20.6150000000000        -4.233131030060492E-090
   20.8050000000000        -7.581531546724882E-090
   20.9950000000000        -1.262820633779013E-089
   21.1850000000000        -1.953344036282051E-089
   21.3750000000000        -2.766116259722854E-089
   21.5650000000000        -3.448450212666883E-089
   21.7550000000000        -3.357614065824912E-089
   21.9450000000000        -1.115413829831348E-089
   22.1350000000000         5.950909574362631E-089
   22.3250000000000         2.266041319470862E-088
   22.5150000000000         5.719041816312004E-088
   22.7050000000000         1.226571442884368E-087
   22.8950000000000         2.389208884406526E-087
   23.0850000000000         4.341533808694831E-087
   23.2750000000000         7.451137251561824E-087
   23.4650000000000         1.214066760228758E-086
   23.6550000000000         1.878655733638056E-086
   23.8450000000000         2.748599757922257E-086
   24.0350000000000         3.759641756940053E-086
   24.2250000000000         4.690667170491398E-086
   24.4150000000000         5.024599655014775E-086
   24.6050000000000         3.728424764506325E-086
   24.7950000000000        -1.075541766287712E-086
   24.9850000000000        -1.257246986872206E-085
   25.1750000000000        -3.586232318606753E-085
   25.3650000000000        -7.868405020972064E-085
   25.5550000000000        -1.521513438337407E-084
   25.7450000000000        -2.712527712199645E-084
   25.9350000000000        -4.546283939685845E-084
   26.1250000000000        -7.227486163112630E-084
   26.3150000000000        -1.093028165181854E-083
   26.5050000000000        -1.569534039212981E-083
   26.6950000000000        -2.123704577898211E-083
   26.8850000000000        -2.660796306216745E-083
   27.0750000000000        -2.964533562941059E-083
   27.2650000000000        -2.609603538826100E-083
   27.4550000000000        -8.282381160165189E-084
   27.6450000000000         3.686693361215607E-083
   27.8350000000000         1.306351788733793E-082
   28.0250000000000         3.064314646633416E-082
   28.2150000000000         6.150592550985069E-082
   28.4050000000000         1.131572471632909E-081
   28.5950000000000         1.963856506065978E-081
   28.7850000000000         3.262861389512935E-081
   28.9750000000000         5.234025923707555E-081
   29.1650000000000         8.148777003406721E-081
   29.3550000000000         1.235395152729964E-080
   29.5450000000000         1.827542208193669E-080
   29.7350000000000         2.640993545812256E-080
   29.9250000000000         3.729599882202632E-080
   30.1150000000000         5.145037963453128E-080
   30.3050000000000         6.925127856875751E-080
   30.4950000000000         9.074247095628443E-080
   30.6850000000000         1.153249162340286E-079
   30.8750000000000         1.412941460900667E-079
   31.0650000000000         1.651744482646568E-079
   31.2550000000000         1.807966942102687E-079
   31.4450000000000         1.780691267573255E-079
   31.6350000000000         1.414046660968484E-079
   31.8250000000000         4.780134241272183E-080
   32.0150000000000        -1.353666811572744E-079
   32.2050000000000        -4.526907350640298E-079
   32.3950000000000        -9.628961239384073E-079
   32.5850000000000        -1.740322877365157E-078
   32.7750000000000        -2.874930176754068E-078
   32.9650000000000        -4.469700606513857E-078
   33.1550000000000        -6.633944004196421E-078
   33.3450000000000        -9.470627901843484E-078
   33.5350000000000        -1.305557113668560E-077
   33.7250000000000        -1.740625117426710E-077
   33.9150000000000        -2.243826561785017E-077
   34.1050000000000        -2.790837512044701E-077
   34.2950000000000        -3.334479624553801E-077
   34.4850000000000        -3.796827231657639E-077
   34.6750000000000        -4.061163967438503E-077
   34.8650000000000        -3.965119413280722E-077
   35.0550000000000        -3.296994096681967E-077
   35.2450000000000        -1.798012850177874E-077
   35.4350000000000         8.260981159232265E-078
   35.6250000000000         4.880452063380795E-077
   35.8150000000000         1.063975079942884E-076
   36.0050000000000         1.828822226709231E-076
   36.1950000000000         2.784138485248929E-076
   36.3850000000000         3.905527930851673E-076
   36.5750000000000         5.133648872478452E-076
   36.7650000000000         6.367695101823705E-076
   36.9550000000000         7.465114292579629E-076
   37.1450000000000         8.252880220019993E-076
   37.3350000000000         8.557191750237938E-076
   37.5250000000000         8.259661103576042E-076
   37.7150000000000         7.388309543053261E-076
   37.9050000000000         6.250210143700946E-076
   38.0950000000000         5.608369486800958E-076
   38.2850000000000         6.897200285042901E-076
   38.4750000000000         1.245741726341559E-075
   38.6650000000000         2.575126158186007E-075
   38.8550000000000         5.149201157515870E-075
   39.0450000000000         9.558816979133451E-075
   39.2350000000000         1.647645815275338E-074
   39.4250000000000         2.656844880404343E-074
   39.6150000000000         4.033657551084099E-074
   39.8050000000000         5.786726354910685E-074
   39.9950000000000         7.846868639317672E-074
   40.1850000000000         1.001837740734881E-073
   40.3750000000000         1.191821452878208E-073
   40.5650000000000         1.290585900892479E-073
   40.7550000000000         1.201014205664195E-073
   40.9450000000000         7.864115834977698E-074
   41.1350000000000        -1.335298351253876E-074
   41.3250000000000        -1.781990776390858E-073
   41.5150000000000        -4.416618925875072E-073
   41.7050000000000        -8.310130776767484E-073
   41.8950000000000        -1.371648326988329E-072
   42.0850000000000        -2.081958925319162E-072
   42.2750000000000        -2.966268610734553E-072
   42.4650000000000        -4.005847847639968E-072
   42.6550000000000        -5.148309870578688E-072
   42.8450000000000        -6.296058805891761E-072
   43.0350000000000        -7.294851436778402E-072
   43.2250000000000        -7.923862620468871E-072
   43.4150000000000        -7.888778139982767E-072
   43.6050000000000        -6.819208443666217E-072
   43.7950000000000        -4.270938368825106E-072
   43.9850000000000         2.679490670010501E-073
   44.1750000000000         7.370249925842652E-072
   44.3650000000000         1.766805033967734E-071
   44.5550000000000         3.186503391147043E-071
   44.7450000000000         5.077292683361394E-071
   44.9350000000000         7.538091124591834E-071
   45.1250000000000         1.069597858712380E-070
   45.3150000000000         1.471865424898854E-070
   45.5050000000000         1.982459752157377E-070
   45.6950000000000         2.628202974019946E-070
   45.8850000000000         3.438133277608810E-070
   46.0750000000000         4.435738135015221E-070
   46.2650000000000         5.622900737269368E-070
   46.4550000000000         6.951418386440969E-070
   46.6450000000000         8.277443080590563E-070
   46.8350000000000         9.294497170827145E-070
   47.0250000000000         9.442470964594131E-070
   47.2150000000000         7.794030833295580E-070
   47.4050000000000         2.927092463876616E-070
   47.5950000000000        -7.196626854552996E-070
   47.7850000000000        -2.531077608956313E-069
   47.9750000000000        -5.482392918892349E-069
   48.1650000000000        -9.961707974330109E-069
   48.3550000000000        -1.635500950618109E-068
   48.5450000000000        -2.495451695528930E-068
   48.7350000000000        -3.581037996853494E-068
   48.9250000000000        -4.851251665474981E-068
   49.1150000000000        -6.189430621839097E-068
   49.3050000000000        -7.366036435526132E-068
   49.4950000000000        -7.995867389275427E-068
   49.6850000000000        -7.494469127227770E-068
   49.8750000000000        -5.042283308567284E-068
   50.0650000000000         4.301219778225591E-069
   50.2550000000000         1.021680482765476E-067
   50.4450000000000         2.574642679911762E-067
   50.6350000000000         4.839762367139999E-067
   50.8250000000000         7.918711748402378E-067
   51.0150000000000         1.182994258226895E-066
   51.2050000000000         1.644355009277168E-066
   51.3950000000000         2.139761527279837E-066
   51.5850000000000         2.599879109318856E-066
   51.7750000000000         2.911469790324208E-066
   51.9650000000000         2.907230232288418E-066
   52.1550000000000         2.358486514381150E-066
   52.3450000000000         9.739937037185884E-067
   52.5350000000000        -1.590850900822936E-066
   52.7250000000000        -5.709073818833250E-066
   52.9150000000000        -1.173543301114410E-065
   53.1050000000000        -1.993174862441552E-065
   53.2950000000000        -3.035876872225282E-065
   53.4850000000000        -4.273115263365672E-065
   53.6750000000000        -5.623603842418206E-065
   53.8650000000000        -6.932183016924675E-065
   54.0550000000000        -7.947270112335924E-065
   54.2450000000000        -8.299610975401627E-065
   54.4350000000000        -7.486534279341011E-065
   54.6250000000000        -4.867629252708026E-065
   54.8150000000000         3.203679727332474E-066
   55.0050000000000         8.919864188792673E-065
   55.1950000000000         2.176874141576839E-064
   55.3850000000000         3.956478596081760E-064
   55.5750000000000         6.266669451063398E-064
   55.7650000000000         9.082248361244525E-064
   55.9550000000000         1.228212312494083E-063
   56.1450000000000         1.560729136977421E-063
   56.3350000000000         1.861347380121547E-063
   56.5250000000000         2.062218830666868E-063
   56.7150000000000         2.067668622491192E-063
   56.9050000000000         1.751252995290527E-063
   57.0950000000000         9.556644828125994E-064
   57.2850000000000        -5.026739542998732E-064
   57.4750000000000        -2.822010716540390E-063
   57.6650000000000        -6.193926054015169E-063
   57.8550000000000        -1.076924969028320E-062
   58.0450000000000        -1.660828251227601E-062
   58.2350000000000        -2.361294177985519E-062
   58.4250000000000        -3.143981452967631E-062
   58.6150000000000        -3.939557878978607E-062
   58.8050000000000        -4.632017657391785E-062
   58.9950000000000        -5.046880957417133E-062
   59.1850000000000        -4.941148502270409E-062
   59.3750000000000        -3.997845033980121E-062
   59.5650000000000        -1.829102981483801E-062
   59.7550000000000         2.007084055260173E-062
   59.9450000000000         7.970241975843394E-062
   60.1350000000000         1.647405021173163E-061
   60.3250000000000         2.778942660399947E-061
   60.5150000000000         4.190859755817341E-061
   60.7050000000000         5.836787573964927E-061
   60.8950000000000         7.603254720842056E-061
   61.0850000000000         9.285604248303019E-061
   61.2750000000000         1.056378547509658E-060
   61.4650000000000         1.098205252973066E-060
   61.6550000000000         9.938487577367095E-061
   61.8450000000000         6.692306046310622E-061
   62.0350000000000         3.988270949430542E-062
   62.2250000000000        -9.816607485251126E-061
   62.4150000000000        -2.473418174262004E-060
   62.6050000000000        -4.485456293300095E-060
   62.7950000000000        -7.014740681256778E-060
   62.9850000000000        -9.973530060659389E-060
   63.1750000000000        -1.315271192114047E-059
   63.3650000000000        -1.618316753805806E-059
   63.5550000000000        -1.850041952095122E-059
   63.7450000000000        -1.932036010382734E-059
   63.9350000000000        -1.763656799890422E-059
   64.1250000000000        -1.225222739056992E-059
   64.3150000000000        -1.861420109678020E-060
   64.5050000000000         1.480515471090676E-059
   64.6950000000000         3.875705433736226E-059
   64.8850000000000         7.043599275469448E-059
   65.0750000000000         1.093249089762566E-058
   65.2650000000000         1.534911114447635E-058
   65.4550000000000         1.991005624393014E-058
   65.6450000000000         2.399655175528716E-058
   65.8350000000000         2.672164381144708E-058
   66.0250000000000         2.692185331318011E-058
   66.2150000000000         2.318790122877040E-058
   66.4050000000000         1.395069341079698E-058
   66.5950000000000        -2.361444963322069E-059
   66.7850000000000        -2.708118029749949E-058
   66.9750000000000        -6.096963716082342E-058
   67.1650000000000        -1.037973181090966E-057
   67.3550000000000        -1.538588821373809E-057
   67.5450000000000        -2.074632312699794E-057
   67.7350000000000        -2.584656431649575E-057
   67.9250000000000        -2.979363395005092E-057
   68.1150000000000        -3.140866815761701E-057
   68.3050000000000        -2.925954401309316E-057
   68.4950000000000        -2.174871355205721E-057
   68.6850000000000        -7.270492618312532E-058
   68.8750000000000         1.555160358024787E-057
   69.0650000000000         4.754400745890515E-057
   69.2550000000000         8.858642989092983E-057
   69.4450000000000         1.371625308113921E-056
   69.6350000000000         1.899004920365453E-056
   69.8250000000000         2.411683015848253E-056
   70.0150000000000         2.828115544522488E-056
   70.2050000000000         3.041421097423375E-056
   70.3950000000000         2.922996640165796E-056
   70.5850000000000         2.331098482541231E-056
   70.7750000000000         1.125458361936752E-056
   70.9650000000000        -8.114032971309680E-057
   71.1550000000000        -3.546204932388864E-056
   71.3450000000000        -7.061331541969888E-056
   71.5350000000000        -1.121805760266973E-055
   71.7250000000000        -1.572055193928546E-055
   71.9150000000000        -2.008637429526098E-055
   72.1050000000000        -2.363082603775111E-055
   72.2950000000000        -2.547381688224589E-055
   72.4850000000000        -2.457849827151301E-055
   72.6750000000000        -1.983038113198704E-055
   72.8650000000000        -1.016357548209818E-055
   73.0550000000000         5.263220259654637E-056
   73.2450000000000         2.684455218090438E-055
   73.4350000000000         5.427187371659075E-055
   73.6250000000000         8.626544689890759E-055
   73.8150000000000         1.203285691619779E-054
   74.0050000000000         1.525699873043735E-054
   74.1950000000000         1.776505144369201E-054
   74.3850000000000         1.889161749027878E-054
   74.5750000000000         1.787800453786316E-054
   74.7650000000000         1.394055420255018E-054
   74.9550000000000         6.372259640200301E-055
   75.1450000000000        -5.322702644484809E-055
   75.3350000000000        -2.126688747020114E-054
   75.5250000000000        -4.103165099414215E-054
   75.7150000000000        -6.346244324767735E-054
   75.9050000000000        -8.653410672286426E-054
   76.0950000000000        -1.072700555212595E-053
   76.2850000000000        -1.217643652806284E-053
   76.4750000000000        -1.253474432246472E-053
   76.6650000000000        -1.129323358900905E-053
   76.8550000000000        -7.956817251775035E-054
   77.0450000000000        -2.120834013630865E-054
   77.2350000000000         6.432701939245641E-054
   77.4250000000000         1.762514617742084E-053
   77.6150000000000         3.096769889253549E-053
   77.8050000000000         4.545923517373425E-053
   77.9950000000000         5.951505671983263E-053
   78.1850000000000         7.094988521333910E-053
   78.3750000000000         7.704037310516434E-053
   78.5650000000000         7.469153259684696E-053
   78.7550000000000         6.072672649389521E-053
   78.9450000000000         3.231129645684381E-053
   79.1350000000000        -1.249509795890622E-053
   79.3250000000000        -7.408289533830603E-053
   79.5150000000000        -1.505847023988036E-052
   79.7050000000000        -2.371946412597320E-052
   79.8950000000000        -3.256238891040896E-052
   80.0850000000000        -4.038272684172800E-052
   80.2750000000000        -4.561533009224049E-052
   80.4650000000000        -4.640733955287405E-052
   80.6550000000000        -4.076284954851346E-052
   80.8450000000000        -2.676875818277322E-052
   81.0350000000000        -2.903722145550954E-053
   81.2250000000000         3.157873946252631E-052
   81.4150000000000         7.621602798418070E-052
   81.6050000000000         1.288908086587717E-051
   81.7950000000000         1.854315265899043E-051
   81.9850000000000         2.393340068371600E-051
   82.1750000000000         2.816930888694207E-051
   82.3650000000000         3.014408012469575E-051
   82.5550000000000         2.859850330168442E-051
   82.7450000000000         2.223263112700408E-051
   82.9350000000000         9.869685209004669E-052
   83.1250000000000        -9.328679551290792E-052
   83.3150000000000        -3.560390805764502E-051
   83.5050000000000        -6.831614790284283E-051
   83.6950000000000        -1.056616493155982E-050
   83.8850000000000        -1.444306312850978E-050
   84.0750000000000        -1.798544649922948E-050
   84.2650000000000        -2.055988184887044E-050
   84.4550000000000        -2.139628630175028E-050
   84.6450000000000        -1.963416265007797E-050
   84.8350000000000        -1.439969732047322E-050
   85.0250000000000        -4.916066073876083E-051
   85.2150000000000         9.354072116086779E-051
   85.4050000000000         2.853945681987327E-050
   85.5950000000000         5.217564651783064E-050
   85.7850000000000         7.902249015033756E-050
   85.9750000000000         1.069077495132467E-049
   86.1650000000000         1.326270618854381E-049
   86.3550000000000         1.519350770092258E-049
   86.5450000000000         1.596646804046933E-049
   86.7350000000000         1.500095036584645E-049
   86.9250000000000         1.169982116941524E-049
   87.1150000000000         5.517630100474139E-050
   87.3050000000000        -3.950835429441031E-050
   87.4950000000000        -1.686463442883999E-049
   87.6850000000000        -3.301966906482624E-049
   87.8750000000000        -5.173058785965769E-049
   88.0650000000000        -7.172549198864330E-049
   88.2550000000000        -9.107102703532831E-049
   88.4450000000000        -1.071483929090856E-048
   88.6350000000000        -1.167024014278873E-048
   88.8250000000000        -1.159852734342478E-048
   89.0150000000000        -1.010137091722848E-048
   89.2050000000000        -6.795127395077631E-049
   89.3950000000000        -1.361787282738602E-049
   89.5850000000000         6.388611868264224E-049
   89.7750000000000         1.644714093925196E-048
   89.9650000000000         2.853182371562494E-048
   90.1550000000000         4.201753744989729E-048
   90.3450000000000         5.587954265881326E-048
   90.5350000000000         6.866211385683456E-048
   90.7250000000000         7.848500873239078E-048
   90.9150000000000         8.310077931177816E-048
   91.1050000000000         8.001481326095364E-048
   91.2950000000000         6.667713830183156E-048
   91.4850000000000         4.075014105457936E-048
   91.6750000000000         4.492851144019917E-050
   91.8650000000000        -5.505530648567288E-048
   92.0550000000000        -1.251996289801865E-047
   92.2450000000000        -2.075845293231272E-047
   92.4350000000000        -2.975807103615020E-047
   92.6250000000000        -3.880400978457622E-047
   92.8150000000000        -4.691828705152445E-047
   93.0050000000000        -5.287341956198143E-047
   93.1950000000000        -5.523829389620592E-047
   93.3850000000000        -5.246243020948309E-047
   93.5750000000000        -4.300277034177471E-047
   93.7650000000000        -2.549390188595548E-047
   93.9550000000000         1.041786962985117E-048
   94.1450000000000         3.695306341481196E-047
   94.3350000000000         8.170339012900408E-047
   94.5250000000000         1.336214520816800E-046
   94.7150000000000         1.896879171679313E-046
   94.9050000000000         2.453936676073453E-046
   95.0950000000000         2.947089440405222E-046
   95.2850000000000         3.302042165268681E-046
   95.4750000000000         3.433610485423894E-046
   95.6650000000000         3.251037268212041E-046
   95.8550000000000         2.665691611348367E-046
   96.0450000000000         1.601130307448052E-046
   96.2350000000000         5.243975575950094E-049
   96.4250000000000        -2.136102748891703E-046
   96.6150000000000        -4.784880378078085E-046
   96.8050000000000        -7.837464834310658E-046
   96.9950000000000        -1.111363037910892E-045
   97.1850000000000        -1.434991501971360E-045
   97.3750000000000        -1.719948446934063E-045
   97.5650000000000        -1.924063030624327E-045
   97.7550000000000        -1.999582625414210E-045
   97.9450000000000        -1.896278485267798E-045
   98.1350000000000        -1.565816956256110E-045
   98.3250000000000        -9.673509805037566E-046
   98.5150000000000        -7.414528551098302E-047
   98.7050000000000         1.119118215876130E-045
   98.8950000000000         2.588891291005634E-045
   99.0850000000000         4.275888126595221E-045
   99.2750000000000         6.079682205991714E-045
   99.4650000000000         7.855791083691147E-045
   99.6550000000000         9.416333496270256E-045
   99.8450000000000         1.053531626003514E-044
   100.035000000000         1.095946412640120E-044
   100.225000000000         1.042522285421354E-044
   100.415000000000         8.682130678080535E-045
   100.605000000000         5.522164154862275E-045
   100.795000000000         8.139344117870677E-046
   100.985000000000        -5.460228998741116E-045
   101.175000000000        -1.316716437049290E-044
   101.365000000000        -2.198946863503240E-044
   101.555000000000        -3.140029057753138E-044
   101.745000000000        -4.065136302408311E-044
   101.935000000000        -4.877950221577096E-044
   102.125000000000        -5.463652418416178E-044
   102.315000000000        -5.694666766440839E-044
   102.505000000000        -5.439408509446432E-044
   102.695000000000        -4.574072401412046E-044
   102.885000000000        -2.997198618484558E-044
   103.075000000000        -6.464011081225374E-045
   103.265000000000         2.483753879484928E-044
   103.455000000000         6.324143959637351E-044
   103.645000000000         1.071557814049441E-043
   103.835000000000         1.539751830336400E-043
   104.025000000000         2.000338598442655E-043
   104.215000000000         2.406484302362803E-043
   104.405000000000         2.702724749972647E-043
   104.595000000000         2.827802923832241E-043
   104.785000000000         2.718897018220115E-043
   104.975000000000         2.317230289907739E-043
   105.165000000000         1.574917191606099E-043
   105.355000000000         4.627387492106137E-044
   105.545000000000        -1.021637203124885E-043
   105.735000000000        -2.845655704794071E-043
   105.925000000000        -4.934925840698372E-043
   106.115000000000        -7.168288287792191E-043
   106.305000000000        -9.375941821220663E-043
   106.495000000000        -1.134167064044750E-042
   106.685000000000        -1.281011373203208E-042
   106.875000000000        -1.349979917112764E-042
   107.065000000000        -1.312231897446635E-042
   107.255000000000        -1.140754180210936E-042
   107.445000000000        -8.134161325601037E-043
   107.635000000000        -3.164181438533555E-043
   107.825000000000         3.520814707783236E-043
   108.015000000000         1.178452101279931E-042
   108.205000000000         2.130548681895614E-042
   108.395000000000         3.155555033826517E-042
   108.585000000000         4.179155445736491E-042
   108.775000000000         5.106473315209751E-042
   108.965000000000         5.825169942289425E-042
   109.155000000000         6.211002210083267E-042
   109.345000000000         6.135990830377909E-042
   109.535000000000         5.479150802697087E-042
   109.725000000000         4.139487268781548E-042
   109.915000000000         2.050673198019794E-042
   110.105000000000        -8.034834029963922E-043