  -1.42500000000000         0.000000000000000E+000
  -1.23500000000000         0.000000000000000E+000
  -1.04500000000000         0.000000000000000E+000
 -0.855000000000000         0.000000000000000E+000
 -0.665000000000000         0.000000000000000E+000
 -0.475000000000000         0.000000000000000E+000
 -0.285000000000000         0.000000000000000E+000
 -9.499999999999975E-002    0.000000000000000E+000
  9.500000000000020E-002    0.000000000000000E+000
  0.285000000000000         0.000000000000000E+000
  0.475000000000000         0.000000000000000E+000
  0.665000000000000         0.000000000000000E+000
  0.855000000000000         0.000000000000000E+000
   1.04500000000000         0.000000000000000E+000
   1.23500000000000         0.000000000000000E+000
   1.42500000000000         0.000000000000000E+000
   1.61500000000000         0.000000000000000E+000
   1.80500000000000         0.000000000000000E+000
   1.99500000000000         0.000000000000000E+000
   2.18500000000000         0.000000000000000E+000
   2.37500000000000         0.000000000000000E+000
   2.56500000000000         0.000000000000000E+000
   2.75500000000000         0.000000000000000E+000
   2.94500000000000         0.000000000000000E+000
   3.13500000000000         0.000000000000000E+000
   3.32500000000000         0.000000000000000E+000
   3.51500000000000         0.000000000000000E+000
   3.70500000000000         0.000000000000000E+000
   3.89500000000000         0.000000000000000E+000
   4.08500000000000         0.000000000000000E+000
   4.27500000000000         0.000000000000000E+000
   4.46500000000000         0.000000000000000E+000
   4.65500000000000         0.000000000000000E+000
   4.84500000000000         0.000000000000000E+000
   5.03500000000000         0.000000000000000E+000
   5.22500000000000         0.000000000000000E+000
   5.41500000000000        -2.293215113201971E-158
   5.60500000000000         2.345511025032245E-153
   5.79500000000000        -3.205288362554871E-151
   5.98500000000000         8.816316079496150E-150
   6.17500000000000        -6.070584774469359E-148
   6.36500000000000         1.100154942406769E-130
   6.55500000000000         2.568337466359584E-128
   6.74500000000000        -4.544673712155526E-128
   6.93500000000000        -7.626336638335986E-125
   7.12500000000000        -3.942114860683118E-123
   7.31500000000000        -1.150295040233210E-121
   7.50500000000000        -2.369230228822331E-120
   7.69500000000000        -3.771983418574133E-119
   7.88500000000000        -4.882239234324777E-118
   8.07500000000000        -5.305777400126379E-117
   8.26500000000000        -4.948805501640015E-116
   8.45500000000000        -4.022422702990004E-115
   8.64500000000000        -2.877971818442880E-114
   8.83500000000000        -1.822247649792388E-113
   9.02500000000000        -1.020798522233449E-112
   9.21500000000000        -5.014557517880245E-112
   9.40500000000000        -2.103310706669151E-111
   9.59500000000000        -6.964108226073218E-111
   9.78500000000000        -1.265589705807271E-110
   9.97500000000000         4.880747827210053E-110
   10.1650000000000         7.159538586496512E-109
   10.3550000000000         5.185920280499981E-108
   10.5450000000000         2.969266414230233E-107
   10.7350000000000         1.481139004155138E-106
   10.9250000000000         6.686613511696811E-106
   11.1150000000000         2.785447536014462E-105
   11.3050000000000         1.083013678476038E-104
   11.4950000000000         3.959611975095904E-104
   11.6850000000000         1.368293082858256E-103
   11.8750000000000         4.485419823431893E-103
   12.0650000000000         1.398513126997424E-102
   12.2550000000000         4.154948402201766E-102
   12.4450000000000         1.177604545867069E-101
   12.6350000000000         3.185523389862055E-101
   12.8250000000000         8.222633655073992E-101
   13.0150000000000         2.023068487159984E-100
   13.2050000000000         4.733493823326823E-100
   13.3950000000000         1.048926178827431E-099
   13.5850000000000         2.185826331127840E-099
   13.7750000000000         4.229294402962308E-099
   13.9650000000000         7.410898844283510E-099
   14.1550000000000         1.109579584614559E-098
   14.3450000000000         1.165346394794292E-098
   14.5350000000000        -2.751109573550963E-099
   14.7250000000000        -6.364505350000160E-098
   14.9150000000000        -2.454409076054053E-097
   15.1050000000000        -7.084031587569122E-097
   15.2950000000000        -1.771022591810339E-096
   15.4850000000000        -4.017889824879261E-096
   15.6750000000000        -8.431696496616610E-096
   15.8650000000000        -1.649009552584086E-095
   16.0550000000000        -3.006307647357748E-095
   16.2450000000000        -5.074851225334080E-095
   16.4350000000000        -7.796053282150449E-095
   16.6250000000000        -1.046482889629635E-094
   16.8150000000000        -1.091180882055873E-094
   17.0050000000000        -4.153040671875556E-095
   17.1950000000000         1.946179012855572E-094
   17.3850000000000         7.599678638453928E-094
   17.5750000000000         1.875472777460245E-093
   17.7650000000000         3.746761898913685E-093
   17.9550000000000         6.307963874926951E-093
   18.1450000000000         8.573299081173432E-093
   18.3350000000000         7.216743566563982E-093
   18.5250000000000        -6.250924023905339E-093
   18.7150000000000        -5.067279461948863E-092
   18.9050000000000        -1.641377488107832E-091
   19.0950000000000        -4.181479953320703E-091
   19.2850000000000        -9.383639824998754E-091
   19.4750000000000        -1.931641138012897E-090
   19.6650000000000        -3.714642766861783E-090
   19.8550000000000        -6.729297658962530E-090
   20.0450000000000        -1.151007892091096E-089
   20.2350000000000        -1.852982065109488E-089
   20.4250000000000        -2.778243738161515E-089
   20.6150000000000        -3.784411077112236E-089
   20.8050000000000        -4.396267314081916E-089
   20.9950000000000        -3.442155960130579E-089
   21.1850000000000         1.603676717189949E-089
   21.3750000000000         1.576157319312871E-088
   21.5650000000000         4.845180233462874E-088
   21.7550000000000         1.165677057681559E-087
   21.9450000000000         2.492618430152562E-087
   22.1350000000000         4.951299220679666E-087
   22.3250000000000         9.325572474541256E-087
   22.5150000000000         1.683897598379320E-086
   22.7050000000000         2.933673805206104E-086
   22.8950000000000         4.949761394447873E-086
   23.0850000000000         8.103955855007023E-086
   23.2750000000000         1.288352691985164E-085
   23.4650000000000         1.987700102229885E-085
   23.6550000000000         2.970362655052481E-085
   23.8450000000000         4.283430786760265E-085
   24.0350000000000         5.921921938082978E-085
   24.2250000000000         7.759048015011026E-085
   24.4150000000000         9.424412220401864E-085
   24.6050000000000         1.010225957327984E-084
   24.7950000000000         8.211946564167159E-085
   24.9850000000000         9.221505549456020E-086
   25.1750000000000        -1.655868122737748E-084
   25.3650000000000        -5.197601165190566E-084
   25.5550000000000        -1.173560886294054E-083
   25.7450000000000        -2.306763371157366E-083
   25.9350000000000        -4.178025435924508E-083
   26.1250000000000        -7.144493472446534E-083
   26.3150000000000        -1.167628584225862E-082
   26.5050000000000        -1.835569411504949E-082
   26.6950000000000        -2.784339767819030E-082
   26.8850000000000        -4.078261311618690E-082
   27.0750000000000        -5.759556243093274E-082
   27.2650000000000        -7.810342728192032E-082
   27.4550000000000        -1.008695073155943E-081
   27.6450000000000        -1.221243229388574E-081
   27.8350000000000        -1.340803653781532E-081
   28.0250000000000        -1.223841493799708E-081
   28.2150000000000        -6.238802786661269E-082
   28.4050000000000         8.613767987205941E-082
   28.5950000000000         3.862748894365090E-081
   28.7850000000000         9.336318443223531E-081
   28.9750000000000         1.868757698950892E-080
   29.1650000000000         3.392407117355748E-080
   29.3550000000000         5.783313447046058E-080
   29.5450000000000         9.417344092104131E-080
   29.7350000000000         1.478565090741501E-079
   29.9250000000000         2.250751725547713E-079
   30.1150000000000         3.333083886243360E-079
   30.3050000000000         4.810933864320676E-079
   30.4950000000000         6.774049530910244E-079
   30.6850000000000         9.304160088318095E-079
   30.8750000000000         1.245333078176666E-078
   31.0650000000000         1.620906491745476E-078
   31.2550000000000         2.044113310620873E-078
   31.4450000000000         2.482411546035503E-078
   31.6350000000000         2.872885491586491E-078
   31.8250000000000         3.107572903809913E-078
   32.0150000000000         3.014328774092731E-078
   32.2050000000000         2.332799479489353E-078
   32.3950000000000         6.855400035978705E-079
   32.5850000000000        -2.454882653712368E-078
   32.7750000000000        -7.800653696084646E-078
   32.9650000000000        -1.628123032048470E-077
   33.1550000000000        -2.906668287385184E-077
   33.3450000000000        -4.757104275852030E-077
   33.5350000000000        -7.341972161210765E-077
   33.7250000000000        -1.083585908094628E-076
   33.9150000000000        -1.540745092353683E-076
   34.1050000000000        -2.118882428520497E-076
   34.2950000000000        -2.822715197385852E-076
   34.4850000000000        -3.641317016098217E-076
   34.6750000000000        -4.538023690725141E-076
   34.8650000000000        -5.436792817016006E-076
   35.0550000000000        -6.204533633874831E-076
   35.2450000000000        -6.629219000535817E-076
   35.4350000000000        -6.394140886668700E-076
   35.6250000000000        -5.049571052422632E-076
   35.8150000000000        -1.984446489489695E-076
   36.0050000000000         3.597380225059289E-076
   36.1950000000000         1.268921950442701E-075
   36.3850000000000         2.647160586764920E-075
   36.5750000000000         4.626615051326807E-075
   36.7650000000000         7.343477209857141E-075
   36.9550000000000         1.092017487724043E-074
   37.1450000000000         1.543727351086109E-074
   37.3350000000000         2.089235900048878E-074
   37.5250000000000         2.714341838751694E-074
   37.7150000000000         3.383504091048192E-074
   37.9050000000000         4.030739883489448E-074
   38.0950000000000         4.549072838689570E-074
   38.2850000000000         4.779221522620800E-074
   38.4750000000000         4.498805659165637E-074
   38.6650000000000         3.414117406506119E-074
   38.8550000000000         1.157452786461732E-074
   39.0450000000000        -2.705916474236941E-074
   39.2350000000000        -8.655918461700193E-074
   39.4250000000000        -1.717477358555473E-073
   39.6150000000000        -2.867612106033884E-073
   39.8050000000000        -4.339937229015346E-073
   39.9950000000000        -6.126377921929753E-073
   40.1850000000000        -8.167984316532089E-073
   40.3750000000000        -1.033214100153106E-072
   40.5650000000000        -1.238709099078230E-072
   40.7550000000000        -1.397634794460536E-072
   40.9450000000000        -1.459737169080061E-072
   41.1350000000000        -1.359116374054215E-072
   41.3250000000000        -1.015211777350874E-072
   41.5150000000000        -3.370302878949388E-073
   41.7050000000000         7.679089570056002E-073
   41.8950000000000         2.378290491417031E-072
   42.0850000000000         4.535827827017591E-072
   42.2750000000000         7.213104951000608E-072
   42.4650000000000         1.027239980580485E-071
   42.6550000000000         1.341737421925596E-071
   42.8450000000000         1.614257141416326E-071
   43.0350000000000         1.769010461814430E-071
   43.2250000000000         1.702887859899072E-071
   43.4150000000000         1.287903864803189E-071
   43.6050000000000         3.812526922974025E-072
   43.7950000000000        -1.153160002419007E-071
   43.9850000000000        -3.407328416177448E-071
   44.1750000000000        -6.371612017136343E-071
   44.3650000000000        -9.853957033555286E-071
   44.5550000000000        -1.337570703567626E-070
   44.7450000000000        -1.604926790019175E-070
   44.9350000000000        -1.645162242094916E-070
   45.1250000000000        -1.252038772593412E-070
   45.3150000000000        -1.516054883721113E-071
   45.5050000000000         1.988524825179232E-070
   45.6950000000000         5.528144662528960E-070
   45.8850000000000         1.079086354943382E-069
   46.0750000000000         1.795584897401643E-069
   46.2650000000000         2.689319220959854E-069
   46.4550000000000         3.693459729694057E-069
   46.6450000000000         4.657907695712140E-069
   46.8350000000000         5.314770118082642E-069
   47.0250000000000         5.242393728976654E-069
   47.2150000000000         3.834804664565653E-069
   47.4050000000000         2.875595352442769E-070
   47.5950000000000        -6.384027738478057E-069
   47.7850000000000        -1.727302117618315E-068
   47.9750000000000        -3.342932817634887E-068
   48.1650000000000        -5.559960464035969E-068
   48.3550000000000        -8.383073947081032E-068
   48.5450000000000        -1.169165612554540E-067
   48.7350000000000        -1.516844752989379E-067
   48.9250000000000        -1.821486925784055E-067
   49.1150000000000        -1.986026243584443E-067
   49.3050000000000        -1.867869401858715E-067
   49.4950000000000        -1.273516991876559E-067
   49.6850000000000         4.072577424183310E-069
   49.8750000000000         2.357774341912531E-067
   50.0650000000000         5.973414202722561E-067
   50.2550000000000         1.114884363670113E-066
   50.4450000000000         1.803639701866666E-066
   50.6350000000000         2.657379609738011E-066
   50.8250000000000         3.634485444539168E-066
   51.0150000000000         4.640916264938526E-066
   51.2050000000000         5.511038245684533E-066
   51.3950000000000         5.988272190628837E-066
   51.5850000000000         5.708803905583697E-066
   51.7750000000000         4.193150454052169E-066
   51.9650000000000         8.520925406904648E-067
   52.1550000000000        -4.984800391659026E-066
   52.3450000000000        -1.400837601114221E-065
   52.5350000000000        -2.682635205697939E-065
   52.7250000000000        -4.380686023628344E-065
   52.9150000000000        -6.486099455045909E-065
   53.1050000000000        -8.916079209842367E-065
   53.2950000000000        -1.147967956148950E-064
   53.4850000000000        -1.383910339761555E-064
   53.6750000000000        -1.546975739872448E-064
   53.8650000000000        -1.562441832665646E-064
   54.0550000000000        -1.330951361603005E-064
   54.2450000000000        -7.284618757316607E-065
   54.4350000000000         3.900332362661878E-065
   54.6250000000000         2.181223064568438E-064
   54.8150000000000         4.796554885541370E-064
   55.0050000000000         8.355411507005205E-064
   55.1950000000000         1.290618176113951E-063
   55.3850000000000         1.837342270426542E-063
   55.5750000000000         2.449025830976933E-063
   55.7650000000000         3.071686459804669E-063
   55.9550000000000         3.614860688430262E-063
   56.1450000000000         3.942138290239358E-063
   56.3350000000000         3.862721638684152E-063
   56.5250000000000         3.126027007152319E-063
   56.7150000000000         1.422213445415848E-063
   56.9050000000000        -1.607491251765574E-063
   57.0950000000000        -6.345791926439490E-063
   57.2850000000000        -1.315391636172025E-062
   57.4750000000000        -2.229959517289479E-062
   57.6650000000000        -3.385254290487899E-062
   57.8550000000000        -4.754312373711627E-062
   58.0450000000000        -6.258331541910517E-062
   58.2350000000000        -7.745504023218444E-062
   58.4250000000000        -8.968006565241636E-062
   58.6150000000000        -9.559849484182888E-062
   58.8050000000000        -9.019952342233582E-062
   58.9950000000000        -6.706817096765895E-062
   59.1850000000000        -1.853369180696184E-062
   59.3750000000000         6.387339555964335E-062
   59.5650000000000         1.885326418248369E-061
   59.7550000000000         3.622857485709173E-061
   59.9450000000000         5.883170026367460E-061
   60.1350000000000         8.632947679469458E-061
   60.3250000000000         1.173792759247514E-060
   60.5150000000000         1.492147337506629E-060
   60.7050000000000         1.772103950621688E-060
   60.8950000000000         1.944864131172356E-060
   61.0850000000000         1.916456367447780E-060
   61.2750000000000         1.567697456374984E-060
   61.4650000000000         7.583441817912541E-061
   61.6550000000000        -6.627064775404368E-061
   61.8450000000000        -2.839217508244787E-060
   62.0350000000000        -5.879649399730369E-060
   62.2250000000000        -9.818275910237121E-060
   62.4150000000000        -1.456537981467523E-059
   62.6050000000000        -1.984837522766951E-059
   62.7950000000000        -2.514831368067816E-059
   62.9850000000000        -2.963960397342566E-059
   63.1750000000000        -3.214477399343849E-059
   63.3650000000000        -3.112040380940857E-059
   63.5550000000000        -2.469440653793251E-059
   63.7450000000000        -1.077779972638090E-059
   63.9350000000000         1.272511082386448E-059
   64.1250000000000         4.758697178805631E-059
   64.3150000000000         9.479468279159937E-059
   64.5050000000000         1.539547085853378E-058
   64.6950000000000         2.225893862158699E-058
   64.8850000000000         2.953775148528378E-058
   65.0750000000000         3.634305780063713E-058
   65.2650000000000         4.137396904700045E-058
   65.4550000000000         4.289736616452750E-058
   65.6450000000000         3.878488540669161E-058
   65.8350000000000         2.663175767096646E-058
   66.0250000000000         3.982186143712334E-059
   66.2150000000000        -3.131799905495548E-058
   66.4050000000000        -8.062999986806146E-058
   66.5950000000000        -1.438966169207230E-057
   66.7850000000000        -2.189108712036012E-057
   66.9750000000000        -3.005380395794340E-057
   67.1650000000000        -3.799882639793297E-057
   67.3550000000000        -4.442786196034845E-057
   67.5450000000000        -4.760645401429530E-057
   67.7350000000000        -4.540539466420576E-057
   67.9250000000000        -3.542342388232508E-057
   68.1150000000000        -1.521315367426251E-057
   68.3050000000000         1.737287976741951E-057
   68.4950000000000         6.370929510429593E-057
   68.6850000000000         1.238075574775792E-056
   68.8750000000000         1.956404849407420E-056
   69.0650000000000         2.744426253824025E-056
   69.2550000000000         3.520810439859304E-056
   69.4450000000000         4.166262281324504E-056
   69.6350000000000         4.522850389481001E-056
   69.8250000000000         4.398805317283610E-056
   70.0150000000000         3.580690476203654E-056
   70.2050000000000         1.854641469872118E-056
   70.3950000000000        -9.621961954368668E-057
   70.5850000000000        -4.979906499158383E-056
   70.7750000000000        -1.018509335874646E-055
   70.9650000000000        -1.638459040638477E-055
   71.1550000000000        -2.314937664326629E-055
   71.3450000000000        -2.976715692248640E-055
   71.5350000000000        -3.521470546977271E-055
   71.7250000000000        -3.816326207035777E-055
   71.9150000000000        -3.703147676958393E-055
   72.1050000000000        -3.009998564867133E-055
   72.2950000000000        -1.569898836791162E-055
   72.4850000000000         7.525453534439361E-056
   72.6750000000000         4.026975944527087E-055
   72.8650000000000         8.217188036981821E-055
   73.0550000000000         1.313831921312093E-054
   73.2450000000000         1.841639138605453E-054
   73.4350000000000         2.345721138284536E-054
   73.6250000000000         2.743340644462927E-054
   73.8150000000000         2.929963491826995E-054
   74.0050000000000         2.784635773343380E-054
   74.1950000000000         2.180152334420822E-054
   74.3850000000000         9.986649403304619E-055
   74.5750000000000        -8.471310017287629E-055
   74.7650000000000        -3.387847308478275E-054
   74.9550000000000        -6.567905205024734E-054
   75.1450000000000        -1.021550267842848E-053
   75.3350000000000        -1.401617624626621E-053
   75.5250000000000        -1.749537491193965E-053
   75.7150000000000        -2.001652578999396E-053
   75.9050000000000        -2.080165234208151E-053
   76.0950000000000        -1.898141439927560E-053
   76.2850000000000        -1.368016736142071E-053
   76.4750000000000        -4.139004196535921E-054
   76.6650000000000         1.012445751500591E-053
   76.8550000000000         2.912661724198632E-053
   77.0450000000000         5.221316600406300E-053
   77.2350000000000         7.786190745513431E-053
   77.4250000000000         1.035246813319639E-052
   77.6150000000000         1.255479081794390E-052
   77.8050000000000         1.392169879541001E-052
   77.9950000000000         1.389714785162078E-052
   78.1850000000000         1.188337080503433E-052
   78.3750000000000         7.308132189847358E-053
   78.5650000000000        -2.827374954742859E-054
   78.7550000000000        -1.110984792183377E-052
   78.9450000000000        -2.502834945456176E-052
   79.1350000000000        -4.139127963398581E-052
   79.3250000000000        -5.892541433314382E-052
   79.5150000000000        -7.564242717579354E-052
   79.7050000000000        -8.881284347081304E-052
   79.8950000000000        -9.503308505943696E-052
   80.0850000000000        -9.041567300498140E-052
   80.2750000000000        -7.092815919683891E-052
   80.4650000000000        -3.289645353374766E-052
   80.6550000000000         2.632796634148417E-052
   80.8450000000000         1.075602923382118E-051
   81.0350000000000         2.088864567130322E-051
   81.2250000000000         3.247653143013127E-051
   81.4150000000000         4.452513105072001E-051
   81.6050000000000         5.554943219071343E-051
   81.7950000000000         6.357005307280576E-051
   81.9850000000000         6.617516844133508E-051
   82.1750000000000         6.066725588678174E-051
   82.3650000000000         4.431004209009199E-051
   82.5550000000000         1.468391119128254E-051
   82.7450000000000        -2.985306047186082E-051
   82.9350000000000        -8.961648296063928E-051
   83.1250000000000        -1.629964301377900E-050
   83.3150000000000        -2.458662919516148E-050
   83.5050000000000        -3.310810671676331E-050
   83.6950000000000        -4.081675916218578E-050
   83.8850000000000        -4.633254111778565E-050
   84.0750000000000        -4.798642800861534E-050
   84.2650000000000        -4.391981534454526E-050
   84.4550000000000        -3.224916007112124E-050
   84.6450000000000        -1.130089073613786E-050
   84.8350000000000         2.008538718835495E-050
   85.0250000000000         6.219685458155525E-050
   85.2150000000000         1.140538169223436E-049
   85.4050000000000         1.730190088099979E-049
   85.5950000000000         2.344604360288193E-049
   85.7850000000000         2.915313836816261E-049
   85.9750000000000         3.351413774505652E-049
   86.1650000000000         3.541967838355824E-049
   86.3550000000000         3.361867755386571E-049
   86.5450000000000         2.681769638345700E-049
   86.7350000000000         1.382468123938563E-049
   86.9250000000000        -6.263360147441949E-050
   87.1150000000000        -3.383472692326163E-049
   87.3050000000000        -6.851231559380881E-049
   87.4950000000000        -1.088986470538717E-048
   87.6850000000000        -1.523458490687703E-048
   87.8750000000000        -1.947878518303529E-048
   88.0650000000000        -2.306786320614731E-048
   88.2550000000000        -2.530841380034671E-048
   88.4450000000000        -2.539750733156416E-048
   88.6350000000000        -2.247615115932832E-048
   88.8250000000000        -1.570969885696488E-048
   89.0150000000000        -4.395825220358270E-049
   89.2050000000000         1.190231985501586E-048
   89.3950000000000         3.320398859732412E-048
   89.5850000000000         5.895044535304183E-048
   89.7750000000000         8.785189131497073E-048
   89.9650000000000         1.177621304306766E-047
   90.1550000000000         1.456056409627386E-047
   90.3450000000000         1.673846459427891E-047
   90.5350000000000         1.782945944390437E-047
   90.7250000000000         1.729743322925992E-047
   90.9150000000000         1.459113542852368E-047
   91.1050000000000         9.201223328918034E-048
   91.2950000000000         7.333229189684102E-049
   91.4850000000000        -1.100537889054950E-047
   91.6750000000000        -2.591090552107641E-047
   91.8650000000000        -4.348622637380651E-047
   92.0550000000000        -6.275436258654660E-047
   92.2450000000000        -8.219389303406961E-047
   92.4350000000000        -9.971197969757338E-047
   92.6250000000000        -1.126711676221271E-046
   92.8150000000000        -1.179859430491118E-046
   93.0050000000000        -1.123028994518519E-046
   93.1950000000000        -9.227396129459354E-047
   93.3850000000000        -5.492515794911906E-047
   93.5750000000000         1.886183625531854E-048
   93.7650000000000         7.894510210644700E-047
   93.9550000000000         1.751169853507953E-046
   94.1450000000000         2.867987183392160E-046
   94.3350000000000         4.074471341295824E-046
   94.5250000000000         5.272624216148843E-046
   94.7150000000000         6.331138111402041E-046
   94.9050000000000         7.087983359704466E-046
   95.0950000000000         7.357183015998208E-046
   95.2850000000000         6.940469527991409E-046
   95.4750000000000         5.644227888193345E-046
   95.6650000000000         3.301698748319196E-046
   95.8550000000000        -2.001570220194728E-047
   96.0450000000000        -4.890429109360428E-046
   96.2350000000000        -1.068275202751909E-045
   96.4250000000000        -1.734544155845170E-045
   96.6150000000000        -2.447698577269526E-045
   96.8050000000000        -3.149126324893437E-045
   96.9950000000000        -3.761727376905126E-045
   97.1850000000000        -4.191820718652785E-045
   97.3750000000000        -4.333421889939691E-045
   97.5650000000000        -4.075221232755747E-045
   97.7550000000000        -3.310416533493136E-045
   97.9450000000000        -1.949304052640763E-045
   98.1350000000000         6.578838579106965E-047
   98.3250000000000         2.744022432440995E-045
   98.5150000000000         6.029239058900963E-045
   98.7050000000000         9.784457388418171E-045
   98.8950000000000         1.377971278184806E-044
   99.0850000000000         1.768556704838639E-044
   99.2750000000000         2.107477941406300E-044
   99.4650000000000         2.343457320241805E-044
   99.6550000000000         2.419160974728333E-044
   99.8450000000000         2.275113689040655E-044
   100.035000000000         1.855078111756577E-044
   100.225000000000         1.112809306737149E-044
   100.415000000000         1.992643254145679E-046
   100.605000000000        -1.425551907192938E-044
   100.795000000000        -3.190671320939376E-044
   100.985000000000        -5.199872917446041E-044
   101.175000000000        -7.329241336184548E-044
   101.365000000000        -9.403847349908558E-044
   101.555000000000        -1.119941084552658E-043
   101.745000000000        -1.244944777875892E-043
   101.935000000000        -1.285886527348912E-043
   102.125000000000        -1.212461129072339E-043
   102.315000000000        -9.963457964690096E-044
   102.505000000000        -6.146303458369958E-044
   102.695000000000        -5.375364602626018E-045
   102.885000000000         6.862938417339869E-044
   103.075000000000         1.587840286087754E-043
   103.265000000000         2.611908369336704E-043
   103.455000000000         3.695608336046450E-043
   103.645000000000         4.751110455163882E-043
   103.835000000000         5.666768802205364E-043
   104.025000000000         6.310923891990132E-043
   104.215000000000         6.538801999439448E-043
   104.405000000000         6.202745982385118E-043
   104.595000000000         5.165753053239533E-043
   104.785000000000         3.317962942718132E-043
   104.975000000000         5.953472156752518E-044
   105.165000000000        -3.000581519866861E-043
   105.355000000000        -7.383661873830222E-043
   105.545000000000        -1.236660611819511E-042
   105.735000000000        -1.764950704324478E-042
   105.925000000000        -2.281587235691381E-042
   106.115000000000        -2.733872535154560E-042
   106.305000000000        -3.059905925118536E-042
   106.495000000000        -3.191839000845404E-042
   106.685000000000        -3.060628990081272E-042
   106.875000000000        -2.602259672839837E-042
   107.065000000000        -1.765250524812467E-042
   107.255000000000        -5.191018760811738E-043
   107.445000000000         1.136863107792154E-042
   107.635000000000         3.164985933192461E-042
   107.825000000000         5.481985577644351E-042
   108.015000000000         7.953923398586413E-042
   108.205000000000         1.039451672166208E-041
   108.395000000000         1.256788309849546E-041
   108.585000000000         1.419667706074235E-041
   108.775000000000         1.497633849610234E-041
   108.965000000000         1.459579658941283E-041
   109.155000000000         1.276446543291561E-041
   109.345000000000         9.244739060730161E-042
   109.535000000000         3.888471330294582E-042
   109.725000000000        -3.324848085559483E-042
   109.915000000000        -1.225127841171422E-041
   110.105000000000        -2.255071965028348E-041