  -1.42500000000000         0.000000000000000E+000
  -1.23500000000000         0.000000000000000E+000
  -1.04500000000000         0.000000000000000E+000
 -0.855000000000000         0.000000000000000E+000
 -0.665000000000000         0.000000000000000E+000
 -0.475000000000000         0.000000000000000E+000
 -0.285000000000000         0.000000000000000E+000
 -9.499999999999975E-002    0.000000000000000E+000
  9.500000000000020E-002    0.000000000000000E+000
  0.285000000000000         0.000000000000000E+000
  0.475000000000000         0.000000000000000E+000
  0.665000000000000         0.000000000000000E+000
  0.855000000000000         0.000000000000000E+000
   1.04500000000000         0.000000000000000E+000
   1.23500000000000         0.000000000000000E+000
   1.42500000000000         0.000000000000000E+000
   1.61500000000000         0.000000000000000E+000
   1.80500000000000         0.000000000000000E+000
   1.99500000000000         0.000000000000000E+000
   2.18500000000000         0.000000000000000E+000
   2.37500000000000         0.000000000000000E+000
   2.56500000000000         0.000000000000000E+000
   2.75500000000000         0.000000000000000E+000
   2.94500000000000         0.000000000000000E+000
   3.13500000000000         0.000000000000000E+000
   3.32500000000000         0.000000000000000E+000
   3.51500000000000         0.000000000000000E+000
   3.70500000000000         0.000000000000000E+000
   3.89500000000000         0.000000000000000E+000
   4.08500000000000         0.000000000000000E+000
   4.27500000000000         0.000000000000000E+000
   4.46500000000000         0.000000000000000E+000
   4.65500000000000         0.000000000000000E+000
   4.84500000000000         0.000000000000000E+000
   5.03500000000000         0.000000000000000E+000
   5.22500000000000         0.000000000000000E+000
   5.41500000000000         0.000000000000000E+000
   5.60500000000000        -8.278506558659108E-160
   5.79500000000000         8.467129230235232E-155
   5.98500000000000        -1.140174757636772E-152
   6.17500000000000         2.953808440247732E-151
   6.36500000000000        -2.131264760020848E-149
   6.55500000000000         3.971559342088435E-132
   6.74500000000000         9.351129440399860E-130
   6.93500000000000         2.256271186498601E-130
   7.12500000000000        -2.753591385146037E-126
   7.31500000000000        -1.478177548680715E-124
   7.50500000000000        -4.445447013592888E-123
   7.69500000000000        -9.427228753280386E-122
   7.88500000000000        -1.545785142157277E-120
   8.07500000000000        -2.062218163269419E-119
   8.26500000000000        -2.312371422677933E-118
   8.45500000000000        -2.228370888994938E-117
   8.64500000000000        -1.874645059351599E-116
   8.83500000000000        -1.391593129438250E-115
   9.02500000000000        -9.174035768691869E-115
   9.21500000000000        -5.380730506057298E-114
   9.40500000000000        -2.794661007479307E-113
   9.59500000000000        -1.264420061542853E-112
   9.78500000000000        -4.763417091950207E-112
   9.97500000000000        -1.283119296032180E-111
   10.1650000000000        -3.279469172465050E-112
   10.3550000000000         2.647315975879155E-110
   10.5450000000000         2.404859885608789E-109
   10.7350000000000         1.526403992900080E-108
   10.9250000000000         8.159233802239335E-108
   11.1150000000000         3.893073838880406E-107
   11.3050000000000         1.702568990254910E-106
   11.4950000000000         6.925509975920273E-106
   11.6850000000000         2.644265019168185E-105
   11.8750000000000         9.535517069862649E-105
   12.0650000000000         3.261913468314625E-104
   12.2550000000000         1.061890761810368E-103
   12.4450000000000         3.297526549984111E-103
   12.6350000000000         9.784314748737975E-103
   12.8250000000000         2.777084238489385E-102
   13.0150000000000         7.544107751586685E-102
   13.2050000000000         1.961440850333152E-101
   13.3950000000000         4.877262195728622E-101
   13.5850000000000         1.157970704669112E-100
   13.7750000000000         2.617298495302511E-100
   13.9650000000000         5.603401565405306E-100
   14.1550000000000         1.126483911829444E-099
   14.3450000000000         2.093185897164215E-099
   14.5350000000000         3.480577931019728E-099
   14.7250000000000         4.768654909270045E-099
   14.9150000000000         3.759145456170316E-099
   15.1050000000000        -6.110780761484600E-099
   15.2950000000000        -4.155406101026398E-098
   15.4850000000000        -1.409312568233964E-097
   15.6750000000000        -3.853542753146706E-097
   15.8650000000000        -9.341615373338033E-097
   16.0550000000000        -2.078261247835793E-096
   16.2450000000000        -4.307638019033926E-096
   16.4350000000000        -8.369036082577666E-096
   16.6250000000000        -1.524480938097773E-095
   16.8150000000000        -2.589838591094075E-095
   17.0050000000000        -4.049112542512547E-095
   17.1950000000000        -5.658311262185735E-095
   17.3850000000000        -6.564939358218042E-095
   17.5750000000000        -4.728083465768477E-095
   17.7650000000000         3.879229153312529E-095
   17.9550000000000         2.601235222747201E-094
   18.1450000000000         7.091722489011788E-094
   18.3350000000000         1.467717072357994E-093
   18.5250000000000         2.486786338567777E-093
   18.7150000000000         3.280197247514579E-093
   18.9050000000000         2.244320270697852E-093
   19.0950000000000        -4.716929438188196E-093
   19.2850000000000        -2.677332177856194E-092
   19.4750000000000        -8.270465388718120E-092
   19.6650000000000        -2.083682310780657E-091
   19.8550000000000        -4.681304121526612E-091
   20.0450000000000        -9.708202387158036E-091
   20.2350000000000        -1.889023914323832E-090
   20.4250000000000        -3.476154115436387E-090
   20.6150000000000        -6.066230306025244E-090
   20.8050000000000        -1.002247889545162E-089
   20.9950000000000        -1.556577998526157E-089
   21.1850000000000        -2.235169937667866E-089
   21.3750000000000        -2.855869147319018E-089
   21.5650000000000        -2.907575564698221E-089
   21.7550000000000        -1.210171917797332E-089
   21.9450000000000         4.695325907333988E-089
   22.1350000000000         1.959917626531606E-088
   22.3250000000000         5.237721680995172E-088
   22.5150000000000         1.188205739876813E-087
   22.7050000000000         2.460526344669044E-087
   22.8950000000000         4.791903193140676E-087
   23.0850000000000         8.910143905007993E-087
   23.2750000000000         1.595391268053285E-086
   23.4650000000000         2.764863467412414E-086
   23.6550000000000         4.651895403676531E-086
   23.8450000000000         7.611228258414593E-086
   24.0350000000000         1.211687962717311E-085
   24.2250000000000         1.876034481557959E-085
   24.4150000000000         2.820482633740505E-085
   24.6050000000000         4.105152067079557E-085
   24.7950000000000         5.754513071014010E-085
   24.9850000000000         7.700325345914902E-085
   25.1750000000000         9.679427255849327E-085
   25.3650000000000         1.106076077347542E-084
   25.5550000000000         1.056576027046773E-084
   25.7450000000000         5.834204967938497E-085
   25.9350000000000        -7.224766104468808E-085
   26.1250000000000        -3.536640900056361E-084
   26.3150000000000        -8.929967333219038E-084
   26.5050000000000        -1.853843295543707E-083
   26.6950000000000        -3.477330415318799E-083
   26.8850000000000        -6.105964191276558E-083
   27.0750000000000        -1.020685030072867E-082
   27.2650000000000        -1.638693621393745E-082
   27.4550000000000        -2.538655585202354E-082
   27.6450000000000        -3.802756470420261E-082
   27.8350000000000        -5.507726161447442E-082
   28.0250000000000        -7.696725971489756E-082
   28.2150000000000        -1.032753256079376E-081
   28.4050000000000        -1.318355993069624E-081
   28.5950000000000        -1.572863027626059E-081
   28.7850000000000        -1.687924827095914E-081
   28.9750000000000        -1.465945530765399E-081
   29.1650000000000        -5.693447051136120E-082
   29.3550000000000         1.551915089903600E-081
   29.5450000000000         5.760951039304436E-081
   29.7350000000000         1.336964820595488E-080
   29.9250000000000         2.631596535018212E-080
   30.1150000000000         4.738749622363659E-080
   30.3050000000000         8.049145992642965E-080
   30.4950000000000         1.309628948794203E-079
   30.6850000000000         2.058886486389967E-079
   30.8750000000000         3.144024203174018E-079
   31.0650000000000         4.678727161179843E-079
   31.2550000000000         6.798577362705788E-079
   31.4450000000000         9.656352469365869E-079
   31.6350000000000         1.341027814414476E-078
   31.8250000000000         1.820131548138637E-078
   32.0150000000000         2.411418663690338E-078
   32.2050000000000         3.111523047986784E-078
   32.3950000000000         3.895841493492798E-078
   32.5850000000000         4.704907933128692E-078
   32.7750000000000         5.425353108965572E-078
   32.9650000000000         5.864194686373797E-078
   33.1550000000000         5.715283849212527E-078
   33.3450000000000         4.517065760305199E-078
   33.5350000000000         1.601533027815298E-078
   33.7250000000000        -3.964451654871696E-078
   33.9150000000000        -1.344218146578030E-077
   34.1050000000000        -2.848200106008567E-077
   34.2950000000000        -5.117098622135006E-077
   34.4850000000000        -8.404997324517741E-077
   34.6750000000000        -1.300741146971193E-076
   34.8650000000000        -1.924805216725789E-076
   35.0550000000000        -2.745137507174662E-076
   35.2450000000000        -3.789453461806416E-076
   35.4350000000000        -5.073084222357515E-076
   35.6250000000000        -6.587543468917357E-076
   35.8150000000000        -8.284292230469651E-076
   36.0050000000000        -1.005267951029252E-075
   36.1950000000000        -1.169120136399076E-075
   36.3850000000000        -1.287164239357917E-075
   36.5750000000000        -1.309645845134545E-075
   36.7650000000000        -1.165106647558278E-075
   36.9550000000000        -7.554679227061649E-076
   37.1450000000000         4.838911521432813E-077
   37.3350000000000         1.409531726876910E-075
   37.5250000000000         3.524888498457126E-075
   37.7150000000000         6.620122673826714E-075
   37.9050000000000         1.093680182606469E-074
   38.0950000000000         1.670857807624236E-074
   38.2850000000000         2.412256962118697E-074
   38.4750000000000         3.326186013579769E-074
   38.6650000000000         4.402521949336720E-074
   38.8550000000000         5.602107523468541E-074
   39.0450000000000         6.843477143191631E-074
   39.2350000000000         7.987163178194769E-074
   39.4250000000000         8.818370556730532E-074
   39.6150000000000         9.029568608827764E-074
   39.8050000000000         8.205558690646766E-074
   39.9950000000000         5.814831432791230E-074
   40.1850000000000         1.212481745119065E-074
   40.3750000000000        -6.338510280821210E-074
   40.5650000000000        -1.761940520831419E-073
   40.7550000000000        -3.337203998347956E-073
   40.9450000000000        -5.417013636664749E-073
   41.1350000000000        -8.023788393019443E-073
   41.3250000000000        -1.112120416040771E-072
   41.5150000000000        -1.458511137941964E-072
   41.7050000000000        -1.817068653236164E-072
   41.8950000000000        -2.147904655182462E-072
   42.0850000000000        -2.392884370388606E-072
   42.2750000000000        -2.474120701039412E-072
   42.4650000000000        -2.294963942959102E-072
   42.6550000000000        -1.744973551889232E-072
   42.8450000000000        -7.106159515042237E-073
   43.0350000000000         9.064884769320785E-073
   43.2250000000000         3.162205682083391E-072
   43.4150000000000         6.032665404658272E-072
   43.6050000000000         9.368058422427103E-072
   43.7950000000000         1.284108366211529E-071
   43.9850000000000         1.589781814093022E-071
   44.1750000000000         1.772450706150507E-071
   44.3650000000000         1.725104404389375E-071
   44.5550000000000         1.322030253716892E-071
   44.7450000000000         4.360930790565008E-072
   44.9350000000000        -1.029222666800813E-071
   45.1250000000000        -3.088441982054394E-071
   45.3150000000000        -5.599647294214192E-071
   45.5050000000000        -8.165582187676329E-071
   45.6950000000000        -1.001365961924875E-070
   45.8850000000000        -9.866076827648223E-071
   46.0750000000000        -5.822992294702091E-071
   46.2650000000000         4.702153717863945E-071
   46.4550000000000         2.493574211809507E-070
   46.6450000000000         5.850272014252181E-070
   46.8350000000000         1.088847449484694E-069
   47.0250000000000         1.784530898806950E-069
   47.2150000000000         2.669464761745267E-069
   47.4050000000000         3.692835073074402E-069
   47.5950000000000         4.726586283625856E-069
   47.7850000000000         5.529874092818253E-069
   47.9750000000000         5.709605837550438E-069
   48.1650000000000         4.682538835116430E-069
   48.3550000000000         1.648326105165436E-069
   48.5450000000000        -4.412176319681806E-069
   48.7350000000000        -1.469336660585095E-068
   48.9250000000000        -3.045036645031172E-068
   49.1150000000000        -5.278293409685294E-068
   49.3050000000000        -8.228505648273399E-068
   49.4950000000000        -1.185301874093251E-067
   49.6850000000000        -1.593727146765905E-067
   49.8750000000000        -2.000682218988428E-067
   50.0650000000000        -2.322521637467911E-067
   50.2550000000000        -2.428720803229107E-067
   50.4450000000000        -2.132446713705393E-067
   50.6350000000000        -1.185058691807816E-067
   50.8250000000000         7.216433692051879E-068
   51.0150000000000         3.940394675696833E-067
   51.2050000000000         8.834516753831272E-067
   51.3950000000000         1.571812363865783E-066
   51.5850000000000         2.476349678430141E-066
   51.7750000000000         3.586974813986070E-066
   51.9650000000000         4.848972680933282E-066
   52.1550000000000         6.141731088599418E-066
   52.3450000000000         7.254538202126667E-066
   52.5350000000000         7.861642941651683E-066
   52.7250000000000         7.500316371919741E-066
   52.9150000000000         5.557562147657956E-066
   53.1050000000000         1.273326020124621E-066
   53.2950000000000        -6.229614702161835E-066
   53.4850000000000        -1.787671974614601E-065
   53.6750000000000        -3.451974111666930E-065
   53.8650000000000        -5.674734490813226E-065
   54.0550000000000        -8.461536371551811E-065
   54.2450000000000        -1.172881169382909E-064
   54.4350000000000        -1.525906175324548E-064
   54.6250000000000        -1.864850981436979E-064
   54.8150000000000        -2.125053634918490E-064
   55.0050000000000        -2.212100657031957E-064
   55.1950000000000        -1.997517323742536E-064
   55.3850000000000        -1.317020828875977E-064
   55.5750000000000         2.675622561456330E-066
   55.7650000000000         2.254631605087774E-064
   55.9550000000000         5.591385796550466E-064
   56.1450000000000         1.023310469653648E-063
   56.3350000000000         1.629793551929892E-063
   56.5250000000000         2.375720885362632E-063
   56.7150000000000         3.234497793753573E-063
   56.9050000000000         4.144616607524025E-063
   57.0950000000000         4.996704987105739E-063
   57.2850000000000         5.619710278142989E-063
   57.4750000000000         5.767859188522137E-063
   57.6650000000000         5.110992713159784E-063
   57.8550000000000         3.232049438931294E-063
   58.0450000000000        -3.632006022070847E-064
   58.2350000000000        -6.217708329975159E-063
   58.4250000000000        -1.486834301012512E-062
   58.6150000000000        -2.675642806032726E-062
   58.8050000000000        -4.209561877431946E-062
   58.9950000000000        -6.069101228385797E-062
   59.1850000000000        -8.170756676532905E-062
   59.3750000000000        -1.033931875210313E-061
   59.5650000000000        -1.227729786970305E-061
   59.7550000000000        -1.353467415031531E-061
   59.9450000000000        -1.348419887858656E-061
   60.1350000000000        -1.130989922733914E-061
   60.3250000000000        -6.019105463803264E-062
   60.5150000000000         3.509080160616116E-062
   60.7050000000000         1.842391767343449E-061
   60.8950000000000         3.973605044799711E-061
   61.0850000000000         6.806914273609201E-061
   61.2750000000000         1.033206425106733E-060
   61.4650000000000         1.442315301027683E-060
   61.6550000000000         1.878800401911297E-060
   61.8450000000000         2.291361798955702E-060
   62.0350000000000         2.601427443952469E-060
   62.2250000000000         2.699237745618972E-060
   62.4150000000000         2.442608286925913E-060
   62.6050000000000         1.660168616923076E-060
   62.7950000000000         1.612026012013753E-061
   62.9850000000000        -2.245617538392807E-060
   63.1750000000000        -5.722427381427673E-060
   63.3650000000000        -1.035966356562566E-059
   63.5550000000000        -1.612034632734329E-059
   63.7450000000000        -2.277249716508028E-059
   63.9350000000000        -2.981372657293961E-059
   64.1250000000000        -3.639557948005747E-059
   64.3150000000000        -4.125954270562648E-059
   64.5050000000000        -4.270141788241874E-059
   64.6950000000000        -3.858552807928034E-059
   64.8850000000000        -2.643416143374902E-059
   65.0750000000000        -3.619666502030253E-060
   65.2650000000000         3.231467229571849E-059
   65.4550000000000         8.318501391943440E-059
   65.6450000000000         1.495413047285447E-058
   65.8350000000000         2.298989391694708E-058
   66.0250000000000         3.198706381296156E-058
   66.2150000000000         4.112799062876406E-058
   66.4050000000000         4.913833767868268E-058
   66.5950000000000         5.423794173336426E-058
   66.7850000000000         5.414287791720777E-058
   66.9750000000000         4.614513165060125E-058
   67.1650000000000         2.729796215517713E-058
   67.3550000000000        -5.266783669900757E-059
   67.5450000000000        -5.386998766266454E-058
   67.7350000000000        -1.196591215545886E-057
   67.9250000000000        -2.018396029202914E-057
   68.1150000000000        -2.968079403075131E-057
   68.3050000000000        -3.972682261711439E-057
   68.4950000000000        -4.914569024387358E-057
   68.6850000000000        -5.626465231736771E-057
   68.8750000000000        -5.891416156592124E-057
   69.0650000000000        -5.450104930811399E-057
   69.2550000000000        -4.018055827400204E-057
   69.4450000000000        -1.314994155199796E-057
   69.6350000000000         2.892088200558761E-057
   69.8250000000000         8.731919546919961E-057
   70.0150000000000         1.615971961282054E-056
   70.2050000000000         2.488014894063066E-056
   70.3950000000000         3.427010383906457E-056
   70.5850000000000         4.331270591094580E-056
   70.7750000000000         5.055756173663083E-056
   70.9650000000000         5.412559885980839E-056
   71.1550000000000         5.177879884628107E-056
   71.3450000000000         4.107507386453462E-056
   71.5350000000000         1.962540523377057E-056
   71.7250000000000        -1.453677207158148E-056
   71.9150000000000        -6.247588698433247E-056
   72.1050000000000        -1.237833650109036E-055
   72.2950000000000        -1.959569378566448E-055
   72.4850000000000        -2.737978455032021E-055
   72.6750000000000        -3.489220644238270E-055
   72.8650000000000        -4.095089001847090E-055
   73.0550000000000        -4.404316871320865E-055
   73.2450000000000        -4.239251417200977E-055
   73.4350000000000        -3.409354234044518E-055
   73.6250000000000        -1.732651719967345E-055
   73.8150000000000         9.343967667609440E-056
   74.0050000000000         4.659162074038780E-055
   74.1950000000000         9.389180895493584E-055
   74.3850000000000         1.490623470967430E-054
   74.5750000000000         2.078380656731430E-054
   74.7650000000000         2.635556413333024E-054
   74.9550000000000         3.070430882098549E-054
   75.1450000000000         3.268203972962686E-054
   75.3350000000000         3.097197417135552E-054
   75.5250000000000         2.420206898818209E-054
   75.7150000000000         1.111633346179842E-054
   75.9050000000000        -9.195367874773000E-055
   76.0950000000000        -3.701646570683591E-054
   76.2850000000000        -7.168985413703730E-054
   76.4750000000000        -1.113017829847115E-053
   76.6650000000000        -1.524078923473353E-053
   76.8550000000000        -1.898590725470419E-053
   77.0450000000000        -2.167955439223914E-053
   77.2350000000000        -2.248830623702744E-053
   77.4250000000000        -2.048624322268535E-053
   77.6150000000000        -1.474693921225938E-053
   77.8050000000000        -4.475355716555676E-054
   77.9950000000000         1.082196104429107E-053
   78.1850000000000         3.113614817957287E-053
   78.3750000000000         5.574023217547212E-053
   78.5650000000000         8.298255189190626E-053
   78.7550000000000         1.101228033724741E-052
   78.9450000000000         1.332523997532600E-052
   79.1350000000000         1.473467619809492E-052
   79.3250000000000         1.464988722607694E-052
   79.5150000000000         1.243789079663249E-052
   79.7050000000000         7.495202746141852E-053
   79.8950000000000        -6.536289536450958E-054
   80.0850000000000        -1.223315502407772E-052
   80.2750000000000        -2.707668688999025E-052
   80.4650000000000        -4.448072530290857E-052
   80.6550000000000        -6.307232568839520E-052
   80.8450000000000        -8.071348648895424E-052
   81.0350000000000        -9.447172073610384E-052
   81.2250000000000        -1.006891538959130E-051
   81.4150000000000        -9.518255920944482E-052
   81.6050000000000        -7.360239221366669E-052
   81.7950000000000        -3.196888019704085E-052
   81.9850000000000         3.261342097886768E-052
   82.1750000000000         1.210849579620983E-051
   82.3650000000000         2.314573743204571E-051
   82.5550000000000         3.578257158733391E-051
   82.7450000000000         4.894949493662741E-051
   82.9350000000000         6.103872280288670E-051
   83.1250000000000         6.989279563426697E-051
   83.3150000000000         7.286269733767298E-051
   83.5050000000000         6.695682590162570E-051
   83.6950000000000         4.909892794082692E-051
   83.8850000000000         1.650617992247904E-051
   84.0750000000000        -3.281261543938951E-051
   84.2650000000000        -9.945451131236801E-051
   84.4550000000000        -1.819514605247276E-050
   84.6450000000000        -2.760903565227619E-050
   84.8350000000000        -3.743088740765420E-050
   85.0250000000000        -4.652765668553256E-050
   85.2150000000000        -5.337911951301681E-050
   85.4050000000000        -5.611323954960447E-050
   85.5950000000000        -5.260137336815118E-050
   85.7850000000000        -4.062548544605751E-050
   85.9750000000000        -1.812531457305717E-050
   86.1650000000000         1.647346002590872E-050
   86.3550000000000         6.385873852133895E-050
   86.5450000000000         1.233803596137146E-049
   86.7350000000000         1.925831691005186E-049
   86.9250000000000         2.667766885147404E-049
   87.1150000000000         3.387091349157359E-049
   87.3050000000000         3.984272448974337E-049
   87.4950000000000         4.334124089497666E-049
   87.6850000000000         4.290851614156523E-049
   87.8750000000000         3.697610623677114E-049
   88.0650000000000         2.401185488090131E-049
   88.2550000000000         2.720104907612296E-050
   88.4450000000000        -2.770798244760180E-049
   88.6350000000000        -6.730456994951063E-049
   88.8250000000000        -1.150150480199370E-048
   89.0150000000000        -1.683967273777277E-048
   89.2050000000000        -2.233652996400677E-048
   89.3950000000000        -2.740371344347469E-048
   89.5850000000000        -3.127223293457923E-048
   89.7750000000000        -3.301264134843894E-048
   89.9650000000000        -3.158159648582823E-048
   90.1550000000000        -2.589933871467010E-048
   90.3450000000000        -1.496071730475704E-048
   90.5350000000000         2.020489823690673E-049
   90.7250000000000         2.543813181138782E-048
   90.9150000000000         5.510014719484779E-048
   91.1050000000000         9.002956246800488E-048
   91.2950000000000         1.282806193629013E-047
   91.4850000000000         1.667964058315453E-047
   91.6750000000000         2.013392505207010E-047
   91.8650000000000         2.265282583167482E-047
   92.0550000000000         2.360187383918511E-047
   92.2450000000000         2.228548935732108E-047
   92.4350000000000         1.800190533692717E-047
   92.6250000000000         1.011871884945079E-047
   92.8150000000000        -1.831896789184336E-048
   93.0050000000000        -1.804180497189236E-047
   93.1950000000000        -3.830584782481233E-047
   93.3850000000000        -6.190098068046713E-047
   93.5750000000000        -8.747891173808505E-047
   93.7650000000000        -1.129887515668213E-046
   93.9550000000000        -1.356486732095148E-046
   94.1450000000000        -1.519868716810446E-046
   94.3350000000000        -1.579716364205288E-046
   94.5250000000000        -1.492475596179350E-046
   94.7150000000000        -1.214893093950438E-046
   94.9050000000000        -7.087565058999139E-047
   95.0950000000000         5.325628143594313E-048
   95.2850000000000         1.080863375649335E-046
   95.4750000000000         2.359021419823215E-046
   95.6650000000000         3.840936090760875E-046
   95.8550000000000         5.442042086512862E-046
   96.0450000000000         7.035922413769942E-046
   96.2350000000000         8.453258250179109E-046
   96.4250000000000         9.484946738394837E-046
   96.6150000000000         9.890464786350466E-046
   96.8050000000000         9.412363647911786E-046
   96.9950000000000         7.797427906186578E-046
   97.1850000000000         4.824508581398618E-046
   97.3750000000000         3.383419771770208E-047
   97.5650000000000        -5.712189929312816E-046
   97.7550000000000        -1.323387670082749E-045
   97.9450000000000        -2.195062384093318E-045
   98.1350000000000        -3.137106974404217E-045
   98.3250000000000        -4.076776603988059E-045
   98.5150000000000        -4.917387023760784E-045
   98.7050000000000        -5.540341913507180E-045
   98.8950000000000        -5.810077891531683E-045
   99.0850000000000        -5.582366238131470E-045
   99.2750000000000        -4.716205614284512E-045
   99.4650000000000        -3.089245453589876E-045
   99.6550000000000        -6.162972002879401E-046
   99.8450000000000         2.729968164890904E-045
   100.035000000000         6.897549571813447E-045
   100.225000000000         1.173481417708009E-044
   100.415000000000         1.697380294207886E-044
   100.605000000000         2.221998514922510E-044
   100.795000000000         2.695154311787467E-044
   100.985000000000         3.053126873966515E-044
   101.175000000000         3.223384023825760E-044
   101.365000000000         3.129055561448742E-044
   101.555000000000         2.695248209740026E-044
   101.745000000000         1.857142126507799E-044
   101.935000000000         5.696109784623770E-045
   102.125000000000        -1.182125205956007E-044
   102.315000000000        -3.371559857969500E-044
   102.505000000000        -5.920675342508306E-044
   102.695000000000        -8.691672381894269E-044
   102.885000000000        -1.148207448749571E-043
   103.075000000000        -1.402472451623119E-043
   103.265000000000        -1.599416420168897E-043
   103.455000000000        -1.702070496581622E-043
   103.645000000000        -1.671313112063069E-043
   103.835000000000        -1.469040640113098E-043
   104.025000000000        -1.062197814403519E-043
   104.215000000000        -4.275306361930928E-044
   104.405000000000         4.431872941970991E-044
   104.595000000000         1.537824354551393E-043
   104.785000000000         2.818945100127632E-043
   104.975000000000         4.219844307935996E-043
   105.165000000000         5.642235550230237E-043
   105.355000000000         6.956305799657282E-043
   105.545000000000         8.003825855439060E-043
   105.735000000000         8.604911430353995E-043
   105.925000000000         8.568849801007788E-043
   106.115000000000         7.709135179576991E-043
   106.305000000000         5.862492572955403E-043
   106.495000000000         2.911223927366014E-043
   106.685000000000        -1.192298597528543E-043
   106.875000000000        -6.400708187842452E-043
   107.065000000000        -1.254853352005156E-042
   107.255000000000        -1.933361429171794E-042
   107.445000000000        -2.630609084064964E-042
   107.635000000000        -3.286815980766836E-042
   107.825000000000        -3.828766885280463E-042
   108.015000000000        -4.172818110441127E-042
   108.205000000000        -4.229732700912821E-042
   108.395000000000        -3.911405237732512E-042
   108.585000000000        -3.139377194696523E-042
   108.775000000000        -1.854849109767729E-042
   108.965000000000        -2.967520512964300E-044
   109.155000000000         2.322406956386243E-042
   109.345000000000         5.135286320030386E-042
   109.535000000000         8.281900763766890E-042
   109.725000000000         1.156888902252702E-041
   109.915000000000         1.473585026539847E-041
   110.105000000000         1.746054035760701E-041