  -1.42500000000000         0.000000000000000E+000
  -1.23500000000000         0.000000000000000E+000
  -1.04500000000000         0.000000000000000E+000
 -0.855000000000000         0.000000000000000E+000
 -0.665000000000000         0.000000000000000E+000
 -0.475000000000000         0.000000000000000E+000
 -0.285000000000000         0.000000000000000E+000
 -9.499999999999975E-002    0.000000000000000E+000
  9.500000000000020E-002    0.000000000000000E+000
  0.285000000000000         0.000000000000000E+000
  0.475000000000000         0.000000000000000E+000
  0.665000000000000         0.000000000000000E+000
  0.855000000000000         0.000000000000000E+000
   1.04500000000000         0.000000000000000E+000
   1.23500000000000         0.000000000000000E+000
   1.42500000000000         0.000000000000000E+000
   1.61500000000000         0.000000000000000E+000
   1.80500000000000         0.000000000000000E+000
   1.99500000000000         0.000000000000000E+000
   2.18500000000000         0.000000000000000E+000
   2.37500000000000         0.000000000000000E+000
   2.56500000000000         0.000000000000000E+000
   2.75500000000000         0.000000000000000E+000
   2.94500000000000         0.000000000000000E+000
   3.13500000000000         0.000000000000000E+000
   3.32500000000000         0.000000000000000E+000
   3.51500000000000         0.000000000000000E+000
   3.70500000000000         0.000000000000000E+000
   3.89500000000000         0.000000000000000E+000
   4.08500000000000         0.000000000000000E+000
   4.27500000000000         0.000000000000000E+000
   4.46500000000000         0.000000000000000E+000
   4.65500000000000         0.000000000000000E+000
   4.84500000000000         0.000000000000000E+000
   5.03500000000000         0.000000000000000E+000
   5.22500000000000         0.000000000000000E+000
   5.41500000000000         1.076085671855552E-157
   5.60500000000000        -3.774383077533759E-153
   5.79500000000000         4.087605684206459E-151
   5.98500000000000        -8.929500343461495E-150
   6.17500000000000         4.508237988639005E-148
   6.36500000000000         7.847768768373971E-130
   6.55500000000000         1.160359699261020E-127
   6.74500000000000         6.259774289051481E-126
   6.93500000000000         1.945833849833726E-124
   7.12500000000000         4.176655445358622E-123
   7.31500000000000         6.752537187056924E-122
   7.50500000000000         8.549480299233552E-121
   7.69500000000000         8.489352159805738E-120
   7.88500000000000         6.231226304378670E-119
   8.07500000000000         2.429808398834249E-118
   8.26500000000000        -1.629737633781955E-117
   8.45500000000000        -4.726433718395833E-116
   8.64500000000000        -6.238076818704886E-115
   8.83500000000000        -6.241159661620770E-114
   9.02500000000000        -5.253710503580155E-113
   9.21500000000000        -3.880943287391334E-112
   9.40500000000000        -2.572867676241117E-111
   9.59500000000000        -1.552260967676317E-110
   9.78500000000000        -8.604303811297003E-110
   9.97500000000000        -4.412142948917185E-109
   10.1650000000000        -2.103575998055809E-108
   10.3550000000000        -9.359058560212999E-108
   10.5450000000000        -3.895312586165341E-107
   10.7350000000000        -1.518607139009239E-106
   10.9250000000000        -5.545114016521464E-106
   11.1150000000000        -1.892904995687369E-105
   11.3050000000000        -6.013237248950965E-105
   11.4950000000000        -1.761111879501683E-104
   11.6850000000000        -4.665252869649592E-104
   11.8750000000000        -1.070200448276111E-103
   12.0650000000000        -1.865326224997109E-103
   12.2550000000000        -8.787735717618433E-104
   12.4450000000000         1.209173255893162E-102
   12.6350000000000         7.765734348926247E-102
   12.8250000000000         3.369677481636175E-101
   13.0150000000000         1.237822437677151E-100
   13.2050000000000         4.104672229560398E-100
   13.3950000000000         1.263311832465294E-099
   13.5850000000000         3.662330584833623E-099
   13.7750000000000         1.008954886642543E-098
   13.9650000000000         2.656887740333683E-098
   14.1550000000000         6.714401381214457E-098
   14.3450000000000         1.633157903883650E-097
   14.5350000000000         3.831361681631072E-097
   14.7250000000000         8.682602333577401E-097
   14.9150000000000         1.902764613470072E-096
   15.1050000000000         4.035038156724162E-096
   15.2950000000000         8.282346823349847E-096
   15.4850000000000         1.645246201742990E-095
   15.6750000000000         3.160715624135388E-095
   15.8650000000000         5.864501003252463E-095
   16.0550000000000         1.048501418201722E-094
   16.2450000000000         1.799561368339431E-094
   16.4350000000000         2.946682285352440E-094
   16.6250000000000         4.554390858657150E-094
   16.8150000000000         6.512398208432670E-094
   17.0050000000000         8.245561621087090E-094
   17.1950000000000         8.130579498084529E-094
   17.3850000000000         2.391691247108705E-094
   17.5750000000000        -1.689548045601400E-093
   17.7650000000000        -6.527984620554144E-093
   17.9550000000000        -1.718005519506172E-092
   18.1450000000000        -3.886202711175324E-092
   18.3350000000000        -8.064660441354683E-092
   18.5250000000000        -1.578823760922997E-091
   18.7150000000000        -2.959013727821566E-091
   18.9050000000000        -5.355705192498410E-091
   19.0950000000000        -9.413959145974490E-091
   19.2850000000000        -1.613016561851822E-090
   19.4750000000000        -2.700962797184270E-090
   19.6650000000000        -4.427415784616267E-090
   19.8550000000000        -7.112307915453106E-090
   20.0450000000000        -1.120447557571166E-089
   20.2350000000000        -1.731706175298261E-089
   20.4250000000000        -2.626703114851241E-089
   20.6150000000000        -3.912293104678931E-089
   20.8050000000000        -5.727758711543396E-089
   20.9950000000000        -8.259118458641007E-089
   21.1850000000000        -1.177068884941058E-088
   21.3750000000000        -1.667403570807309E-088
   21.5650000000000        -2.366986922708553E-088
   21.7550000000000        -3.401910493796251E-088
   21.9450000000000        -5.002068182169616E-088
   22.1350000000000        -7.578153597193181E-088
   22.3250000000000        -1.183246714357248E-087
   22.5150000000000        -1.889249437255666E-087
   22.7050000000000        -3.041569326737302E-087
   22.8950000000000        -4.852497852182095E-087
   23.0850000000000        -7.525714256861412E-087
   23.2750000000000        -1.108763125035303E-086
   23.4650000000000        -1.498212709651065E-086
   23.6550000000000        -1.720703532103516E-086
   23.8450000000000        -1.261111783050316E-086
   24.0350000000000         1.027813307700180E-086
   24.2250000000000         7.489553316393472E-086
   24.4150000000000         2.262718943404962E-085
   24.6050000000000         5.468801238886107E-085
   24.7950000000000         1.181753772859329E-084
   24.9850000000000         2.376792011956378E-084
   25.1750000000000         4.534695539403581E-084
   25.3650000000000         8.292467867428513E-084
   25.5550000000000         1.462149082409346E-083
   25.7450000000000         2.494338646884406E-083
   25.9350000000000         4.123806286107482E-083
   26.1250000000000         6.608783607833573E-083
   26.3150000000000         1.025430709282088E-082
   26.5050000000000         1.535953394858195E-082
   26.6950000000000         2.208826550953440E-082
   26.8850000000000         3.020002488233605E-082
   27.0750000000000         3.854158641303601E-082
   27.2650000000000         4.414538267720027E-082
   27.4550000000000         4.070846768739979E-082
   27.6450000000000         1.613230682177122E-082
   27.8350000000000        -5.130744996579205E-082
   28.0250000000000        -1.987096605019020E-081
   28.2150000000000        -4.868621459308558E-081
   28.4050000000000        -1.011802058768754E-080
   28.5950000000000        -1.920189731989606E-080
   28.7850000000000        -3.428681962208896E-080
   28.9750000000000        -5.846659916659587E-080
   29.1650000000000        -9.600140412761891E-080
   29.3550000000000        -1.525216160295352E-079
   29.5450000000000        -2.351101245521731E-079
   29.7350000000000        -3.521197731647149E-079
   29.9250000000000        -5.125045587009082E-079
   30.1150000000000        -7.243424583185122E-079
   30.3050000000000        -9.921068256467879E-079
   30.4950000000000        -1.312111401402842E-078
   30.6850000000000        -1.665431033025544E-078
   30.8750000000000        -2.007521486090452E-078
   31.0650000000000        -2.253783135076503E-078
   31.2550000000000        -2.260516230456019E-078
   31.4450000000000        -1.801210072813333E-078
   31.6350000000000        -5.390335219076536E-079
   31.8250000000000         2.002089681497575E-078
   32.0150000000000         6.463164890217325E-078
   32.2050000000000         1.366474589300144E-077
   32.3950000000000         2.459853850946624E-077
   32.5850000000000         4.037903482040783E-077
   32.7750000000000         6.213267284448300E-077
   32.9650000000000         9.079660041689661E-077
   33.1550000000000         1.267950123274223E-076
   33.3450000000000         1.695600055219826E-076
   33.5350000000000         2.168684321742685E-076
   33.7250000000000         2.639795008228076E-076
   33.9150000000000         3.025836310430744E-076
   34.1050000000000         3.196152947519215E-076
   34.2950000000000         2.960448849228554E-076
   34.4850000000000         2.058492979860815E-076
   34.6750000000000         1.546743915650180E-077
   34.8650000000000        -3.158296788488264E-076
   35.0550000000000        -8.340956554513985E-076
   35.2450000000000        -1.586719455419258E-075
   35.4350000000000        -2.615548679886529E-075
   35.6250000000000        -3.946402908387685E-075
   35.8150000000000        -5.574414873802880E-075
   36.0050000000000        -7.444999803682096E-075
   36.1950000000000        -9.430880631113958E-075
   36.3850000000000        -1.130654144092139E-074
   36.5750000000000        -1.272276979154381E-074
   36.7650000000000        -1.318555933973614E-074
   36.9550000000000        -1.204548390002993E-074
   37.1450000000000        -8.505530430077565E-075
   37.3350000000000        -1.656977934585601E-075
   37.5250000000000         9.446214937606131E-075
   37.7150000000000         2.566447168518169E-074
   37.9050000000000         4.759344677131791E-074
   38.0950000000000         7.532601204056962E-074
   38.2850000000000         1.081609416472794E-073
   38.4750000000000         1.442755466721616E-073
   38.6650000000000         1.803944737117962E-073
   38.8550000000000         2.115042015723891E-073
   39.0450000000000         2.306806369606968E-073
   39.2350000000000         2.291128378230691E-073
   39.4250000000000         1.964156257931356E-073
   39.6150000000000         1.213235493812373E-073
   39.8050000000000        -7.155542018911000E-075
   39.9950000000000        -1.980796134006129E-073
   40.1850000000000        -4.564030410481499E-073
   40.3750000000000        -7.803550206056216E-073
   40.5650000000000        -1.158480104866345E-072
   40.7550000000000        -1.566497119508170E-072
   40.9450000000000        -1.964137936069823E-072
   41.1350000000000        -2.292076305918288E-072
   41.3250000000000        -2.468939500783603E-072
   41.5150000000000        -2.388226781631758E-072
   41.7050000000000        -1.914797761117327E-072
   41.8950000000000        -8.805664760835081E-073
   42.0850000000000         9.206420829989846E-073
   42.2750000000000         3.738131745833383E-072
   42.4650000000000         7.866275015083434E-072
   42.6550000000000         1.363678107262276E-071
   42.8450000000000         2.138923803533571E-071
   43.0350000000000         3.140035583593541E-071
   43.2250000000000         4.374318952077272E-071
   43.4150000000000         5.803819398861038E-071
   43.6050000000000         7.305100270435333E-071
   43.7950000000000         8.609199047188662E-071
   43.9850000000000         9.218693177865762E-071
   44.1750000000000         8.302577241827500E-071
   44.3650000000000         4.576902731197011E-071
   44.5550000000000        -3.808946070469175E-071
   44.7450000000000        -1.934288454039900E-070
   44.9350000000000        -4.511662627350987E-070
   45.1250000000000        -8.459834384257980E-070
   45.3150000000000        -1.410910801577921E-069
   45.5050000000000        -2.167298416344477E-069
   45.6950000000000        -3.108578478395044E-069
   45.8850000000000        -4.176391397000967E-069
   46.0750000000000        -5.228307045892159E-069
   46.2650000000000        -5.997767728072830E-069
   46.4550000000000        -6.049271510772319E-069
   46.6450000000000        -4.735437732236954E-069
   46.8350000000000        -1.167581784916735E-069
   47.0250000000000         5.782304965269601E-069
   47.2150000000000         1.742314909819554E-068
   47.4050000000000         3.509789748594923E-068
   47.5950000000000         5.991071267341595E-068
   47.7850000000000         9.228961850010851E-068
   47.9750000000000         1.313521523710742E-067
   48.1650000000000         1.740593057705974E-067
   48.3550000000000         2.141768800756911E-067
   48.5450000000000         2.411178353261496E-067
   48.7350000000000         2.388176564005960E-067
   48.9250000000000         1.848980885198446E-067
   49.1150000000000         5.049934473419552E-068
   49.3050000000000        -1.987029038775905E-067
   49.4950000000000        -5.996505421122558E-067
   49.6850000000000        -1.186488833083225E-066
   49.8750000000000        -1.981834558819896E-066
   50.0650000000000        -2.984095173265397E-066
   50.2550000000000        -4.150522784214448E-066
   50.4450000000000        -5.376265533318201E-066
   50.6350000000000        -6.470583978914674E-066
   50.8250000000000        -7.132675376910601E-066
   51.0150000000000        -6.931201502893182E-066
   51.2050000000000        -5.293594341991849E-066
   51.3950000000000        -1.513383957312124E-066
   51.5850000000000         5.214088005649975E-066
   51.7750000000000         1.571550799938346E-065
   51.9650000000000         3.071015812722517E-065
   52.1550000000000         5.061520974930301E-065
   52.3450000000000         7.527693055640648E-065
   52.5350000000000         1.036254087872773E-064
   52.7250000000000         1.332609176333531E-064
   52.9150000000000         1.599954569330501E-064
   53.1050000000000         1.773938921345079E-064
   53.2950000000000         1.763856495707072E-064
   53.4850000000000         1.450497134071201E-064
   53.6750000000000         6.871144159793028E-065
   53.8650000000000        -6.947295197288434E-065
   54.0550000000000        -2.872334929788876E-064
   54.2450000000000        -6.009678749787031E-064
   54.4350000000000        -1.022340489241702E-063
   54.6250000000000        -1.553471638203262E-063
   54.8150000000000        -2.180553283081400E-063
   55.0050000000000        -2.865855908466786E-063
   55.1950000000000        -3.538308225313800E-063
   55.3850000000000        -4.083165574798554E-063
   55.5750000000000        -4.331763507693255E-063
   55.7650000000000        -4.053006309699293E-063
   55.9550000000000        -2.949081198193684E-063
   56.1450000000000        -6.589089062707137E-064
   56.3350000000000         3.226009383558451E-063
   56.5250000000000         9.127524182220646E-063
   56.7150000000000         1.742174978426128E-062
   56.9050000000000         2.834769874882947E-062
   57.0950000000000         4.187691113554299E-062
   57.2850000000000         5.753950076865434E-062
   57.4750000000000         7.420659049702756E-062
   57.6650000000000         8.983693408766422E-062
   57.8550000000000         1.012074857448219E-061
   58.0450000000000         1.036644374604972E-061
   58.2350000000000         9.095297132209456E-062
   58.4250000000000         5.520997121737667E-062
   58.6150000000000        -1.276783251081096E-062
   58.8050000000000        -1.228412552613887E-061
   58.9950000000000        -2.842739462810000E-061
   59.1850000000000        -5.037462742576860E-061
   59.3750000000000        -7.825056076131975E-061
   59.5650000000000        -1.112590765436942E-060
   59.7550000000000        -1.472196505340998E-060
   59.9450000000000        -1.820444189546608E-060
   60.1350000000000        -2.092106662232944E-060
   60.3250000000000        -2.193198856565262E-060
   60.5150000000000        -1.998775214624734E-060
   60.7050000000000        -1.354732796009162E-060
   60.8950000000000        -8.583795067596547E-062
   61.0850000000000         1.987527040875629E-060
   61.2750000000000         5.021401517671867E-060
   61.4650000000000         9.107024220851778E-060
   61.6550000000000         1.421540477062794E-059
   61.8450000000000         2.012867869461028E-059
   62.0350000000000         2.636216775449032E-059
   62.2250000000000         3.208506361407579E-059
   62.4150000000000         3.605263060929657E-059
   62.6050000000000         3.656847376074356E-059
   62.7950000000000         3.150113128614000E-059
   62.9850000000000         1.838405168343439E-059
   63.1750000000000        -5.369470529473029E-060
   63.3650000000000        -4.210635484546456E-059
   63.5550000000000        -9.340635605927627E-059
   63.7450000000000        -1.593806281652587E-058
   63.9350000000000        -2.378155081874439E-058
   64.1250000000000        -3.232179344688747E-058
   64.3150000000000        -4.058671413500313E-058
   64.5050000000000        -4.710344331748081E-058
   64.6950000000000        -4.985940548077093E-058
   64.8850000000000        -4.633052093115444E-058
   65.0750000000000        -3.360861545053128E-058
   65.2650000000000        -8.661038923846281E-059
   65.4550000000000         3.124863829221738E-058
   65.6450000000000         8.796114820632183E-058
   65.8350000000000         1.616456198725165E-057
   66.0250000000000         2.498798770373882E-057
   66.2150000000000         3.466603815007732E-057
   66.4050000000000         4.414653151815642E-057
   66.5950000000000         5.185500739506742E-057
   66.7850000000000         5.567096864606934E-057
   66.9750000000000         5.297879814030089E-057
   67.1650000000000         4.082361793801323E-057
   67.3550000000000         1.620088157553798E-057
   67.5450000000000        -2.349841038506411E-057
   67.7350000000000        -7.987890878525121E-057
   67.9250000000000        -1.527827722086513E-056
   68.1150000000000        -2.394274322916071E-056
   68.3050000000000        -3.335236705540410E-056
   68.4950000000000        -4.245034013251988E-056
   68.6850000000000        -4.970330073998158E-056
   68.8750000000000        -5.310292331717640E-056
   69.0650000000000        -5.024213243981049E-056
   69.2550000000000        -3.849040267621082E-056
   69.4450000000000        -1.528886339502753E-056
   69.6350000000000         2.142289587381520E-056
   69.8250000000000         7.265135815346756E-056
   70.0150000000000         1.376895771441581E-055
   70.2050000000000         2.134062528902367E-055
   70.3950000000000         2.935689816287445E-055
   70.5850000000000         3.683224157850484E-055
   70.7750000000000         4.239748473708231E-055
   70.9650000000000         4.432708939232771E-055
   71.1550000000000         4.063357257110249E-055
   71.3450000000000         2.924588039054740E-055
   71.5350000000000         8.283347001233452E-056
   71.7250000000000        -2.357247499789009E-055
   71.9150000000000        -6.661982560613525E-055
   72.1050000000000        -1.196229084219132E-054
   72.2950000000000        -1.792949694753857E-054
   72.4850000000000        -2.398555544953536E-054
   72.6750000000000        -2.927629952402300E-054
   72.8650000000000        -3.267422154597731E-054
   73.0550000000000        -3.282371878485084E-054
   73.2450000000000        -2.824110027127758E-054
   73.4350000000000        -1.747885227313723E-054
   73.6250000000000         6.418361794638765E-056
   73.8150000000000         2.673484007455238E-054
   74.0050000000000         6.050537418773464E-054
   74.1950000000000         1.003893714233329E-053
   74.3850000000000         1.432226616490295E-053
   74.5750000000000         1.840028021861542E-053
   74.7650000000000         2.158201944330010E-053
   74.9550000000000         2.300434204445098E-053
   75.1450000000000         2.168429089060328E-053
   75.3350000000000         1.661232477172361E-053
   75.5250000000000         6.890414130167985E-054
   75.7150000000000        -8.085945405957467E-054
   75.9050000000000        -2.840969799192390E-053
   76.0950000000000        -5.342484839424401E-053
   76.2850000000000        -8.149651139686131E-053
   76.4750000000000        -1.098256400539183E-052
   76.6650000000000        -1.343551580976481E-052
   76.8550000000000        -1.498208705135204E-052
   77.0450000000000        -1.500021692411406E-052
   77.2350000000000        -1.282218234878009E-052
   77.4250000000000        -7.812876435812526E-053
   77.6150000000000         5.229091006751292E-054
   77.8050000000000         1.240742101736273E-052
   77.9950000000000         2.763944603519196E-052
   78.1850000000000         4.544079643837574E-052
   78.3750000000000         6.432075032791097E-052
   78.5650000000000         8.198570116551461E-052
   78.7550000000000         9.532627732347900E-052
   78.9450000000000         1.005166753041363E-051
   79.1350000000000         9.325951256888321E-052
   79.3250000000000         6.920273328572752E-052
   79.5150000000000         2.454175426046582E-052
   79.7050000000000        -4.320069929641636E-052
   79.8950000000000        -1.342528622228473E-051
   80.0850000000000        -2.456009590432007E-051
   80.2750000000000        -3.700349687714759E-051
   80.4650000000000        -4.953832172317456E-051
   80.6550000000000        -6.041215813569984E-051
   80.8450000000000        -6.735676475606496E-051
   81.0350000000000        -6.768757335937231E-051
   81.2250000000000        -5.850268751396567E-051
   81.4150000000000        -3.699507097407917E-051
   81.6050000000000        -8.817311106271895E-053
   81.7950000000000         5.106067891242773E-051
   81.9850000000000         1.183831364003713E-050
   82.1750000000000         1.983259661478722E-050
   82.3650000000000         2.852307928768847E-050
   82.5550000000000         3.701022725550711E-050
   82.7450000000000         4.404390752719322E-050
   82.9350000000000         4.804655805007999E-050
   83.1250000000000         4.718951255273248E-050
   83.3150000000000         3.953376071479464E-050
   83.5050000000000         2.324243862776176E-050
   83.6950000000000        -3.134145541254002E-051
   83.8850000000000        -4.030926522045204E-050
   84.0750000000000        -8.786620598855555E-050
   84.2650000000000        -1.438537739796653E-049
   84.4550000000000        -2.044187151003952E-049
   84.6450000000000        -2.635367571761103E-049
   84.8350000000000        -3.129153479611166E-049
   85.0250000000000        -3.421476228688000E-049
   85.2150000000000        -3.391960440663970E-049
   85.4050000000000        -2.912728125408102E-049
   85.5950000000000        -1.861601489899288E-049
   85.7850000000000        -1.397512543458283E-050
   85.9750000000000         2.306697011037199E-049
   86.1650000000000         5.462260385654108E-049
   86.3550000000000         9.216845336921600E-049
   86.5450000000000         1.334242641313586E-048
   86.7350000000000         1.747524866888468E-048
   86.9250000000000         2.110781813663173E-048
   87.1150000000000         2.359534975193451E-048
   87.3050000000000         2.418133382193626E-048
   87.4950000000000         2.204631140131562E-048
   87.6850000000000         1.638268037977041E-048
   87.8750000000000         6.496286622496676E-049
   88.0650000000000        -8.067354568536457E-049
   88.2550000000000        -2.737807092113875E-048
   88.4450000000000        -5.096750415744451E-048
   88.6350000000000        -7.768199654236055E-048
   88.8250000000000        -1.055615345768554E-047
   89.0150000000000        -1.317684653128134E-047
   89.2050000000000        -1.525924748169337E-047
   89.3950000000000        -1.635590117862147E-047
   89.5850000000000        -1.596661380956044E-047
   89.7750000000000        -1.357689262950007E-047
   89.9650000000000        -8.712038834469490E-048
   90.1550000000000        -1.006317159781245E-048
   90.3450000000000         9.715303351587050E-048
   90.5350000000000         2.334766551028022E-047
   90.7250000000000         3.941561453250391E-047
   90.9150000000000         5.699393622611233E-047
   91.1050000000000         7.464956138086935E-047
   91.2950000000000         9.042044146363734E-047
   91.4850000000000         1.018464233806205E-046
   91.6750000000000         1.060669741125130E-046
   91.8650000000000         9.999830132354737E-047
   92.0550000000000         8.059791344605321E-047
   92.2450000000000         4.521771097758701E-047
   92.4350000000000        -7.962764426925262E-048
   92.6250000000000        -7.944308189220726E-047
   92.8150000000000        -1.678824228937337E-046
   93.0050000000000        -2.696020850696078E-046
   93.1950000000000        -3.781723673152737E-046
   93.3850000000000        -4.841582785608265E-046
   93.5750000000000        -5.751064877331511E-046
   93.7650000000000        -6.358575639889729E-046
   93.9550000000000        -6.492605304658387E-046
   94.1450000000000        -5.973489338917737E-046
   94.3350000000000        -4.630073484893881E-046
   94.5250000000000        -2.321136264915376E-046
   94.7150000000000         1.039144090213036E-046
   94.9050000000000         5.453069244842746E-046
   95.0950000000000         1.081079088473128E-045
   95.2850000000000         1.686408661234883E-045
   95.4750000000000         2.320616869708062E-045
   95.6650000000000         2.926170848297080E-045
   95.8550000000000         3.429154736839688E-045
   96.0450000000000         3.741646682469571E-045
   96.2350000000000         3.766378898153929E-045
   96.4250000000000         3.403937652767863E-045
   96.6150000000000         2.562572943373189E-045
   96.8050000000000         1.170432018432970E-045
   96.9950000000000        -8.102878786238901E-046
   97.1850000000000        -3.368140466026851E-045
   97.3750000000000        -6.427452331564574E-045
   97.5650000000000        -9.835219662391080E-045
   97.7550000000000        -1.335186887464914E-044
   97.9450000000000        -1.664810190257271E-044
   98.1350000000000        -1.931011746738132E-044
   98.3250000000000        -2.085535044920710E-044
   98.5150000000000        -2.076044879765926E-044
   98.7050000000000        -1.850246968425241E-044
   98.8950000000000        -1.361320268057725E-044
   99.0850000000000        -5.745125511436145E-045
   99.2750000000000         5.254187572450342E-045
   99.4650000000000         1.926426460610544E-044
   99.6550000000000         3.581753900385306E-044
   99.8450000000000         5.403756365475315E-044
   100.035000000000         7.259989615332558E-044
   100.225000000000         8.972675139004104E-044
   100.415000000000         1.032264603697235E-043
   100.605000000000         1.105875566151377E-043
   100.795000000000         1.091347073165029E-043
   100.985000000000         9.624956486827754E-044
   101.175000000000         6.965389923065918E-044
   101.365000000000         2.774519837471609E-044
   101.555000000000        -3.003340622548437E-044
   101.745000000000        -1.028160099780847E-043
   101.935000000000        -1.879656209144361E-043
   102.125000000000        -2.807985663961266E-043
   102.315000000000        -3.744312966494642E-043
   102.505000000000        -4.598017052123681E-043
   102.695000000000        -5.259149806917744E-043
   102.885000000000        -5.603562319809686E-043
   103.075000000000        -5.500978253396731E-043
   103.265000000000        -4.826080830991849E-043
   103.455000000000        -3.472398415118870E-043
   103.645000000000        -1.368431961833296E-043
   103.835000000000         1.504917304737427E-043
   104.025000000000         5.096963792956953E-043
   104.215000000000         9.271625025031249E-043
   104.405000000000         1.379563175180239E-042
   104.595000000000         1.833282435137749E-042
   104.785000000000         2.244684919225735E-042
   104.975000000000         2.561440553411296E-042
   105.165000000000         2.725077369049165E-042
   105.355000000000         2.674864815024213E-042
   105.545000000000         2.353029445439193E-042
   105.735000000000         1.711176131040348E-042
   105.925000000000         7.176356873042941E-043
   106.115000000000        -6.347076812516038E-043
   106.305000000000        -2.320726443937706E-042
   106.495000000000        -4.276273023246541E-042
   106.685000000000        -6.393219475279670E-042
   106.875000000000        -8.517292725135656E-042
   107.065000000000        -1.044968779389078E-041
   107.255000000000        -1.195335215104763E-041
   107.445000000000        -1.276463605054297E-041
   107.635000000000        -1.261068605731772E-041
   107.825000000000        -1.123252007426657E-041
   108.015000000000        -8.413171094006699E-042
   108.205000000000        -4.009645598585669E-042
   108.395000000000         2.013252815675482E-042
   108.585000000000         9.549882742955083E-042
   108.775000000000         1.832479331401925E-041
   108.965000000000         2.787160969841759E-041
   109.155000000000         3.752384785924622E-041
   109.345000000000         4.642171346408303E-041
   109.535000000000         5.353854461114291E-041
   109.725000000000         5.772972276621927E-041
   109.915000000000         5.780556340299294E-041
   110.105000000000         5.262790360555684E-041