  -1.42500000000000         0.000000000000000E+000
  -1.23500000000000         0.000000000000000E+000
  -1.04500000000000         0.000000000000000E+000
 -0.855000000000000         0.000000000000000E+000
 -0.665000000000000         0.000000000000000E+000
 -0.475000000000000         0.000000000000000E+000
 -0.285000000000000         0.000000000000000E+000
 -9.499999999999975E-002    0.000000000000000E+000
  9.500000000000020E-002    0.000000000000000E+000
  0.285000000000000         0.000000000000000E+000
  0.475000000000000         0.000000000000000E+000
  0.665000000000000         0.000000000000000E+000
  0.855000000000000         0.000000000000000E+000
   1.04500000000000         0.000000000000000E+000
   1.23500000000000         0.000000000000000E+000
   1.42500000000000         0.000000000000000E+000
   1.61500000000000         0.000000000000000E+000
   1.80500000000000         0.000000000000000E+000
   1.99500000000000         0.000000000000000E+000
   2.18500000000000         0.000000000000000E+000
   2.37500000000000         0.000000000000000E+000
   2.56500000000000         0.000000000000000E+000
   2.75500000000000         0.000000000000000E+000
   2.94500000000000         0.000000000000000E+000
   3.13500000000000         0.000000000000000E+000
   3.32500000000000         0.000000000000000E+000
   3.51500000000000         0.000000000000000E+000
   3.70500000000000         0.000000000000000E+000
   3.89500000000000         0.000000000000000E+000
   4.08500000000000         0.000000000000000E+000
   4.27500000000000         0.000000000000000E+000
   4.46500000000000         0.000000000000000E+000
   4.65500000000000         0.000000000000000E+000
   4.84500000000000         0.000000000000000E+000
   5.03500000000000         0.000000000000000E+000
   5.22500000000000         0.000000000000000E+000
   5.41500000000000         0.000000000000000E+000
   5.60500000000000         3.884669275398541E-159
   5.79500000000000        -1.362474597604179E-154
   5.98500000000000         1.448375771579521E-152
   6.17500000000000        -2.932511995076091E-151
   6.36500000000000         1.567375298225579E-149
   6.55500000000000         2.833044525383004E-131
   6.74500000000000         4.245559404839944E-129
   6.93500000000000         2.344406401991843E-127
   7.12500000000000         7.489095918893288E-126
   7.31500000000000         1.655210127750339E-124
   7.50500000000000         2.761218854158728E-123
   7.69500000000000         3.622054057577559E-122
   7.88500000000000         3.761454752663794E-121
   8.07500000000000         2.965543105837685E-120
   8.26500000000000         1.432654905620054E-119
   8.45500000000000        -3.314597357296581E-119
   8.64500000000000        -1.786861068543030E-117
   8.83500000000000        -2.606003347903767E-116
   9.02500000000000        -2.756390696740424E-115
   9.21500000000000        -2.421807597661483E-114
   9.40500000000000        -1.857818139313164E-113
   9.59500000000000        -1.276150783009062E-112
   9.78500000000000        -7.970181845398310E-112
   9.97500000000000        -4.572574966656975E-111
   10.1650000000000        -2.427596779436516E-110
   10.3550000000000        -1.199184541518880E-109
   10.5450000000000        -5.534229545331000E-109
   10.7350000000000        -2.393135298520000E-108
   10.9250000000000        -9.715019414330258E-108
   11.1150000000000        -3.705476512978298E-107
   11.3050000000000        -1.327283811895498E-106
   11.4950000000000        -4.454798619364462E-106
   11.6850000000000        -1.393992731183450E-105
   11.8750000000000        -4.026661886373962E-105
   12.0650000000000        -1.052275465984124E-104
   12.2550000000000        -2.375267510554802E-104
   12.4450000000000        -4.015496814531509E-104
   12.6350000000000        -1.290610664733885E-104
   12.8250000000000         2.946857648468748E-103
   13.0150000000000         1.818731207211746E-102
   13.2050000000000         7.811315649591130E-102
   13.3950000000000         2.862176684068356E-101
   13.5850000000000         9.503777518377307E-101
   13.7750000000000         2.936639176393564E-100
   13.9650000000000         8.565227741728981E-100
   14.1550000000000         2.378518104966898E-099
   14.3450000000000         6.324412334379319E-099
   14.5350000000000         1.616600659681172E-098
   14.7250000000000         3.983881652993228E-098
   14.9150000000000         9.485582088726729E-098
   15.1050000000000         2.185626277908719E-097
   15.2950000000000         4.879343121522186E-097
   15.4850000000000         1.056298716836495E-096
   15.6750000000000         2.218597000349991E-096
   15.8650000000000         4.521913624176361E-096
   16.0550000000000         8.942315110176873E-096
   16.2450000000000         1.714780671588560E-095
   16.4350000000000         3.184971486129967E-095
   16.6250000000000         5.718914605683604E-095
   16.8150000000000         9.896992825212475E-095
   17.0050000000000         1.642604679798554E-094
   17.1950000000000         2.593174851597104E-094
   17.3850000000000         3.837258943276507E-094
   17.5750000000000         5.167683088976534E-094
   17.7650000000000         5.888180390214454E-094
   17.9550000000000         4.252075243432328E-094
   18.1450000000000        -3.586029828767092E-094
   18.3350000000000        -2.545332668830943E-093
   18.5250000000000        -7.643404774114218E-093
   18.7150000000000        -1.844103065632951E-092
   18.9050000000000        -3.992069609598064E-092
   19.0950000000000        -8.073445728055105E-092
   19.2850000000000        -1.555326109820894E-091
   19.4750000000000        -2.885606625664785E-091
   19.6650000000000        -5.190934711292196E-091
   19.8550000000000        -9.094559895166081E-091
   20.0450000000000        -1.556572823651854E-090
   20.2350000000000        -2.608171226070290E-090
   20.4250000000000        -4.284915557771400E-090
   20.6150000000000        -6.909899713933809E-090
   20.8050000000000        -1.094722168088531E-089
   20.9950000000000        -1.705226454270398E-089
   21.1850000000000        -2.613884916809205E-089
   21.3750000000000        -3.947465246811733E-089
   21.5650000000000        -5.882978265875701E-089
   21.7550000000000        -8.672973564037458E-089
   21.9450000000000        -1.269105855045966E-088
   22.1350000000000        -1.851489015064509E-088
   22.3250000000000        -2.707443519941728E-088
   22.5150000000000        -3.990550088701910E-088
   22.7050000000000        -5.955675704311389E-088
   22.8950000000000        -9.018807846873028E-088
   23.0850000000000        -1.383369171407242E-087
   23.2750000000000        -2.136535842799880E-087
   23.4650000000000        -3.289966002330261E-087
   23.6550000000000        -4.984250950044677E-087
   23.8450000000000        -7.299709872848464E-087
   24.0350000000000        -1.007043014933338E-086
   24.2250000000000        -1.247010982173861E-086
   24.4150000000000        -1.216606074692578E-086
   24.6050000000000        -3.693596286421031E-087
   24.7950000000000         2.452124064646270E-086
   24.9850000000000         9.539738877956813E-086
   25.1750000000000         2.520757285442987E-085
   25.3650000000000         5.724565772814984E-085
   25.5550000000000         1.192195516032868E-084
   25.7450000000000         2.339770273534012E-084
   25.9350000000000         4.387801282560424E-084
   26.1250000000000         7.924526360871639E-084
   26.3150000000000         1.384702232161077E-083
   26.5050000000000         2.347132314285824E-083
   26.6950000000000         3.864041571954381E-083
   26.8850000000000         6.178337214517127E-083
   27.0750000000000         9.582853755332206E-083
   27.2650000000000         1.437872156565788E-082
   27.4550000000000         2.076823769063049E-082
   27.6450000000000         2.862732949911825E-082
   27.8350000000000         3.706879758387193E-082
   28.0250000000000         4.365806672486052E-082
   28.2150000000000         4.307391712173043E-082
   28.4050000000000         2.491404405049643E-082
   28.5950000000000        -2.977188334228952E-082
   28.7850000000000        -1.537766600599003E-081
   28.9750000000000        -4.015568556132522E-081
   29.1650000000000        -8.604014741580156E-081
   29.3550000000000        -1.665811161603483E-080
   29.5450000000000        -3.021823882915572E-080
   29.7350000000000        -5.226584153861007E-080
   29.9250000000000        -8.702496805931060E-080
   30.1150000000000        -1.402855091491139E-079
   30.3050000000000        -2.196948129842156E-079
   30.4950000000000        -3.349191732251662E-079
   30.6850000000000        -4.975107550567592E-079
   30.8750000000000        -7.202243971805749E-079
   31.0650000000000        -1.015409564952256E-078
   31.2550000000000        -1.391956303900198E-078
   31.4450000000000        -1.850107678767603E-078
   31.6350000000000        -2.373282737263568E-078
   31.8250000000000        -2.915916905900400E-078
   32.0150000000000        -3.386275637035171E-078
   32.2050000000000        -3.623314115633093E-078
   32.3950000000000        -3.367055267493668E-078
   32.5850000000000        -2.222789179162505E-078
   32.7750000000000         3.791600661853725E-079
   32.9650000000000         5.224098801219093E-078
   33.1550000000000         1.334679481130278E-077
   33.3450000000000         2.604679076640641E-077
   33.5350000000000         4.486790292085360E-077
   33.7250000000000         7.151796547679191E-077
   33.9150000000000         1.076976880124336E-076
   34.1050000000000         1.548006796287302E-076
   34.2950000000000         2.134417833855711E-076
   34.4850000000000         2.827701074881273E-076
   34.6750000000000         3.595295912479809E-076
   34.8650000000000         4.368474495613842E-076
   35.0550000000000         5.027638564683448E-076
   35.2450000000000         5.385694102135098E-076
   35.4350000000000         5.170943916180400E-076
   35.6250000000000         4.011980656786663E-076
   35.8150000000000         1.428365947464973E-076
   36.0050000000000        -3.167612531299558E-076
   36.1950000000000        -1.045123593919333E-075
   36.3850000000000        -2.113940725491923E-075
   36.5750000000000        -3.590924003081776E-075
   36.7650000000000        -5.527199270146362E-075
   36.9550000000000        -7.939473229375420E-075
   37.1450000000000        -1.078658915739556E-074
   37.3350000000000        -1.394075473394150E-074
   37.5250000000000        -1.715473721392597E-074
   37.7150000000000        -2.002771133466288E-074
   37.9050000000000        -2.197419802756471E-074
   38.0950000000000        -2.220256129202198E-074
   38.2850000000000        -1.971165552181468E-074
   38.4750000000000        -1.331613975814059E-074
   38.6650000000000        -1.712276759601480E-075
   38.8550000000000         1.640382673993349E-074
   39.0450000000000         4.215523191623171E-074
   39.2350000000000         7.623420808681106E-074
   39.4250000000000         1.185841577028032E-073
   39.6150000000000         1.680247114099276E-073
   39.8050000000000         2.218450452497146E-073
   39.9950000000000         2.754070640226190E-073
   40.1850000000000         3.218184087517612E-073
   40.3750000000000         3.517536036990651E-073
   40.5650000000000         3.535179824025064E-073
   40.7550000000000         3.134612293202725E-073
   40.9450000000000         2.168539302237934E-073
   41.1350000000000         4.934125163519374E-074
   41.3250000000000        -2.009153815970556E-073
   41.5150000000000        -5.403007308075932E-073
   41.7050000000000        -9.659010668350374E-073
   41.8950000000000        -1.460625602038817E-072
   42.0850000000000        -1.987138587029211E-072
   42.2750000000000        -2.480416392823341E-072
   42.4650000000000        -2.838747642592888E-072
   42.6550000000000        -2.913106364317921E-072
   42.8450000000000        -2.495177289321273E-072
   43.0350000000000        -1.305096721249007E-072
   43.2250000000000         1.018536692500529E-072
   43.4150000000000         4.921299247949963E-072
   43.6050000000000         1.091924060638823E-071
   43.7950000000000         1.955432316245365E-071
   43.9850000000000         3.129732657455417E-071
   44.1750000000000         4.636827822386425E-071
   44.3650000000000         6.443646025747403E-071
   44.5550000000000         8.415690417704597E-071
   44.7450000000000         1.025023185651785E-070
   44.9350000000000         1.138649516342270E-070
   45.1250000000000         1.089404826185385E-070
   45.3150000000000         7.347601147567858E-071
   45.5050000000000        -1.292233960414419E-071
   45.6950000000000        -1.775601635140026E-070
   45.8850000000000        -4.544176704939220E-070
   46.0750000000000        -8.820429069055763E-070
   46.2650000000000        -1.498410027673938E-069
   46.4550000000000        -2.331296563425727E-069
   46.6450000000000        -3.382561800716399E-069
   46.8350000000000        -4.604776340140825E-069
   47.0250000000000        -5.869140582000743E-069
   47.2150000000000        -6.924763614614430E-069
   47.4050000000000        -7.351410964783257E-069
   47.5950000000000        -6.511024215709316E-069
   47.7850000000000        -3.507860739125062E-069
   47.9750000000000         2.826957965313108E-069
   48.1650000000000         1.390358937034706E-068
   48.3550000000000         3.126376171369957E-068
   48.5450000000000         5.635571942778455E-068
   48.7350000000000         9.015203099714350E-068
   48.9250000000000         1.325696599625640E-067
   49.1150000000000         1.816621099235508E-067
   49.3050000000000         2.325775862294420E-067
   49.4950000000000         2.763198877053525E-067
   49.6850000000000         2.984148046110103E-067
   49.8750000000000         2.776774746423638E-067
   50.0650000000000         1.853959171003191E-067
   50.2550000000000        -1.461147619660662E-068
   50.4450000000000        -3.644527420036738E-067
   50.6350000000000        -9.083771935635280E-067
   50.8250000000000        -1.685889726762201E-066
   51.0150000000000        -2.720891841067349E-066
   51.2050000000000        -4.006110329626938E-066
   51.3950000000000        -5.482427573932432E-066
   51.5850000000000        -7.013377979096898E-066
   51.7750000000000        -8.356099807257398E-066
   51.9650000000000        -9.131491796640152E-066
   52.1550000000000        -8.798247077630079E-066
   52.3450000000000        -6.637793286670172E-066
   52.5350000000000        -1.759842302623989E-066
   52.7250000000000         6.858985938642908E-066
   52.9150000000000         2.028853330647384E-065
   53.1050000000000         3.949391666958788E-065
   53.2950000000000         6.510321953875767E-065
   53.4850000000000         9.708004435743001E-065
   53.6750000000000         1.342931638300993E-064
   53.8650000000000         1.739867663444540E-064
   54.0550000000000         2.111723952925875E-064
   54.2450000000000         2.379888951441832E-064
   54.4350000000000         2.431104547090476E-064
   54.6250000000000         2.113255226122866E-064
   54.8150000000000         1.234602643763879E-064
   55.0050000000000        -4.312296737874944E-065
   55.1950000000000        -3.131635974295378E-064
   55.3850000000000        -7.109371544141541E-064
   55.5750000000000        -1.256112988648999E-063
   55.7650000000000        -1.957665485511569E-063
   55.9550000000000        -2.805531510154285E-063
   56.1450000000000        -3.759859366051791E-063
   56.3350000000000        -4.737973833465670E-063
   56.5250000000000        -5.599629362133091E-063
   56.7150000000000        -6.131781267822348E-063
   56.9050000000000        -6.035008006299769E-063
   57.0950000000000        -4.914882819944448E-063
   57.2850000000000        -2.283001141596024E-063
   57.4750000000000         2.426056514500821E-063
   57.6650000000000         9.813972087540361E-063
   57.8550000000000         2.044500098114459E-062
   58.0450000000000         3.472962011013686E-062
   58.2350000000000         5.275652543145310E-062
   58.4250000000000         7.406683301749697E-062
   58.6150000000000         9.737022056448809E-062
   58.8050000000000         1.202126893578389E-061
   58.9950000000000         1.386205888362537E-061
   59.1850000000000         1.467661988539244E-061
   59.3750000000000         1.367265683708926E-061
   59.5650000000000         9.843848545302427E-062
   59.7550000000000         1.998587590288247E-062
   59.9450000000000        -1.116130274900694E-061
   60.1350000000000        -3.089299661256538E-061
   60.3250000000000        -5.817719552678473E-061
   60.5150000000000        -9.337884231320471E-061
   60.7050000000000        -1.357960676244199E-060
   60.8950000000000        -1.831038783292283E-060
   61.0850000000000        -2.307215640359770E-060
   61.2750000000000        -2.711642771251644E-060
   61.4650000000000        -2.934797307355566E-060
   61.6550000000000        -2.829188269086736E-060
   61.8450000000000        -2.210403118598240E-060
   62.0350000000000        -8.649726672343123E-061
   62.2250000000000         1.432132040066716E-060
   62.4150000000000         4.887507543835881E-060
   62.6050000000000         9.644383012600654E-060
   62.7950000000000         1.572138038412826E-059
   62.9850000000000         2.293556859508552E-059
   63.1750000000000         3.081342107181479E-059
   63.3650000000000         3.849743566243005E-059
   63.5550000000000         4.466141084312406E-059
   63.7450000000000         4.745341657007821E-059
   63.9350000000000         4.449178162026646E-059
   64.1250000000000         3.294500682488806E-059
   64.3150000000000         9.730064595183240E-060
   64.5050000000000        -2.813668143725771E-059
   64.6950000000000        -8.300777050730922E-059
   64.8850000000000        -1.558781049559190E-058
   65.0750000000000        -2.454737574606755E-058
   65.2650000000000        -3.472021201430739E-058
   65.4550000000000        -4.520571178769808E-058
   65.6450000000000        -5.456313571873972E-058
   65.8350000000000        -6.074516219953315E-058
   66.0250000000000        -6.109178180292869E-058
   66.2150000000000        -5.241773784527455E-058
   66.4050000000000        -3.122925411544251E-058
   66.5950000000000         5.896127492444013E-059
   66.7850000000000         6.174116676994989E-058
   66.9750000000000         1.376834257286868E-057
   67.1650000000000         2.327510308160723E-057
   67.3550000000000         3.425559619790806E-057
   67.5450000000000         4.582094113908581E-057
   67.7350000000000         5.653799346536275E-057
   67.9250000000000         6.437141718449213E-057
   68.1150000000000         6.668938282688916E-057
   68.3050000000000         6.036401816355922E-057
   68.4950000000000         4.199844899322834E-057
   68.6850000000000         8.308307035057797E-058
   68.8750000000000        -4.332472649024606E-057
   69.0650000000000        -1.141279153330506E-056
   69.2550000000000        -2.030685139866268E-056
   69.4450000000000        -3.059041480063149E-056
   69.6350000000000        -4.142590617116082E-056
   69.8250000000000        -5.148803100064540E-056
   70.0150000000000        -5.892744180078983E-056
   70.2050000000000        -6.139625886603014E-056
   70.3950000000000        -5.616111020193289E-056
   70.5850000000000        -4.032812130103798E-056
   70.7750000000000        -1.119869319030280E-056
   70.9650000000000         3.323622691051907E-056
   71.1550000000000         9.367322628197126E-056
   71.3450000000000         1.687789453515915E-055
   71.5350000000000         2.544424272421992E-055
   71.7250000000000         3.430961974002524E-055
   71.9150000000000         4.232403040840670E-055
   72.1050000000000         4.793346537240670E-055
   72.2950000000000         4.922451334237561E-055
   72.4850000000000         4.404301291428311E-055
   72.6750000000000         3.020272696890835E-055
   72.8650000000000         5.793696895361284E-056
   73.0550000000000        -3.041072715628359E-055
   73.2450000000000        -7.846451368925963E-055
   73.4350000000000        -1.367133374201668E-054
   73.6250000000000        -2.012720268216766E-054
   73.8150000000000        -2.655990133623998E-054
   74.0050000000000        -3.202747226362098E-054
   74.1950000000000        -3.531079918282476E-054
   74.3850000000000        -3.497006979364621E-054
   74.5750000000000        -2.945900231893769E-054
   74.7650000000000        -1.730543368530902E-054
   74.9550000000000         2.639243967350992E-055
   75.1450000000000         3.088848909805783E-054
   75.3350000000000         6.696576324027241E-054
   75.5250000000000         1.090400866250793E-053
   75.7150000000000         1.536018495108767E-053
   75.9050000000000         1.952445861051235E-053
   76.0950000000000         2.266314217242858E-053
   76.2850000000000         2.387318870731260E-053
   76.4750000000000         2.214121118076993E-053
   76.6650000000000         1.644452804828080E-053
   76.8550000000000         5.897623708466582E-054
   77.0450000000000        -1.005781405688573E-053
   77.2350000000000        -3.142833013184322E-053
   77.4250000000000        -5.742765403471031E-053
   77.6150000000000        -8.624742633090572E-053
   77.8050000000000        -1.148784284417574E-052
   77.9950000000000        -1.390303515653412E-052
   78.1850000000000        -1.532044346702206E-052
   78.3750000000000        -1.509743902608464E-052
   78.5650000000000        -1.255245549830964E-052
   78.7550000000000        -7.047788158459558E-053
   78.9450000000000         1.898157792768119E-053
   79.1350000000000         1.447275572247512E-052
   79.3250000000000         3.041402205591879E-052
   79.5150000000000         4.885350706097724E-052
   79.7050000000000         6.817894939483852E-052
   79.8950000000000         8.594484648409908E-052
   80.0850000000000         9.886421524711493E-052
   80.2750000000000         1.029173893886713E-051
   80.4650000000000         9.361230115757730E-052
   80.6550000000000         6.642387878441727E-052
   80.8450000000000         1.742666732426964E-052
   81.0350000000000        -5.588633621281741E-052
   81.2250000000000        -1.536345537326379E-051
   81.4150000000000        -2.725022414449999E-051
   81.6050000000000        -4.047251497790048E-051
   81.7950000000000        -5.372663630439458E-051
   81.9850000000000        -6.513746712215003E-051
   82.1750000000000        -7.227466671585211E-051
   82.3650000000000        -7.225229893161599E-051
   82.5550000000000        -6.193309952452435E-051
   82.7450000000000        -3.825320807819461E-051
   82.9350000000000         1.326533985451856E-052
   83.1250000000000         5.825108350517722E-051
   83.3150000000000         1.322110470564390E-050
   83.5050000000000         2.204426982257416E-050
   83.6950000000000         3.170648697396663E-050
   83.8850000000000         4.125556147131982E-050
   84.0750000000000         4.934947149421470E-050
   84.2650000000000         5.427141148092270E-050
   84.4550000000000         5.400023022696481E-050
   84.6450000000000         4.634953335788267E-050
   84.8350000000000         2.918515955474292E-050
   85.0250000000000         7.245416902068672E-052
   85.2150000000000        -4.008760535989287E-050
   85.4050000000000        -9.314472960078956E-050
   85.5950000000000        -1.567168023744095E-049
   85.7850000000000        -2.270092565265658E-049
   85.9750000000000        -2.978062127069106E-049
   86.1650000000000        -3.602759926774112E-049
   86.3550000000000        -4.030270126557002E-049
   86.5450000000000        -4.125052209677024E-049
   86.7350000000000        -3.738172699282843E-049
   86.9250000000000        -2.720436711941923E-049
   87.1150000000000        -9.407084898685983E-050
   87.3050000000000         1.690811858249563E-049
   87.4950000000000         5.195278357339623E-049
   87.6850000000000         9.495616698017179E-049
   87.8750000000000         1.438736980040444E-048
   88.0650000000000         1.951363884986384E-048
   88.2550000000000         2.434867639939906E-048
   88.4450000000000         2.819536558868119E-048
   88.6350000000000         3.020212787787957E-048
   88.8250000000000         2.940457009189872E-048
   89.0150000000000         2.479624090769341E-048
   89.2050000000000         1.543107012569551E-048
   89.3950000000000         5.573110028063271E-050
   89.5850000000000        -2.022092844556522E-048
   89.7750000000000        -4.676311547918809E-048
   89.9650000000000        -7.820656075206044E-048
   90.1550000000000        -1.127950520441763E-047
   90.3450000000000        -1.477468238309732E-047
   90.5350000000000        -1.791913711078471E-047
   90.7250000000000        -2.022074111355100E-047
   90.9150000000000        -2.109944143169388E-047
   91.1050000000000        -1.992066065207412E-047
   91.2950000000000        -1.604703070660497E-047
   91.4850000000000        -8.909222824298510E-048
   91.6750000000000         1.905240942048343E-048
   91.8650000000000         1.654872247385692E-047
   92.0550000000000         3.480214268344555E-047
   92.2450000000000         5.596514756843671E-047
   92.4350000000000         7.876051181971876E-047
   92.6250000000000         1.012684202751888E-046
   92.8150000000000         1.209084334743502E-046
   93.0050000000000         1.344878912070477E-046
   93.1950000000000         1.383347136687325E-046
   93.3850000000000         1.285295136703359E-046
   93.5750000000000         1.012461998158934E-046
   93.7650000000000         5.320154175428413E-047
   93.9550000000000        -1.779757436732698E-047
   94.1450000000000        -1.122349956387549E-046
   94.3350000000000        -2.282367134236759E-046
   94.5250000000000        -3.609529964890637E-046
   94.7150000000000        -5.020485814707961E-046
   94.9050000000000        -6.393928562868596E-046
   95.0950000000000        -7.570515511290406E-046
   95.2850000000000        -8.356832908773418E-046
   95.4750000000000        -8.534356779550637E-046
   95.6650000000000        -7.874137960363245E-046
   95.8550000000000        -6.157571464940607E-046
   96.0450000000000        -3.203080109518839E-046
   96.2350000000000         1.102145698274441E-046
   96.4250000000000         6.767034288301287E-046
   96.6150000000000         1.366074437097734E-045
   96.8050000000000         2.147954328621110E-045
   96.9950000000000         2.972086816009918E-045
   97.1850000000000         3.766967910980401E-045
   97.3750000000000         4.440259135127317E-045
   97.5650000000000         4.881519330104750E-045
   97.7550000000000         4.967728095269868E-045
   97.9450000000000         4.571934394060150E-045
   98.1350000000000         3.575144214167558E-045
   98.3250000000000         1.881258793702500E-045
   98.5150000000000        -5.655047779789345E-046
   98.7050000000000        -3.761720551255867E-045
   98.8950000000000        -7.625875480134313E-045
   99.0850000000000        -1.198146702578160E-044
   99.2750000000000        -1.654445760239172E-044
   99.4650000000000        -2.091777200763640E-044
   99.6550000000000        -2.459564646060067E-044
   99.8450000000000        -2.698050775552584E-044
   100.035000000000        -2.741461300251442E-044
   100.225000000000        -2.522786199836794E-044
   100.415000000000        -1.980197526904099E-044
   100.605000000000        -1.064961332036702E-044
   100.795000000000         2.494959422113425E-045
   100.985000000000         1.957929509871962E-044
   101.175000000000         4.013824006707063E-044
   101.365000000000         6.321169079764845E-044
   101.555000000000         8.728674318955351E-044
   101.745000000000         1.102775896167186E-043
   101.935000000000         1.295567780836748E-043
   102.125000000000         1.420504076356199E-043
   102.315000000000         1.444072089406648E-043
   102.505000000000         1.332470404366641E-043
   102.695000000000         1.054880303744968E-043
   102.885000000000         5.874348950935652E-044
   103.075000000000        -8.229911330296752E-045
   103.265000000000        -9.506184366471219E-044
   103.455000000000        -1.993159277990082E-043
   103.645000000000        -3.161053702118834E-043
   103.835000000000        -4.378348520069765E-043
   104.025000000000        -5.541315823319680E-043
   104.215000000000        -6.520282733643847E-043
   104.405000000000        -7.164543980564388E-043
   104.595000000000        -7.310782921244857E-043
   104.785000000000        -6.795206902840604E-043
   104.975000000000        -5.469299628595855E-043
   105.165000000000        -3.218712314569632E-043
   105.355000000000         1.562792968333996E-045
   105.545000000000         4.215594372160052E-043
   105.735000000000         9.265004444440315E-043
   105.925000000000         1.493214910002614E-042
   106.115000000000         2.085836023872882E-042
   106.305000000000         2.655544190449966E-042
   106.495000000000         3.141474132400899E-042
   106.685000000000         3.473030618212633E-042
   106.875000000000         3.573791880966771E-042
   107.065000000000         3.367078876343513E-042
   107.255000000000         2.783132142360796E-042
   107.445000000000         1.767669395725260E-042
   107.635000000000         2.914032876651224E-043
   107.825000000000        -1.640108587064185E-042
   108.015000000000        -3.977114436474515E-042
   108.205000000000        -6.617835762378483E-042
   108.395000000000        -9.403305294391402E-042
   108.585000000000        -1.211609639975843E-041
   108.775000000000        -1.448413673810478E-041
   108.965000000000        -1.619065203781504E-041
   109.155000000000        -1.689100222741242E-041
   109.345000000000        -1.623674150929101E-041
   109.535000000000        -1.390665693511621E-041
   109.725000000000        -9.643830900479146E-042
   109.915000000000        -3.296961873981567E-042
   110.105000000000         5.136687991364054E-042