  -1.42500000000000         0.000000000000000E+000
  -1.23500000000000         0.000000000000000E+000
  -1.04500000000000         0.000000000000000E+000
 -0.855000000000000         0.000000000000000E+000
 -0.665000000000000         0.000000000000000E+000
 -0.475000000000000         0.000000000000000E+000
 -0.285000000000000         0.000000000000000E+000
 -9.499999999999975E-002    0.000000000000000E+000
  9.500000000000020E-002    0.000000000000000E+000
  0.285000000000000         0.000000000000000E+000
  0.475000000000000         0.000000000000000E+000
  0.665000000000000         0.000000000000000E+000
  0.855000000000000         0.000000000000000E+000
   1.04500000000000         0.000000000000000E+000
   1.23500000000000         0.000000000000000E+000
   1.42500000000000         0.000000000000000E+000
   1.61500000000000         0.000000000000000E+000
   1.80500000000000         0.000000000000000E+000
   1.99500000000000         0.000000000000000E+000
   2.18500000000000         0.000000000000000E+000
   2.37500000000000         0.000000000000000E+000
   2.56500000000000         0.000000000000000E+000
   2.75500000000000         0.000000000000000E+000
   2.94500000000000         0.000000000000000E+000
   3.13500000000000         0.000000000000000E+000
   3.32500000000000         0.000000000000000E+000
   3.51500000000000         0.000000000000000E+000
   3.70500000000000         0.000000000000000E+000
   3.89500000000000         0.000000000000000E+000
   4.08500000000000         0.000000000000000E+000
   4.27500000000000         0.000000000000000E+000
   4.46500000000000         0.000000000000000E+000
   4.65500000000000         0.000000000000000E+000
   4.84500000000000         0.000000000000000E+000
   5.03500000000000         0.000000000000000E+000
   5.22500000000000         0.000000000000000E+000
   5.41500000000000         0.000000000000000E+000
   5.60500000000000         0.000000000000000E+000
   5.79500000000000         0.000000000000000E+000
   5.98500000000000         0.000000000000000E+000
   6.17500000000000         0.000000000000000E+000
   6.36500000000000         0.000000000000000E+000
   6.55500000000000         0.000000000000000E+000
   6.74500000000000         7.054954904899439E-188
   6.93500000000000         3.449544806626111E-176
   7.12500000000000         2.615465928002457E-174
   7.31500000000000         9.726582517426250E-173
   7.50500000000000         2.412917595108838E-171
   7.69500000000000         4.618098047995601E-170
   7.88500000000000         7.522842555471762E-169
   8.07500000000000         1.116375998535428E-167
   8.26500000000000         1.557844480173604E-166
   8.45500000000000         2.040921802334924E-165
   8.64500000000000         2.469082062742981E-164
   8.83500000000000         2.717449954692990E-163
   9.02500000000000         2.698976161524056E-162
   9.21500000000000         2.412464804377421E-161
   9.40500000000000         1.939854633347160E-160
   9.59500000000000         1.402155582879987E-159
   9.78500000000000         9.077296197178295E-159
   9.97500000000000         5.209141455433224E-158
   10.1650000000000         2.582534410194465E-157
   10.3550000000000         1.030670893630184E-156
   10.5450000000000         2.464245283909187E-156
   10.7350000000000        -7.260283218198150E-156
   10.9250000000000        -1.536155325928880E-154
   11.1150000000000        -1.370544272601207E-153
   11.3050000000000        -9.509926792642411E-153
   11.4950000000000        -5.724210156205816E-152
   11.6850000000000        -3.112547470392072E-151
   11.8750000000000        -1.559170816597825E-150
   12.0650000000000        -7.272965295310834E-150
   12.2550000000000        -3.178238002656103E-149
   12.4450000000000        -1.304930253335371E-148
   12.6350000000000        -5.035505999209078E-148
   12.8250000000000        -1.821421303684493E-147
   13.0150000000000        -6.133389757365746E-147
   13.2050000000000        -1.894844265091669E-146
   13.3950000000000        -5.201089105684448E-146
   13.5850000000000        -1.164462841652181E-145
   13.7750000000000        -1.434904009723568E-145
   13.9650000000000         4.600424758551447E-145
   14.1550000000000         4.816343348943697E-144
   14.3450000000000         2.660350748147495E-143
   14.5350000000000         1.196866516095836E-142
   14.7250000000000         4.808166260419052E-142
   14.9150000000000         1.787264946588285E-141
   15.1050000000000         6.256295851153400E-141
   15.2950000000000         2.083065534394815E-140
   15.4850000000000         6.637747450030269E-140
   15.6750000000000         2.032337985798345E-139
   15.8650000000000         5.994479710440337E-139
   16.0550000000000         1.706031424893183E-138
   16.2450000000000         4.688888384274026E-138
   16.4350000000000         1.244721819383747E-137
   16.6250000000000         3.189825091921446E-137
   16.8150000000000         7.880963080675282E-137
   17.0050000000000         1.872759591470389E-136
   17.1950000000000         4.263714291853248E-136
   17.3850000000000         9.241627979552938E-136
   17.5750000000000         1.886726106944321E-135
   17.7650000000000         3.557230498583657E-135
   17.9550000000000         5.939393939424054E-135
   18.1450000000000         7.803303298703285E-135
   18.3350000000000         3.778966297588285E-135
   18.5250000000000        -2.319088347525183E-134
   18.7150000000000        -1.198183701101101E-133
   18.9050000000000        -4.021876116441718E-133
   19.0950000000000        -1.137538454022823E-132
   19.2850000000000        -2.900574005673632E-132
   19.4750000000000        -6.847614643422209E-132
   19.6650000000000        -1.514753701705904E-131
   19.8550000000000        -3.155906216923445E-131
   20.0450000000000        -6.200913314989543E-131
   20.2350000000000        -1.148172020828134E-130
   20.4250000000000        -2.002413625486894E-130
   20.6150000000000        -3.307333106072709E-130
   20.8050000000000        -5.315349815510948E-130
   20.9950000000000        -9.001990428296184E-130
   21.1850000000000        -1.840949960935389E-129
   21.3750000000000        -4.839101687134549E-129
   21.5650000000000        -1.475195472208937E-128
   21.7550000000000        -4.606891320917361E-128
   21.9450000000000        -1.389955610305407E-127
   22.1350000000000        -3.987380683738059E-127
   22.3250000000000        -1.087379598852970E-126
   22.5150000000000        -2.830659651173899E-126
   22.7050000000000        -7.067381245585322E-126
   22.8950000000000        -1.699490139288583E-125
   23.0850000000000        -3.949785395689602E-125
   23.2750000000000        -8.896679540886191E-125
   23.4650000000000        -1.946392291045105E-124
   23.6550000000000        -4.143003243828850E-124
   23.8450000000000        -8.590870224490185E-124
   24.0350000000000        -1.736979711460067E-123
   24.2250000000000        -3.426460930785532E-123
   24.4150000000000        -6.596489898578119E-123
   24.6050000000000        -1.239310129173067E-122
   24.7950000000000        -2.271315338206042E-122
   24.9850000000000        -4.057440000663519E-122
   25.1750000000000        -7.055290314376683E-122
   25.3650000000000        -1.191655653204093E-121
   25.5550000000000        -1.948778915812582E-121
   25.7450000000000        -3.070334871397988E-121
   25.9350000000000        -4.623049330069631E-121
   26.1250000000000        -6.560684865893693E-121
   26.3150000000000        -8.541528519633460E-121
   26.5050000000000        -9.573947094070925E-121
   26.6950000000000        -7.370433837416704E-121
   26.8850000000000         2.768559476240630E-121
   27.0750000000000         2.979062683521465E-120
   27.2650000000000         8.976455927010262E-120
   27.4550000000000         2.101335683419843E-119
   27.6450000000000         4.355907287032725E-119
   27.8350000000000         8.354250534867333E-119
   28.0250000000000         1.511190664157382E-118
   28.2150000000000         2.601405112126112E-118
   28.4050000000000         4.275750750692852E-118
   28.5950000000000         6.703394020275595E-118
   28.7850000000000         9.966098343119905E-118
   28.9750000000000         1.386302513696584E-117
   29.1650000000000         1.751497600560533E-117
   29.3550000000000         1.861368893168213E-117
   29.5450000000000         1.206695496978291E-117
   29.7350000000000        -1.234783787933959E-117
   29.9250000000000        -7.389846784636543E-117
   30.1150000000000        -2.071947896014561E-116
   30.3050000000000        -4.719342447547389E-116
   30.4950000000000        -9.673363492081160E-116
   30.6850000000000        -1.852387277930786E-115
   30.8750000000000        -3.372171523678903E-115
   31.0650000000000        -5.888197828070290E-115
   31.2550000000000        -9.905338397270585E-115
   31.4450000000000        -1.607750627202762E-114
   31.6350000000000        -2.515494570607365E-114
   31.8250000000000        -3.780282699279101E-114
   32.0150000000000        -5.416671984483338E-114
   32.2050000000000        -7.297696067695310E-114
   32.3950000000000        -8.986236176279877E-114
   32.5850000000000        -9.437911674748610E-114
   32.7750000000000        -6.505902817583202E-114
   32.9650000000000         3.842751850727690E-114
   33.1550000000000         2.870373615261832E-113
   33.3450000000000         7.990040963296538E-113
   33.5350000000000         1.761721768980457E-112
   33.7250000000000         3.457608414866538E-112
   33.9150000000000         6.289333573760482E-112
   34.1050000000000         1.079357426423051E-111
   34.2950000000000         1.762190465032378E-111
   34.4850000000000         2.745072677899097E-111
   34.6750000000000         4.075745996799293E-111
   34.8650000000000         5.736623658952435E-111
   35.0550000000000         7.562357406396253E-111
   35.2450000000000         9.101718732981137E-111
   35.4350000000000         9.401057441920915E-111
   35.6250000000000         6.685521880327216E-111
   35.8150000000000        -2.079799189302535E-111
   36.0050000000000        -2.174702493386991E-110
   36.1950000000000        -5.961599816297729E-110
   36.3850000000000        -1.260130012316828E-109
   36.5750000000000        -2.345579989757873E-109
   36.7650000000000        -4.016528871487371E-109
   36.9550000000000        -6.444251360604815E-109
   37.1450000000000        -9.759662239325356E-109
   37.3350000000000        -1.396229667679031E-108
   37.5250000000000        -1.876461877228772E-108
   37.7150000000000        -2.334668666674309E-108
   37.9050000000000        -2.599624293698198E-108
   38.0950000000000        -2.361722772922428E-108
   38.2850000000000        -1.111173946219274E-108
   38.4750000000000         1.931482858218722E-108
   38.6650000000000         7.879752930272697E-108
   38.8550000000000         1.821526071068512E-107
   39.0450000000000         3.474824490963626E-107
   39.2350000000000         5.943679671981348E-107
   39.4250000000000         9.396710262385658E-107
   39.6150000000000         1.389642132300535E-106
   39.8050000000000         1.926742896745300E-106
   39.9950000000000         2.489475293223028E-106
   40.1850000000000         2.943766968299868E-106
   40.3750000000000         3.045401490404994E-106
   40.5650000000000         2.395026291671187E-106
   40.7550000000000         3.909489569164414E-107
   40.9450000000000        -3.809160827209256E-106
   41.1350000000000        -1.129785460160167E-105
   41.3250000000000        -2.336716347327292E-105
   41.5150000000000        -4.135123557884083E-105
   41.7050000000000        -6.629973460259378E-105
   41.8950000000000        -9.840434240536697E-105
   42.0850000000000        -1.360923615734832E-104
   42.2750000000000        -1.747085757721551E-104
   42.4650000000000        -2.047422993298361E-104
   42.6550000000000        -2.096388670074229E-104
   42.8450000000000        -1.633862075664811E-104
   43.0350000000000        -2.831301676746050E-105
   43.2250000000000         2.461004467939060E-104
   43.4150000000000         7.220996000685610E-104
   43.6050000000000         1.468295815110983E-103
   43.7950000000000         2.547438818017060E-103
   43.9850000000000         3.994017687174972E-103
   44.1750000000000         5.777960610186647E-103
   44.3650000000000         7.750872992905504E-103
   44.5550000000000         9.572540457025029E-103
   44.7450000000000         1.061854499499815E-102
   44.9350000000000         9.875704413153978E-103
   45.1250000000000         5.841675147070716E-103
   45.3150000000000        -3.540553741041430E-103
   45.5050000000000        -2.086275426518072E-102
   45.6950000000000        -4.907061455843383E-102
   45.8850000000000        -9.101799291479674E-102
   46.0750000000000        -1.486248342188071E-101
   46.2650000000000        -2.214890892051475E-101
   46.4550000000000        -3.048076381869480E-101
   46.6450000000000        -3.865091053484811E-101
   46.8350000000000        -4.436204318996408E-101
   47.0250000000000        -4.381141293819546E-101
   47.2150000000000        -3.128535505658716E-101
   47.4050000000000         1.119366533803261E-102
   47.5950000000000         6.345459466458748E-101
   47.7850000000000         1.672722369321905E-100
   47.9750000000000         3.239730849833219E-100
   48.1650000000000         5.416564474009657E-100
   48.3550000000000         8.199106245278669E-100
   48.5450000000000         1.142011321776377E-099
   48.7350000000000         1.464189528721281E-099
   48.9250000000000         1.702095490259208E-099
   49.1150000000000         1.715447630446693E-099
   49.3050000000000         1.293251777579203E-099
   49.4950000000000         1.440276877349965E-100
   49.6850000000000        -2.101755781094187E-099
   49.8750000000000        -5.866437596068650E-099
   50.0650000000000        -1.156280260140213E-098
   50.2550000000000        -1.947695878923198E-098
   50.4450000000000        -2.957708825245524E-098
   50.6350000000000        -4.123050675526820E-098
   50.8250000000000        -5.281951815693632E-098
   51.0150000000000        -6.126440343237557E-098
   51.2050000000000        -6.149372837209448E-098
   51.3950000000000        -4.595229476182413E-098
   51.5850000000000        -4.308906491862681E-099
   51.7750000000000         7.637949014837672E-098
   51.9650000000000         2.106780396129635E-097
   52.1550000000000         4.124710318064122E-097
   52.3450000000000         6.907596856491909E-097
   52.5350000000000         1.042938468824067E-096
   52.7250000000000         1.445018412195185E-096
   52.9150000000000         1.838571810411902E-096
   53.1050000000000         2.114805414724907E-096
   53.2950000000000         2.097255118207591E-096
   53.4850000000000         1.526256810584300E-096
   53.6750000000000         5.067064029447127E-098
   53.8650000000000        -2.764686150438952E-096
   54.0550000000000        -7.403981329159004E-096
   54.2450000000000        -1.432226106858078E-095
   54.4350000000000        -2.380613893632927E-095
   54.6250000000000        -3.575449571079429E-095
   54.8150000000000        -4.936381832046710E-095
   55.0050000000000        -6.271285623522758E-095
   55.1950000000000        -7.226113577460651E-095
   55.3850000000000        -7.230902734391571E-095
   55.5750000000000        -5.451672034158347E-095
   55.7650000000000        -7.647593580008729E-096
   55.9550000000000         8.221268066323578E-095
   56.1450000000000         2.306119167755495E-094
   56.3350000000000         4.524153350123044E-094
   56.5250000000000         7.576973827289682E-094
   56.7150000000000         1.145308069503547E-093
   56.9050000000000         1.593679661483091E-093
   57.0950000000000         2.048719391752429E-093
   57.2850000000000         2.409175960034029E-093
   57.4750000000000         2.510759569154110E-093
   57.6650000000000         2.111615424818756E-093
   57.8550000000000         8.835434783972317E-094
   58.0450000000000        -1.584402972055433E-093
   58.2350000000000        -5.760765051575560E-093
   58.4250000000000        -1.211327705404569E-092
   58.6150000000000        -2.100359191484191E-092
   58.8050000000000        -3.252105361210837E-092
   58.9950000000000        -4.624369423789820E-092
   59.1850000000000        -6.092120764336909E-092
   59.3750000000000        -7.408744164783812E-092
   59.5650000000000        -8.163097030714232E-092
   59.7550000000000        -7.738334363812486E-092
   59.9450000000000        -5.282667956501895E-092
   60.1350000000000         2.925181125713402E-093
   60.3250000000000         1.026578307226264E-091
   60.5150000000000         2.598253766172075E-091
   60.7050000000000         4.862346871398536E-091
   60.8950000000000         7.883043254474426E-091
   61.0850000000000         1.161596895508662E-090
   61.2750000000000         1.583453415621924E-090
   61.4650000000000         2.003818812516271E-090
   61.6550000000000         2.334781057446348E-090
   61.8450000000000         2.439990956084623E-090
   62.0350000000000         2.126008395885273E-090
   62.2250000000000         1.138727184358969E-090
   62.4150000000000        -8.306920876345362E-091
   62.6050000000000        -4.124633644047862E-090
   62.7950000000000        -9.075706000476298E-090
   62.9850000000000        -1.593382662538468E-089
   63.1750000000000        -2.475670149864069E-089
   63.3650000000000        -3.525881955115528E-089
   63.5550000000000        -4.661864936994273E-089
   63.7450000000000        -5.725154637709308E-089
   63.9350000000000        -6.456771006547047E-089
   64.1250000000000        -6.475088754422158E-089
   64.3150000000000        -5.261441351980156E-089
   64.5050000000000        -2.161577670835386E-089
   64.6950000000000         3.586287531384283E-089
   64.8850000000000         1.278368217857342E-088
   65.0750000000000         2.614959949797657E-088
   65.2650000000000         4.412903694737707E-088
   65.4550000000000         6.662043712733641E-088
   65.6450000000000         9.261694873280483E-088
   65.8350000000000         1.197687482603981E-087
   66.0250000000000         1.438928695610930E-087
   66.2150000000000         1.584841424775861E-087
   66.4050000000000         1.543162754525742E-087
   66.5950000000000         1.192648994959770E-087
   66.7850000000000         3.853168565057046E-088
   66.9750000000000        -1.045050028472672E-087
   67.1650000000000        -3.265508452637099E-087
   67.3550000000000        -6.414914050103875E-087
   67.5450000000000        -1.056071842945974E-086
   67.7350000000000        -1.563994219660343E-086
   67.9250000000000        -2.138434287099199E-086
   68.1150000000000        -2.723254713198191E-086
   68.3050000000000        -3.223593666719563E-086
   68.4950000000000        -3.497047519459704E-086
   68.6850000000000        -3.347338319731845E-086
   68.8750000000000        -2.523128910533306E-086
   69.0650000000000        -7.254528468115390E-087
   69.2550000000000         2.372052999639109E-086
   69.4450000000000         7.085460496560463E-086
   69.6350000000000         1.366078049279295E-085
   69.8250000000000         2.218829819466521E-085
   70.0150000000000         3.248914694156156E-085
   70.2050000000000         4.397570052854259E-085
   70.3950000000000         5.549265431304838E-085
   70.5850000000000         6.515304537056203E-085
   70.7750000000000         7.019298568261245E-085
   70.9650000000000         6.688028759478413E-085
   71.1550000000000         5.052472546680396E-085
   71.3450000000000         1.565006516476522E-085
   71.5350000000000        -4.360189277408791E-085
   71.7250000000000        -1.327601360939570E-084
   71.9150000000000        -2.559352456965430E-084
   72.1050000000000        -4.142993311700369E-084
   72.2950000000000        -6.041193100108050E-084
   72.4850000000000        -8.143891140130146E-084
   72.6750000000000        -1.024196593568507E-083
   72.8650000000000        -1.200082497849239E-083
   73.0550000000000        -1.293801134770608E-083
   73.2450000000000        -1.241069136198110E-083
   73.4350000000000        -9.620768886048240E-084
   73.6250000000000        -3.647140276807521E-084
   73.8150000000000         6.484077972996573E-084
   74.0050000000000         2.168010869043990E-083
   74.1950000000000         4.260270257349775E-083
   74.3850000000000         6.942305091266424E-083
   74.5750000000000         1.015096748043581E-082
   74.7650000000000         1.370583090054546E-082
   74.9550000000000         1.726867261000632E-082
   75.1450000000000         2.030357704303967E-082
   75.3350000000000         2.204402957665372E-082
   75.5250000000000         2.147591519425706E-082
   75.7150000000000         1.734797227928457E-082
   75.9050000000000         8.223635366288774E-083
   76.0950000000000        -7.410161843803063E-083
   76.2850000000000        -3.096141536673365E-082
   76.4750000000000        -6.346487493809245E-082
   76.6650000000000        -1.052185271933135E-081
   76.8550000000000        -1.553251976053429E-081
   77.0450000000000        -2.111539103196965E-081
   77.2350000000000        -2.677554515754408E-081
   77.4250000000000        -3.172921860297321E-081
   77.6150000000000        -3.485729944209624E-081
   77.8050000000000        -3.468185838383007E-081
   77.9950000000000        -2.938173133758415E-081
   78.1850000000000        -1.686623125954065E-081
   78.3750000000000         5.071965148668341E-082
   78.5650000000000         3.850370780330344E-081
   78.7550000000000         8.499200579621174E-081
   78.9450000000000         1.450915725054700E-080
   79.1350000000000         2.177210513084700E-080
   79.3250000000000         2.994287463517182E-080
   79.5150000000000         3.835989079433079E-080
   79.7050000000000         4.596790824869913E-080
   79.8950000000000         5.125488101898771E-080
   80.0850000000000         5.221937442946338E-080
   80.2750000000000         4.638930142359886E-080
   80.4650000000000         3.091651968004713E-080
   80.6550000000000         2.774109985717676E-081
   80.8450000000000        -4.091711317056632E-080
   81.0350000000000        -1.024104171563431E-079
   81.2250000000000        -1.826902142427956E-079
   81.4150000000000        -2.806673197180232E-079
   81.6050000000000        -3.922392496587050E-079
   81.7950000000000        -5.092749057005625E-079
   81.9850000000000        -6.186240233112713E-079
   82.1750000000000        -7.013000204872337E-079
   82.3650000000000        -7.320374286048618E-079
   82.5550000000000        -6.794768906812401E-079
   82.7450000000000        -5.072743149228443E-079
   82.9350000000000        -1.764560811525482E-079
   83.1250000000000         3.506634466827198E-079
   83.3150000000000         1.104737231798682E-078
   83.5050000000000         2.101661903077082E-078
   83.6950000000000         3.332913619751809E-078
   83.8850000000000         4.754262277693226E-078
   84.0750000000000         6.273560198459199E-078
   84.2650000000000         7.738773155532827E-078
   84.4550000000000         8.927971102286178E-078
   84.6450000000000         9.543588113465218E-078
   84.8350000000000         9.213837768458710E-078
   85.0250000000000         7.504647145492707E-078
   85.2150000000000         3.945737659653649E-078
   85.4050000000000        -1.925604181505120E-078
   85.5950000000000        -1.050011727028786E-077
   85.7850000000000        -2.200984029245772E-077
   85.9750000000000        -3.641950111600460E-077
   86.1650000000000        -5.329952379526383E-077
   86.3550000000000        -7.168825040790036E-077
   86.5450000000000        -8.995604718707105E-077
   86.7350000000000        -1.056898195601717E-076
   86.9250000000000        -1.156227097302006E-076
   87.1150000000000        -1.156397694008100E-076
   87.3050000000000        -1.008953013623786E-076
   87.4950000000000        -6.608018718386432E-077
   87.6850000000000        -5.876455930192191E-078
   87.8750000000000         8.436998973178168E-077
   88.0650000000000         2.077408404665089E-076
   88.2550000000000         3.646051155924618E-076
   88.4450000000000         5.512825808967856E-076
   88.6350000000000         7.585876780192880E-076
   88.8250000000000         9.703816792260048E-076
   89.0150000000000         1.162319051163404E-075
   89.2050000000000         1.301035696571926E-075
   89.3950000000000         1.344085639528851E-075
   89.5850000000000         1.240980163291862E-075
   89.7750000000000         9.357082608024646E-076
   89.9650000000000         3.711061909738235E-076
   90.1550000000000        -5.046178708235759E-076
   90.3450000000000        -1.729025772223752E-075
   90.5350000000000        -3.314286833295977E-075
   90.7250000000000        -5.234036453284188E-075
   90.9150000000000        -7.408971014961244E-075
   91.1050000000000        -9.692369783002674E-075
   91.2950000000000        -1.185727589589879E-074
   91.4850000000000        -1.358763866405329E-074
   91.6750000000000        -1.447626134852730E-074
   91.8650000000000        -1.403283422166690E-074
   92.0550000000000        -1.170556281246813E-074
   92.2450000000000        -6.919808623208909E-075
   92.4350000000000         8.633844624050065E-076
   92.6250000000000         1.206713004864134E-074
   92.8150000000000         2.689697908062937E-074
   93.0050000000000         4.522031297352720E-074
   93.1950000000000         6.643292380226419E-074
   93.3850000000000         8.932299428150280E-074
   93.5750000000000         1.119473912725313E-073
   93.7650000000000         1.315401325694602E-073
   93.9550000000000         1.444775988944961E-073
   94.1450000000000         1.463288899670447E-073
   94.3350000000000         1.320218463428154E-073
   94.5250000000000         9.615471793805486E-074
   94.7150000000000         3.347920977102356E-074
   94.9050000000000        -6.042837076359118E-074
   95.0950000000000        -1.883058281253745E-073
   95.2850000000000        -3.501726342284871E-073
   95.4750000000000        -5.421728361448365E-073
   95.6650000000000        -7.553733840883116E-073
   95.8550000000000        -9.746361580297403E-073
   96.0450000000000        -1.177722375646136E-072
   96.2350000000000        -1.334826966232940E-072
   96.4250000000000        -1.408772886604775E-072
   96.6150000000000        -1.356114962314062E-072
   96.8050000000000        -1.129402328386416E-072
   96.9950000000000        -6.808199334035790E-073
   97.1850000000000         3.263514069695519E-074
   97.3750000000000         1.042394732060744E-072
   97.5650000000000         2.360086511929443E-072
   97.7550000000000         3.968141675656265E-072
   97.9450000000000         5.809811837127349E-072
   98.1350000000000         7.779454707507375E-072
   98.3250000000000         9.714259738984778E-072
   98.5150000000000         1.138889087924875E-071
   98.7050000000000         1.251478841463311E-071
   98.8950000000000         1.274605093457823E-071
   99.0850000000000         1.169385930061972E-071
   99.2750000000000         8.951249654389091E-072
   99.4650000000000         4.129633656941342E-072
   99.6550000000000        -3.092251836345940E-072
   99.8450000000000        -1.290734701434194E-071
   100.035000000000        -2.530903437717319E-071
   100.225000000000        -4.001326094443072E-071
   100.415000000000        -5.637969175504326E-071
   100.605000000000        -7.333983974698262E-071
   100.795000000000        -8.934241101517393E-071
   100.985000000000        -1.023281901698490E-070
   101.175000000000        -1.097483730926471E-070
   101.365000000000        -1.086409826902582E-070
   101.555000000000        -9.577948590087211E-071
   101.745000000000        -6.790556133588851E-071
   101.935000000000        -2.205376256432996E-071
   102.125000000000         4.403073276885869E-071
   102.315000000000         1.313891921471364E-070
   102.505000000000         2.392807528445334E-070
   102.695000000000         3.645816523368897E-070
   102.885000000000         5.012013266855751E-070
   103.075000000000         6.395807895361671E-070
   103.265000000000         7.663544164462904E-070
   103.455000000000         8.642695302530885E-070
   103.645000000000         9.124668140826221E-070
   103.835000000000         8.872260530041250E-070
   104.025000000000         7.632733268860979E-070
   104.215000000000         5.157248716968752E-070
   104.405000000000         1.227070121841769E-070
   104.595000000000        -4.313609111938127E-070
   104.785000000000        -1.151903588659021E-069
   104.975000000000        -2.029916340897833E-069
   105.165000000000        -3.037551639523566E-069
   105.355000000000        -4.123946078686031E-069
   105.545000000000        -5.211780507088754E-069
   105.735000000000        -6.195170130765130E-069
   105.925000000000        -6.939564624030544E-069
   106.115000000000        -7.284385434869544E-069
   106.305000000000        -7.049121550139021E-069
   106.495000000000        -6.043528212318996E-069
   106.685000000000        -4.082408280742885E-069
   106.875000000000        -1.005188357444773E-069
   107.065000000000         3.299878682918458E-069
   107.255000000000         8.867549534127823E-069
   107.445000000000         1.562473504659240E-068
   107.635000000000         2.335891955509528E-068
   107.825000000000         3.168857258353982E-068
   108.015000000000         4.003902760681129E-068
   108.205000000000         4.762799679456733E-068
   108.395000000000         5.346543671731644E-068
   108.585000000000         5.637277731930940E-068
   108.775000000000         5.502646344479370E-068
   108.965000000000         4.803021858426279E-068
   109.155000000000         3.401931232235093E-068
   109.345000000000         1.179830005286316E-068
   109.535000000000        -1.948886062140259E-068
   109.725000000000        -6.016074881650533E-068
   109.915000000000        -1.097809740138850E-067
   110.105000000000        -1.669344014512980E-067