  -1.42500000000000         0.000000000000000E+000
  -1.23500000000000         0.000000000000000E+000
  -1.04500000000000         0.000000000000000E+000
 -0.855000000000000         0.000000000000000E+000
 -0.665000000000000         0.000000000000000E+000
 -0.475000000000000         0.000000000000000E+000
 -0.285000000000000         0.000000000000000E+000
 -9.499999999999975E-002    0.000000000000000E+000
  9.500000000000020E-002    0.000000000000000E+000
  0.285000000000000         0.000000000000000E+000
  0.475000000000000         0.000000000000000E+000
  0.665000000000000         0.000000000000000E+000
  0.855000000000000         0.000000000000000E+000
   1.04500000000000         0.000000000000000E+000
   1.23500000000000         0.000000000000000E+000
   1.42500000000000         0.000000000000000E+000
   1.61500000000000         0.000000000000000E+000
   1.80500000000000         0.000000000000000E+000
   1.99500000000000         0.000000000000000E+000
   2.18500000000000         0.000000000000000E+000
   2.37500000000000         0.000000000000000E+000
   2.56500000000000         0.000000000000000E+000
   2.75500000000000         0.000000000000000E+000
   2.94500000000000         0.000000000000000E+000
   3.13500000000000         0.000000000000000E+000
   3.32500000000000         0.000000000000000E+000
   3.51500000000000         0.000000000000000E+000
   3.70500000000000         0.000000000000000E+000
   3.89500000000000         0.000000000000000E+000
   4.08500000000000         0.000000000000000E+000
   4.27500000000000         0.000000000000000E+000
   4.46500000000000         0.000000000000000E+000
   4.65500000000000         0.000000000000000E+000
   4.84500000000000         0.000000000000000E+000
   5.03500000000000         0.000000000000000E+000
   5.22500000000000         0.000000000000000E+000
   5.41500000000000         0.000000000000000E+000
   5.60500000000000         0.000000000000000E+000
   5.79500000000000         0.000000000000000E+000
   5.98500000000000         0.000000000000000E+000
   6.17500000000000         0.000000000000000E+000
   6.36500000000000         0.000000000000000E+000
   6.55500000000000         0.000000000000000E+000
   6.74500000000000         0.000000000000000E+000
   6.93500000000000         2.680882863861786E-188
   7.12500000000000         1.310827026517922E-176
   7.31500000000000         9.938770526409604E-175
   7.50500000000000         3.697412183648494E-173
   7.69500000000000         9.179025631939997E-172
   7.88500000000000         1.758574670421977E-170
   8.07500000000000         2.867859196711209E-169
   8.26500000000000         4.259814541138848E-168
   8.45500000000000         5.948487616626807E-167
   8.64500000000000         7.798100994284099E-166
   8.83500000000000         9.441996714589597E-165
   9.02500000000000         1.040429083777620E-163
   9.21500000000000         1.035052938093731E-162
   9.40500000000000         9.271409165011963E-162
   9.59500000000000         7.474952900528581E-161
   9.78500000000000         5.420905306594072E-160
   9.97500000000000         3.524122083933036E-159
   10.1650000000000         2.033682806130566E-158
   10.3550000000000         1.016604296713227E-157
   10.5450000000000         4.119917676407757E-157
   10.7350000000000         1.038073637556814E-156
   10.9250000000000        -2.346915855274521E-156
   11.1150000000000        -5.733582874774062E-155
   11.3050000000000        -5.231537394437331E-154
   11.4950000000000        -3.671108009951857E-153
   11.6850000000000        -2.227515233302583E-152
   11.8750000000000        -1.219479118848506E-151
   12.0650000000000        -6.147600626401993E-151
   12.2550000000000        -2.885674724102967E-150
   12.4450000000000        -1.269206447273339E-149
   12.6350000000000        -5.247302435084706E-149
   12.8250000000000        -2.040412924426784E-148
   13.0150000000000        -7.446131197509543E-148
   13.2050000000000        -2.534729400241662E-147
   13.3950000000000        -7.945021327099293E-147
   13.5850000000000        -2.229886800184256E-146
   13.7750000000000        -5.219460930988218E-146
   13.9650000000000        -7.682522037133813E-146
   14.1550000000000         1.226215315150728E-145
   14.3450000000000         1.753385252227266E-144
   14.5350000000000         1.023195437447555E-143
   14.7250000000000         4.723431286386904E-143
   14.9150000000000         1.929422722703995E-142
   15.1050000000000         7.263949925674170E-142
   15.2950000000000         2.570334695708692E-141
   15.4850000000000         8.642044023267715E-141
   15.6750000000000         2.779377500582372E-140
   15.8650000000000         8.587088748360480E-140
   16.0550000000000         2.555840040025565E-139
   16.2450000000000         7.341628289430142E-139
   16.4350000000000         2.037361590026686E-138
   16.6250000000000         5.464105742601252E-138
   16.8150000000000         1.415869693932818E-137
   17.0050000000000         3.541176544916733E-137
   17.1950000000000         8.532356141520293E-137
   17.3850000000000         1.974329085395908E-136
   17.5750000000000         4.365054246382145E-136
   17.7650000000000         9.143888291784326E-136
   17.9550000000000         1.788253014100004E-135
   18.1450000000000         3.171358526159574E-135
   18.3350000000000         4.753508267607255E-135
   18.5250000000000         4.607365719243122E-135
   18.7150000000000        -4.059027452988440E-135
   18.9050000000000        -4.092361492259872E-134
   19.0950000000000        -1.568903198777737E-133
   19.2850000000000        -4.731882274512713E-133
   19.4750000000000        -1.259108442033754E-132
   19.6650000000000        -3.075281791951711E-132
   19.8550000000000        -7.015172508516189E-132
   20.0450000000000        -1.506772541626080E-131
   20.2350000000000        -3.057864310547646E-131
   20.4250000000000        -5.869826220772988E-131
   20.6150000000000        -1.066703608739784E-130
   20.8050000000000        -1.843769202384928E-130
   20.9950000000000        -3.086536538633945E-130
   21.1850000000000        -5.264525565137478E-130
   21.3750000000000        -1.008214639018842E-129
   21.5650000000000        -2.365311197624877E-129
   21.7550000000000        -6.613957433412802E-129
   21.9450000000000        -1.987149821711086E-128
   22.1350000000000        -5.943227062501825E-128
   22.3250000000000        -1.713919641991571E-127
   22.5150000000000        -4.726365181891468E-127
   22.7050000000000        -1.247042631645239E-126
   22.8950000000000        -3.158241391511568E-126
   23.0850000000000        -7.705105160941855E-126
   23.2750000000000        -1.816742589513205E-125
   23.4650000000000        -4.151248741630938E-125
   23.6550000000000        -9.213033295484606E-125
   23.8450000000000        -1.989466106818056E-124
   24.0350000000000        -4.185834014854730E-124
   24.2250000000000        -8.589989010366311E-124
   24.4150000000000        -1.720638555183975E-123
   24.6050000000000        -3.365665062496316E-123
   24.7950000000000        -6.430017046041629E-123
   24.9850000000000        -1.199666334767928E-122
   25.1750000000000        -2.184828904856300E-122
   25.3650000000000        -3.880676654231068E-122
   25.5550000000000        -6.713120387031854E-122
   25.7450000000000        -1.128603653431888E-121
   25.9350000000000        -1.838039289834420E-121
   26.1250000000000        -2.885362398858348E-121
   26.3150000000000        -4.331099538874023E-121
   26.5050000000000        -6.131143236319064E-121
   26.6950000000000        -7.969199434620975E-121
   26.8850000000000        -8.931908094537412E-121
   27.0750000000000        -6.917146833649536E-121
   27.2650000000000         2.388530102844157E-121
   27.4550000000000         2.719338568898946E-120
   27.6450000000000         8.223928607279817E-120
   27.8350000000000         1.927178625962330E-119
   28.0250000000000         3.997008063977569E-119
   28.2150000000000         7.669703149760381E-119
   28.4050000000000         1.388234749005679E-118
   28.5950000000000         2.391755600239323E-118
   28.7850000000000         3.935524476710406E-118
   28.9750000000000         6.178872970624885E-118
   29.1650000000000         9.203474028757421E-118
   29.3550000000000         1.283456385275491E-117
   29.5450000000000         1.627667582279663E-117
   29.7350000000000         1.742000674127241E-117
   29.9250000000000         1.158449742864758E-117
   30.1150000000000        -1.066141104034645E-117
   30.3050000000000        -6.714952261990574E-117
   30.4950000000000        -1.899964240471472E-116
   30.6850000000000        -4.347373353189898E-116
   30.8750000000000        -8.939035896608462E-116
   31.0650000000000        -1.716162514316973E-115
   31.2550000000000        -3.131418764327556E-115
   31.4450000000000        -5.480191105279794E-115
   31.6350000000000        -9.240871147698053E-115
   31.8250000000000        -1.503907047358778E-114
   32.0150000000000        -2.360594540495864E-114
   32.2050000000000        -3.562242401462447E-114
   32.3950000000000        -5.133719046220081E-114
   32.5850000000000        -6.977012148448800E-114
   32.7750000000000        -8.720125482624552E-114
   32.9650000000000        -9.449255219130416E-114
   33.1550000000000        -7.259879779348030E-114
   33.3450000000000         1.458164518864543E-114
   33.5350000000000         2.310227588117881E-113
   33.7250000000000         6.840359174012188E-113
   33.9150000000000         1.544913956461072E-112
   34.1050000000000         3.073982675430201E-112
   34.2950000000000         5.646472176868667E-112
   34.4850000000000         9.770306442553237E-112
   34.6750000000000         1.607774835288524E-111
   34.8650000000000         2.525814123039055E-111
   35.0550000000000         3.787691825690449E-111
   35.2450000000000         5.399509937469629E-111
   35.4350000000000         7.246344944223279E-111
   35.6250000000000         8.971911765399579E-111
   35.8150000000000         9.786843258747622E-111
   36.0050000000000         8.181588073464615E-111
   36.1950000000000         1.522973783877060E-111
   36.3850000000000        -1.447249122846675E-110
   36.5750000000000        -4.636196668416242E-110
   36.7650000000000        -1.036045308392659E-109
   36.9550000000000        -1.989900638006825E-109
   37.1450000000000        -3.484860825422489E-109
   37.3350000000000        -5.698572288950461E-109
   37.5250000000000        -8.790533562602805E-109
   37.7150000000000        -1.282912742241979E-108
   37.9050000000000        -1.766227449596518E-108
   38.0950000000000        -2.270769973847295E-108
   38.2850000000000        -2.663682103307041E-108
   38.4750000000000        -2.693016073410618E-108
   38.6650000000000        -1.929718617183926E-108
   38.8550000000000         3.012900400930061E-109
   39.0450000000000         4.992080452876418E-108
   39.2350000000000         1.350562310575479E-107
   39.4250000000000         2.757806320640555E-107
   39.6150000000000         4.921312210282029E-107
   39.8050000000000         8.038446423382587E-107
   39.9950000000000         1.224293521791417E-106
   40.1850000000000         1.749845253763009E-106
   40.3750000000000         2.342924969745367E-106
   40.5650000000000         2.907097820116907E-106
   40.7550000000000         3.253034960580418E-106
   40.9450000000000         3.055658423745155E-106
   41.1350000000000         1.805553846240900E-106
   41.3250000000000        -1.237526324863479E-106
   41.5150000000000        -7.073968273602807E-106
   41.7050000000000        -1.695099584482299E-105
   41.8950000000000        -3.226786742258843E-105
   42.0850000000000        -5.434464595886245E-105
   42.2750000000000        -8.398296482051203E-105
   42.4650000000000        -1.207339047522814E-104
   42.6550000000000        -1.617850385658498E-104
   42.8450000000000        -2.003966742151021E-104
   43.0350000000000        -2.238717974411126E-104
   43.2250000000000        -2.111556205867371E-104
   43.4150000000000        -1.303536276594283E-104
   43.6050000000000         6.324222743931608E-105
   43.7950000000000         4.275987820827453E-104
   43.9850000000000         1.031268978285799E-103
   44.1750000000000         1.945325503209235E-103
   44.3650000000000         3.226894010156725E-103
   44.5550000000000         4.890657240513326E-103
   44.7450000000000         6.864459383826234E-103
   44.9350000000000         8.925704338612623E-103
   45.1250000000000         1.061722706082475E-102
   45.3150000000000         1.114554089449950E-102
   45.5050000000000         9.271816639229003E-103
   45.6950000000000         3.217694273730820E-103
   45.8850000000000        -9.375016892975854E-103
   46.0750000000000        -3.136914303389194E-102
   46.2650000000000        -6.585245389612254E-102
   46.4550000000000        -1.155349969318480E-101
   46.6450000000000        -1.816793564071628E-101
   46.8350000000000        -2.624084569642708E-101
   47.0250000000000        -3.502551205290263E-101
   47.2150000000000        -4.288918261294136E-101
   47.4050000000000        -4.691394697440575E-101
   47.5950000000000        -4.246382333009612E-101
   47.7850000000000        -2.280120100186251E-101
   47.9750000000000         2.109962670413626E-101
   48.1650000000000         1.003085712917998E-100
   48.3550000000000         2.269290767165032E-100
   48.5450000000000         4.118746086123891E-100
   48.7350000000000         6.608933789915262E-100
   48.9250000000000         9.682666295264759E-100
   49.1150000000000         1.307689665290025E-099
   49.3050000000000         1.620136729096219E-099
   49.4950000000000         1.799125340770123E-099
   49.6850000000000         1.674867250435518E-099
   49.8750000000000         1.000458143954332E-099
   50.0650000000000        -5.543790360705689E-100
   50.2550000000000        -3.393406844578480E-099
   50.4450000000000        -7.955623375978723E-099
   50.6350000000000        -1.463270038051147E-098
   50.8250000000000        -2.362321594298064E-098
   51.0150000000000        -3.470411728014725E-098
   51.2050000000000        -4.690368924728336E-098
   51.3950000000000        -5.807173406154317E-098
   51.5850000000000        -6.436556125677653E-098
   51.7750000000000        -5.970911852845098E-098
   51.9650000000000        -3.534135500039338E-098
   52.1550000000000         2.034853652447513E-098
   52.3450000000000         1.213976370860432E-097
   52.5350000000000         2.828372170711677E-097
   52.7250000000000         5.177142552391885E-097
   52.9150000000000         8.319442137053384E-097
   53.1050000000000         1.216371543195711E-096
   53.2950000000000         1.635570271300803E-096
   53.4850000000000         2.013328488114596E-096
   53.6750000000000         2.215547859322837E-096
   53.8650000000000         2.032583331426495E-096
   54.0550000000000         1.164967122156035E-096
   54.2450000000000        -7.809295736539274E-097
   54.4350000000000        -4.277492083904661E-096
   54.6250000000000        -9.827262369459047E-096
   54.8150000000000        -1.786420045400649E-095
   55.0050000000000        -2.858551333123655E-095
   55.1950000000000        -4.169508582339297E-095
   55.3850000000000        -5.604474492558702E-095
   55.5750000000000        -6.917251621408091E-095
   55.7650000000000        -7.676109865538873E-095
   55.9550000000000        -7.207860177448424E-095
   56.1450000000000        -4.552028000335914E-095
   56.3350000000000         1.555392660022457E-095
   56.5250000000000         1.263975473013165E-094
   56.7150000000000         3.034789320372325E-094
   56.9050000000000         5.616146137126645E-094
   57.0950000000000         9.090772034008073E-094
   57.2850000000000         1.340127982578588E-093
   57.4750000000000         1.824564068213738E-093
   57.6650000000000         2.294216618857150E-093
   57.8550000000000         2.626977929644865E-093
   58.0450000000000         2.629963140648098E-093
   58.2350000000000         2.024904800263801E-093
   58.4250000000000         4.408724210493847E-094
   58.6150000000000        -2.578140480273563E-093
   58.8050000000000        -7.540492506590539E-093
   58.9950000000000        -1.493614085287475E-092
   59.1850000000000        -2.511309631699185E-092
   59.3750000000000        -3.808619975735499E-092
   59.5650000000000        -5.326632414317034E-092
   59.7550000000000        -6.910596847406909E-092
   59.9450000000000        -8.267199472565777E-092
   60.1350000000000        -8.918010670877625E-092
   60.3250000000000        -8.156042589788666E-092
   60.5150000000000        -5.017013103417820E-092
   60.7050000000000         1.717321721665220E-092
   60.8950000000000         1.345990500789662E-091
   61.0850000000000         3.167288608866805E-091
   61.2750000000000         5.760058703722579E-091
   61.4650000000000         9.184411588230116E-091
   61.6550000000000         1.337457019128441E-090
   61.8450000000000         1.805657960652624E-090
   62.0350000000000         2.264653582440598E-090
   62.2250000000000         2.613541151089028E-090
   62.4150000000000         2.697369912497006E-090
   62.6050000000000         2.297878157787904E-090
   62.7950000000000         1.130009127758818E-090
   62.9850000000000        -1.150890122393090E-090
   63.1750000000000        -4.924844989887359E-090
   63.3650000000000        -1.055843669187655E-089
   63.5550000000000        -1.832319641932637E-089
   63.7450000000000        -2.827352345245480E-089
   63.9350000000000        -4.007878404262174E-089
   64.1250000000000        -5.280925327733359E-089
   64.3150000000000        -6.468412130942596E-089
   64.5050000000000        -7.280273041485818E-089
   64.6950000000000        -7.289811645860040E-089
   64.8850000000000        -5.917483779559790E-089
   65.0750000000000        -2.432012418002141E-089
   65.2650000000000         4.019364029671304E-089
   65.4550000000000         1.433702162200114E-088
   65.6450000000000         2.933513013805914E-088
   65.8350000000000         4.953146214046697E-088
   66.0250000000000         7.484725447701041E-088
   66.2150000000000         1.042107525736823E-087
   66.4050000000000         1.350712286184932E-087
   66.5950000000000         1.628509372456605E-087
   66.7850000000000         1.803918904269645E-087
   66.9750000000000         1.774929777928773E-087
   67.1650000000000         1.406799893450029E-087
   67.3550000000000         5.340365659266757E-088
   67.5450000000000        -1.030867445589444E-087
   67.7350000000000        -3.479036437268024E-087
   67.9250000000000        -6.974045480298746E-087
   68.1150000000000        -1.160508672824498E-086
   68.3050000000000        -1.732241339045187E-086
   68.4950000000000        -2.385474266177932E-086
   68.6850000000000        -3.061119396439874E-086
   68.8750000000000        -3.657462827676032E-086
   69.0650000000000        -4.019908382442530E-086
   69.2550000000000        -3.933134909464417E-086
   69.4450000000000        -3.118528242579668E-086
   69.6350000000000        -1.240659920771441E-086
   69.8250000000000         2.072568344681653E-086
   70.0150000000000         7.190893393201333E-086
   70.2050000000000         1.441844418247504E-085
   70.3950000000000         2.390165959404752E-085
   70.5850000000000         3.550565282143342E-085
   70.7750000000000         4.865981683486109E-085
   70.9650000000000         6.217898738082615E-085
   71.1550000000000         7.407432612087908E-085
   71.3450000000000         8.137838305821166E-085
   71.5350000000000         8.002135088348983E-085
   71.7250000000000         6.480966380405824E-085
   71.9150000000000         2.957249916778620E-085
   72.1050000000000        -3.244572956062810E-085
   72.2950000000000        -1.278612466768279E-084
   72.4850000000000        -2.620110673647340E-084
   72.6750000000000        -4.373291100017734E-084
   72.8650000000000        -6.512057729207668E-084
   73.0550000000000        -8.933604591844843E-084
   73.2450000000000        -1.142850204133598E-083
   73.4350000000000        -1.364966730939766E-083
   73.6250000000000        -1.508439421803431E-083
   73.8150000000000        -1.503558061458452E-083
   74.0050000000000        -1.262044458829561E-083
   74.1950000000000        -6.797139312217356E-084
   74.3850000000000         3.568582389633534E-084
   74.5750000000000         1.958362003459505E-083
   74.7650000000000         4.214225881528961E-083
   74.9550000000000         7.166577745666783E-083
   75.1450000000000         1.077632147333136E-082
   75.3350000000000         1.488193702202185E-082
   75.5250000000000         1.915305271245977E-082
   75.7150000000000         2.304278479583954E-082
   75.9050000000000         2.574528217858792E-082
   76.0950000000000         2.616776623502927E-082
   76.2850000000000         2.292942067794275E-082
   76.4750000000000         1.440242839567049E-082
   76.6650000000000        -1.187231798532377E-083
   76.8550000000000        -2.558061193778866E-082
   77.0450000000000        -6.021080688856270E-082
   77.2350000000000        -1.058190978592733E-081
   77.4250000000000        -1.619578784872302E-081
   77.6150000000000        -2.263901285505714E-081
   77.8050000000000        -2.944156163671959E-081
   77.9950000000000        -3.581811904091258E-081
   78.1850000000000        -4.060661954500158E-081
   78.3750000000000        -4.222728691953802E-081
   78.5650000000000        -3.867927278850762E-081
   78.7550000000000        -2.759587795428272E-081
   78.9450000000000        -6.382310585947154E-082
   79.1350000000000         2.753891959779588E-081
   79.3250000000000         7.635168891127143E-081
   79.5150000000000         1.413218432114488E-080
   79.7050000000000         2.221192739297285E-080
   79.8950000000000         3.159998945565055E-080
   80.0850000000000         4.168878218018817E-080
   80.2750000000000         5.144335173884666E-080
   80.4650000000000         5.931671672115574E-080
   80.6550000000000         6.319162921726455E-080
   80.8450000000000         6.037087851572846E-080
   81.0350000000000         4.764312621244935E-080
   81.2250000000000         2.145491999631810E-080
   81.4150000000000        -2.177915519981296E-080
   81.6050000000000        -8.519866149653073E-080
   81.7950000000000        -1.708300700701208E-079
   81.9850000000000        -2.787231256627444E-079
   82.1750000000000        -4.059071989284040E-079
   82.3650000000000        -5.452171334478932E-079
   82.5550000000000        -6.840814217982514E-079
   82.7450000000000        -8.034183519067644E-079
   82.9350000000000        -8.768456614689325E-079
   83.1250000000000        -8.704716627447329E-079
   83.3150000000000        -7.435935517294989E-079
   83.5050000000000        -4.506715146612337E-079
   83.6950000000000         5.503797143979206E-080
   83.8850000000000         8.158356608444532E-079
   84.0750000000000         1.861657636963218E-078
   84.2650000000000         3.199788536258948E-078
   84.4550000000000         4.802391436065691E-078
   84.6450000000000         6.592417555127693E-078
   84.8350000000000         8.428954919182472E-078
   85.0250000000000         1.009367590714201E-077
   85.2150000000000         1.128072083446970E-077
   85.4050000000000         1.159305621781039E-077
   85.5950000000000         1.054899124549775E-077
   85.7850000000000         7.603011655101003E-078
   85.9750000000000         2.185251934363820E-078
   86.1650000000000        -6.236398768980743E-078
   86.3550000000000        -1.806856710783643E-077
   86.5450000000000        -3.347793392398288E-077
   86.7350000000000        -5.225186503892342E-077
   86.9250000000000        -7.364006535684815E-077
   87.1150000000000        -9.618849473639965E-077
   87.3050000000000        -1.175831777291559E-076
   87.4950000000000        -1.345287092541035E-076
   87.6850000000000        -1.426936488590244E-076
   87.8750000000000        -1.367617625075766E-076
   88.0650000000000        -1.106330527609473E-076
   88.2550000000000        -5.782024313030317E-077
   88.4450000000000         2.791689116418816E-077
   88.6350000000000         1.516671376104753E-076
   88.8250000000000         3.161802088115176E-076
   89.0150000000000         5.204121757163572E-076
   89.2050000000000         7.578614482536110E-076
   89.3950000000000         1.014805740413689E-075
   89.5850000000000         1.268613991274574E-075
   89.7750000000000         1.486378202464597E-075
   89.9650000000000         1.624183130379511E-075
   90.1550000000000         1.627398555034649E-075
   90.3450000000000         1.432428339466553E-075
   90.5350000000000         9.703687615896238E-076
   90.7250000000000         1.729993428140814E-076
   90.9150000000000        -1.018565090658368E-075
   91.1050000000000        -2.642409642871191E-075
   91.2950000000000        -4.701665608199384E-075
   91.4850000000000        -7.148174483312730E-075
   91.6750000000000        -9.864968300539635E-075
   91.8650000000000        -1.264915379575310E-074
   92.0550000000000        -1.519744530477306E-074
   92.2450000000000        -1.709726766449100E-074
   92.4350000000000        -1.782697258159244E-074
   92.6250000000000        -1.676918156877709E-074
   92.8150000000000        -1.324146316310873E-074
   93.0050000000000        -6.548329518137931E-075
   93.1950000000000         3.942255766831603E-075
   93.3850000000000         1.869618152672245E-074
   93.5750000000000         3.788499359380265E-074
   93.7650000000000         6.123619021028431E-074
   93.9550000000000         8.787024397019755E-074
   94.1450000000000         1.161376777901929E-073
   94.3350000000000         1.434752221576745E-073
   94.5250000000000         1.663059794004627E-073
   94.7150000000000         1.800140149741353E-073
   94.9050000000000         1.790280791134516E-073
   95.0950000000000         1.570512340839707E-073
   95.2850000000000         1.074718644258093E-073
   95.4750000000000         2.398563307714562E-074
   95.6650000000000        -9.855381330922862E-074
   95.8550000000000        -2.630562528764127E-073
   96.0450000000000        -4.689155533605297E-073
   96.2350000000000        -7.105907556219443E-073
   96.4250000000000        -9.761498005290469E-073
   96.6150000000000        -1.245924452531760E-072
   96.8050000000000        -1.491473486208390E-072
   96.9950000000000        -1.675097337318597E-072
   97.1850000000000        -1.750185060901750E-072
   97.3750000000000        -1.662695983853754E-072
   97.5650000000000        -1.354075062718668E-072
   97.7550000000000        -7.658631093205660E-073
   97.9450000000000         1.538187740307128E-073
   98.1350000000000         1.441865388787826E-072
   98.3250000000000         3.110011562883515E-072
   98.5150000000000         5.133284089602043E-072
   98.7050000000000         7.437790096998040E-072
   98.8950000000000         9.888903687162623E-072
   99.0850000000000         1.228128945213777E-071
   99.2750000000000         1.433257022139812E-071
   99.4650000000000         1.568276432080562E-071
   99.6550000000000         1.590183101103583E-071
   99.8450000000000         1.450770862299416E-071
   100.035000000000         1.099703914558589E-071
   100.225000000000         4.890275559668349E-072
   100.415000000000        -4.208000013297784E-072
   100.605000000000        -1.653400730724808E-071
   100.795000000000        -3.207713911715118E-071
   100.985000000000        -5.048412349301417E-071
   101.175000000000        -7.096185138169380E-071
   101.365000000000        -9.218850526822007E-071
   101.555000000000        -1.122454248039919E-070
   101.745000000000        -1.285847099105515E-070
   101.935000000000        -1.380495381116295E-070
   102.125000000000        -1.369651396849969E-070
   102.315000000000        -1.213178596594632E-070
   102.505000000000        -8.703724666908504E-071
   102.695000000000        -3.039117357854056E-071
   102.885000000000         5.150378121893305E-071
   103.075000000000         1.600653305619779E-070
   103.265000000000         2.945444812426766E-070
   103.455000000000         4.512800088115684E-070
   103.645000000000         6.229669027388503E-070
   103.835000000000         7.980173981629647E-070
   104.025000000000         9.601128028804174E-070
   104.215000000000         1.088061262379682E-069
   104.405000000000         1.156088254125230E-069
   104.595000000000         1.134689927009669E-069
   104.785000000000         9.921711078715815E-070
   104.975000000000         6.969665633192413E-070
   105.165000000000         2.208028983304049E-070
   105.355000000000        -4.573030596997140E-070
   105.545000000000        -1.346296611570287E-069
   105.735000000000        -2.437779652393441E-069
   105.925000000000        -3.700461261261036E-069
   106.115000000000        -5.074814209525047E-069
   106.305000000000        -6.468527726511463E-069
   106.495000000000        -7.753480398577877E-069
   106.685000000000        -8.765068447192685E-069
   106.875000000000        -9.304795545260171E-069
   107.065000000000        -9.147040023021694E-069
   107.255000000000        -8.050841645751156E-069
   107.445000000000        -5.777371200053124E-069
   107.635000000000        -2.113442328046047E-069
   107.825000000000         3.099018230883084E-069
   108.015000000000         9.928215253699085E-069
   108.205000000000         1.831384872147137E-068
   108.395000000000         2.802685403563467E-068
   108.585000000000         3.863071467405161E-068
   108.775000000000         4.944850941697224E-068
   108.965000000000         5.954077078307325E-068
   109.155000000000         6.769999247899211E-068
   109.345000000000         7.246810946556661E-068
   109.535000000000         7.218334649908009E-068
   109.725000000000         6.506234242943361E-068
   109.915000000000         4.932226194880806E-068
   110.105000000000         2.334557230415729E-068