  -1.42500000000000         0.000000000000000E+000
  -1.23500000000000         0.000000000000000E+000
  -1.04500000000000         0.000000000000000E+000
 -0.855000000000000         0.000000000000000E+000
 -0.665000000000000         0.000000000000000E+000
 -0.475000000000000         0.000000000000000E+000
 -0.285000000000000         0.000000000000000E+000
 -9.499999999999975E-002    0.000000000000000E+000
  9.500000000000020E-002    0.000000000000000E+000
  0.285000000000000         0.000000000000000E+000
  0.475000000000000         0.000000000000000E+000
  0.665000000000000         0.000000000000000E+000
  0.855000000000000         0.000000000000000E+000
   1.04500000000000         0.000000000000000E+000
   1.23500000000000         0.000000000000000E+000
   1.42500000000000         0.000000000000000E+000
   1.61500000000000         0.000000000000000E+000
   1.80500000000000         0.000000000000000E+000
   1.99500000000000         0.000000000000000E+000
   2.18500000000000         0.000000000000000E+000
   2.37500000000000         0.000000000000000E+000
   2.56500000000000         0.000000000000000E+000
   2.75500000000000         0.000000000000000E+000
   2.94500000000000         0.000000000000000E+000
   3.13500000000000         0.000000000000000E+000
   3.32500000000000         0.000000000000000E+000
   3.51500000000000         0.000000000000000E+000
   3.70500000000000         0.000000000000000E+000
   3.89500000000000         0.000000000000000E+000
   4.08500000000000         0.000000000000000E+000
   4.27500000000000         0.000000000000000E+000
   4.46500000000000         0.000000000000000E+000
   4.65500000000000         0.000000000000000E+000
   4.84500000000000         0.000000000000000E+000
   5.03500000000000         0.000000000000000E+000
   5.22500000000000         0.000000000000000E+000
   5.41500000000000         0.000000000000000E+000
   5.60500000000000         0.000000000000000E+000
   5.79500000000000         0.000000000000000E+000
   5.98500000000000         0.000000000000000E+000
   6.17500000000000         0.000000000000000E+000
   6.36500000000000         0.000000000000000E+000
   6.55500000000000         0.000000000000000E+000
   6.74500000000000        -9.088003580067526E-189
   6.93500000000000        -1.033377739886103E-176
   7.12500000000000        -3.796226873372746E-175
   7.31500000000000         9.019594304613847E-174
   7.50500000000000         1.031687065351483E-171
   7.69500000000000         3.888993714648849E-170
   7.88500000000000         9.450330603745670E-169
   8.07500000000000         1.720093393321730E-167
   8.26500000000000         2.513976637319993E-166
   8.45500000000000         3.078230279693091E-165
   8.64500000000000         3.257783983694100E-164
   8.83500000000000         3.062735179475064E-163
   9.02500000000000         2.630540993390698E-162
   9.21500000000000         2.128798930472305E-161
   9.40500000000000         1.675090773232958E-160
   9.59500000000000         1.312912312152910E-159
   9.78500000000000         1.033194904663399E-158
   9.97500000000000         8.091090350789998E-158
   10.1650000000000         6.197916136801530E-157
   10.3550000000000         4.569818426102138E-156
   10.5450000000000         3.208173024493712E-155
   10.7350000000000         2.132467457151351E-154
   10.9250000000000         1.339460562769761E-153
   11.1150000000000         7.952476728949495E-153
   11.3050000000000         4.468822151632398E-152
   11.4950000000000         2.381279519743888E-151
   11.6850000000000         1.205649777571731E-150
   11.8750000000000         5.811185578617812E-150
   12.0650000000000         2.671199436971774E-149
   12.2550000000000         1.172764911162834E-148
   12.4450000000000         4.924098936515287E-148
   12.6350000000000         1.979110185581501E-147
   12.8250000000000         7.619156024211939E-147
   13.0150000000000         2.810135044424791E-146
   13.2050000000000         9.926636538296637E-146
   13.3950000000000         3.355178441528666E-145
   13.5850000000000         1.083050158595491E-144
   13.7750000000000         3.327929533384188E-144
   13.9650000000000         9.679943084555338E-144
   14.1550000000000         2.639619959522461E-143
   14.3450000000000         6.627480975687533E-143
   14.5350000000000         1.474454917660945E-142
   14.7250000000000         2.615354954185939E-142
   14.9150000000000         2.047913292653129E-142
   15.1050000000000        -1.099315493849116E-141
   15.2950000000000        -7.969040226869055E-141
   15.4850000000000        -3.553587304936782E-140
   15.6750000000000        -1.323323742154923E-139
   15.8650000000000        -4.438688229725649E-139
   16.0550000000000        -1.382402767698875E-138
   16.2450000000000        -4.058025101007937E-138
   16.4350000000000        -1.131927818188372E-137
   16.6250000000000        -3.013401438910723E-137
   16.8150000000000        -7.671712865155825E-137
   17.0050000000000        -1.867870159340054E-136
   17.1950000000000        -4.340913964202573E-136
   17.3850000000000        -9.586021519015405E-136
   17.5750000000000        -1.994239109590144E-135
   17.7650000000000        -3.844573104424018E-135
   17.9550000000000        -6.633620702467509E-135
   18.1450000000000        -9.341869563080340E-135
   18.3350000000000        -6.874961552773454E-135
   18.5250000000000         1.780231980362909E-134
   18.7150000000000         1.130560680965853E-133
   18.9050000000000         4.032694308262205E-133
   19.0950000000000         1.185875763704926E-132
   19.2850000000000         3.130266532452279E-132
   19.4750000000000         7.661473265814095E-132
   19.6650000000000         1.764965475046646E-131
   19.8550000000000         3.853829635145714E-131
   20.0450000000000         7.993319592424198E-131
   20.2350000000000         1.571892695890586E-130
   20.4250000000000         2.910790527933272E-130
   20.6150000000000         4.998946715725668E-130
   20.8050000000000         7.695757596252999E-130
   20.9950000000000         9.681434144856581E-130
   21.1850000000000         6.301335428279271E-130
   21.3750000000000        -1.545294017094374E-129
   21.5650000000000        -8.799163505478773E-129
   21.7550000000000        -2.864101259196885E-128
   21.9450000000000        -7.758259852333000E-128
   22.1350000000000        -1.904689704732338E-127
   22.3250000000000        -4.383727149447513E-127
   22.5150000000000        -9.620560121774359E-127
   22.7050000000000        -2.033077982086934E-126
   22.8950000000000        -4.162854249164489E-126
   23.0850000000000        -8.292885385986769E-126
   23.2750000000000        -1.611878480299901E-125
   23.4650000000000        -3.062828426829928E-125
   23.6550000000000        -5.696911707598053E-125
   23.8450000000000        -1.038017484411064E-124
   24.0350000000000        -1.853176695931706E-124
   24.2250000000000        -3.240740038320019E-124
   24.4150000000000        -5.546151902946411E-124
   24.6050000000000        -9.273290899417540E-124
   24.7950000000000        -1.510743756282692E-123
   24.9850000000000        -2.387821480564659E-123
   25.1750000000000        -3.636524366439110E-123
   25.3650000000000        -5.274921833233104E-123
   25.5550000000000        -7.132949795994297E-123
   25.7450000000000        -8.581172252226618E-123
   25.9350000000000        -7.993260816634462E-123
   26.1250000000000        -1.731376271617526E-123
   26.3150000000000         1.769425848822508E-122
   26.5050000000000         6.484934164759479E-122
   26.6950000000000         1.668437668586202E-121
   26.8850000000000         3.723197538212929E-121
   27.0750000000000         7.657588159357842E-121
   27.2650000000000         1.489480429313052E-120
   27.4550000000000         2.776151370693011E-120
   27.6450000000000         4.994524453510671E-120
   27.8350000000000         8.709607491231452E-120
   28.0250000000000         1.475384202777863E-119
   28.2150000000000         2.429505419602694E-119
   28.4050000000000         3.886449847958811E-119
   28.5950000000000         6.026510194816718E-119
   28.7850000000000         9.020125004531558E-119
   28.9750000000000         1.293343422603165E-118
   29.1650000000000         1.752397098435478E-118
   29.3550000000000         2.183757203377404E-118
   29.5450000000000         2.346222530446285E-118
   29.7350000000000         1.721561140675212E-118
   29.9250000000000        -7.060026865503959E-119
   30.1150000000000        -6.803790768600491E-118
   30.3050000000000        -1.983134038994388E-117
   30.4950000000000        -4.521767630257231E-117
   30.6850000000000        -9.158930819014931E-117
   30.8750000000000        -1.719548047922846E-116
   31.0650000000000        -3.046974408214836E-116
   31.2550000000000        -5.134971994180978E-116
   31.4450000000000        -8.242772712292700E-116
   31.6350000000000        -1.255387531622663E-115
   31.8250000000000        -1.793926095677662E-115
   32.0150000000000        -2.345480000411256E-115
   32.2050000000000        -2.635327422384546E-115
   32.3950000000000        -2.024405486361171E-115
   32.5850000000000         8.194774789972686E-116
   32.7750000000000         8.488977327043082E-115
   32.9650000000000         2.578659856441843E-114
   33.1550000000000         6.126879395295254E-114
   33.3450000000000         1.296885198357753E-113
   33.5350000000000         2.557503896962637E-113
   33.7250000000000         4.797077305848186E-113
   33.9150000000000         8.654111562500322E-113
   34.1050000000000         1.511375666485103E-112
   34.2950000000000         2.565091073066535E-112
   34.4850000000000         4.239827194224961E-112
   34.6750000000000         6.830989796914568E-112
   34.8650000000000         1.072465798483051E-111
   35.0550000000000         1.638263069833021E-111
   35.2450000000000         2.427354728963528E-111
   35.4350000000000         3.469456582956326E-111
   35.6250000000000         4.738723037732914E-111
   35.8150000000000         6.078737827886634E-111
   36.0050000000000         7.065382540280895E-111
   36.1950000000000         6.768613930341008E-111
   36.3850000000000         3.356448417217459E-111
   36.5750000000000        -6.536692121898956E-111
   36.7650000000000        -2.877612008090549E-110
   36.9550000000000        -7.313857086990462E-110
   37.1450000000000        -1.552664455672447E-109
   37.3350000000000        -2.991894428581090E-109
   37.5250000000000        -5.402545264873426E-109
   37.7150000000000        -9.279250979021378E-109
   37.9050000000000        -1.527209188153148E-108
   38.0950000000000        -2.416282582420685E-108
   38.2850000000000        -3.675969139009576E-108
   38.4750000000000        -5.363886602065802E-108
   38.6650000000000        -7.462055264148436E-108
   38.8550000000000        -9.781544522096163E-108
   39.0450000000000        -1.180160914925366E-107
   39.2350000000000        -1.241476565998297E-107
   39.4250000000000        -9.545638844216749E-108
   39.6150000000000         3.856017360027522E-109
   39.8050000000000         2.316766015132636E-107
   39.9950000000000         6.764124581675459E-107
   40.1850000000000         1.465692884893070E-106
   40.3750000000000         2.772777632562018E-106
   40.5650000000000         4.815774144328308E-106
   40.7550000000000         7.841276841976987E-106
   40.9450000000000         1.207918218123983E-105
   41.1350000000000         1.764919295226155E-105
   41.3250000000000         2.439232442927451E-105
   41.5150000000000         3.159376596556743E-105
   41.7050000000000         3.755920889719501E-105
   41.8950000000000         3.900959729225857E-105
   42.0850000000000         3.027617453452279E-105
   42.2750000000000         2.318948428796416E-106
   42.4650000000000        -5.832880347265716E-105
   42.6550000000000        -1.704524013725421E-104
   42.8450000000000        -3.584372038437706E-104
   43.0350000000000        -6.511930560454343E-104
   43.2250000000000        -1.078578547529719E-103
   43.4150000000000        -1.663704381369776E-103
   43.6050000000000        -2.408993469778317E-103
   43.7950000000000        -3.273471984536592E-103
   43.9850000000000        -4.138680076640218E-103
   44.1750000000000        -4.761174438881353E-103
   44.3650000000000        -4.711360615718257E-103
   44.5550000000000        -3.302030670287665E-103
   44.7450000000000         4.836650740877640E-104
   44.9350000000000         8.045107200285399E-103
   45.1250000000000         2.116387629524028E-102
   45.3150000000000         4.189704992104010E-102
   45.5050000000000         7.228794814610449E-102
   45.6950000000000         1.137937351019214E-101
   45.8850000000000         1.663089354180420E-101
   46.0750000000000         2.266572190086855E-101
   46.2650000000000         2.864457383953751E-101
   46.4550000000000         3.292482799053635E-101
   46.6450000000000         3.272335179963132E-101
   46.8350000000000         2.376158662607933E-101
   47.0250000000000        -2.872066287312006E-104
   47.2150000000000        -4.660295672873859E-101
   47.4050000000000        -1.254926511972377E-100
   47.5950000000000        -2.467852745282038E-100
   47.7850000000000        -4.190022132207917E-100
   47.9750000000000        -6.454098876606624E-100
   48.1650000000000        -9.182830408191857E-100
   48.3550000000000        -1.210735674108725E-099
   48.5450000000000        -1.466020862153532E-099
   48.7350000000000        -1.584772303745865E-099
   48.9250000000000        -1.411626356695533E-099
   49.1150000000000        -7.241257996030462E-100
   49.3050000000000         7.711702432893545E-100
   49.4950000000000         3.427886730683214E-099
   49.6850000000000         7.623951101296792E-099
   49.8750000000000         1.368741948207578E-098
   50.0650000000000         2.176887984446897E-098
   50.2550000000000         3.164556024636742E-098
   50.4450000000000         4.244655463740312E-098
   50.6350000000000         5.229931371425029E-098
   50.8250000000000         5.791762195786213E-098
   51.0150000000000         5.418370913929778E-098
   51.2050000000000         3.382441094585073E-098
   51.3950000000000        -1.265572779294084E-098
   51.5850000000000        -9.654516161309504E-098
   51.7750000000000        -2.296785963241376E-097
   51.9650000000000        -4.219795182930583E-097
   52.1550000000000        -6.773633009634704E-097
   52.3450000000000        -9.876132473697689E-097
   52.5350000000000        -1.324014157796985E-096
   52.7250000000000        -1.626899680676519E-096
   52.9150000000000        -1.793917179784981E-096
   53.1050000000000        -1.668809544143579E-096
   53.2950000000000        -1.033904637035270E-096
   53.4850000000000         3.887202118984254E-097
   53.6750000000000         2.920381974147235E-096
   53.8650000000000         6.884178420504268E-096
   54.0550000000000         1.252800257250377E-095
   54.2450000000000         1.990131109569336E-095
   54.4350000000000         2.867693355192201E-095
   54.6250000000000         3.791526673629623E-095
   54.8150000000000         4.577990309793420E-095
   55.0050000000000         4.923292610267663E-095
   55.1950000000000         4.376631009294733E-095
   55.3850000000000         2.326373941544840E-095
   55.5750000000000        -1.986639968610567E-095
   55.7650000000000        -9.409513225960685E-095
   55.9550000000000        -2.074752443043048E-094
   56.1450000000000        -3.653738577419551E-094
   56.3350000000000        -5.669774479514482E-094
   56.5250000000000        -8.003904434202845E-094
   56.7150000000000        -1.036332992718982E-093
   56.9050000000000        -1.220775270008754E-093
   57.0950000000000        -1.267365993777273E-093
   57.2850000000000        -1.051252316420975E-093
   57.4750000000000        -4.068518653969927E-094
   57.6650000000000         8.667164496343839E-094
   57.8550000000000         2.987624105972174E-093
   58.0450000000000         6.154771253393295E-093
   58.2350000000000         1.048615278097280E-092
   58.4250000000000         1.592612792963271E-092
   58.6150000000000         2.211780007649084E-092
   58.8050000000000         2.824153528407762E-092
   58.9950000000000         3.282900488436614E-092
   59.1850000000000         3.357492381451904E-092
   59.3750000000000         2.718648927852342E-092
   59.5650000000000         9.333399645106489E-093
   59.7550000000000        -2.521183809785072E-092
   59.9450000000000        -8.212557744596061E-092
   60.1350000000000        -1.666347968862946E-091
   60.3250000000000        -2.820148705439317E-091
   60.5150000000000        -4.273405392308104E-091
   60.7050000000000        -5.943972698508154E-091
   60.8950000000000        -7.637673165462467E-091
   61.0850000000000        -9.002892270360295E-091
   61.2750000000000        -9.483703425617868E-091
   61.4650000000000        -8.280223097422856E-091
   61.6550000000000        -4.329904127133018E-091
   61.8450000000000         3.670625344624204E-091
   62.0350000000000         1.717732300259226E-090
   62.2250000000000         3.761264843376623E-090
   62.4150000000000         6.604684576608114E-090
   62.6050000000000         1.027129886975554E-089
   62.7950000000000         1.463309021828304E-089
   62.9850000000000         1.932349844423733E-089
   63.1750000000000         2.363361054887176E-089
   63.3650000000000         2.640020964288847E-089
   63.5550000000000         2.590178702015287E-089
   63.7450000000000         1.978857751964273E-089
   63.9350000000000         5.084643112650425E-090
   64.1250000000000        -2.168687406762141E-089
   64.3150000000000        -6.419167136477314E-089
   64.5050000000000        -1.257124835981564E-088
   64.6950000000000        -2.082427188509278E-088
   64.8850000000000        -3.111813783036670E-088
   65.0750000000000        -4.295950485851080E-088
   65.2650000000000        -5.520695009395786E-088
   65.4550000000000        -6.582647036724527E-088
   65.6450000000000        -7.164194771638704E-088
   65.8350000000000        -6.812292154666398E-088
   66.0250000000000        -4.927400767164091E-088
   66.2150000000000        -7.715490756604206E-089
   66.4050000000000         6.492937569096205E-088
   66.5950000000000         1.772020544138515E-087
   66.7850000000000         3.363796741858310E-087
   66.9750000000000         5.463019348666990E-087
   67.1650000000000         8.043397329624355E-087
   67.3550000000000         1.097465884814067E-086
   67.5450000000000         1.397518481141661E-086
   67.7350000000000         1.655946596136765E-086
   67.9250000000000         1.798606669266768E-086
   68.1150000000000         1.721539445437783E-086
   68.3050000000000         1.289093812317231E-086
   68.4950000000000         3.362495499103997E-087
   68.6850000000000        -1.322524018605320E-086
   68.8750000000000        -3.875133239846046E-086
   69.0650000000000        -7.481505558462014E-086
   69.2550000000000        -1.222822676031202E-085
   69.4450000000000        -1.806609442349587E-085
   69.6350000000000        -2.473001376957763E-085
   69.8250000000000        -3.164319976904144E-085
   70.0150000000000        -3.781145512961867E-085
   70.2050000000000        -4.171853954198354E-085
   70.3950000000000        -4.124037888054749E-085
   70.5850000000000        -3.360392451732999E-085
   70.7750000000000        -1.542539582010017E-085
   70.9650000000000         1.712846316424081E-085
   71.1550000000000         6.800502993399232E-085
   71.3450000000000         1.407013205103345E-084
   71.5350000000000         2.374176541250637E-084
   71.7250000000000         3.578887588105455E-084
   71.9150000000000         4.978773604921243E-084
   72.1050000000000         6.473591109452388E-084
   72.2950000000000         7.884937378963342E-084
   72.4850000000000         8.935687739170287E-084
   72.6750000000000         9.232204022884459E-084
   72.8650000000000         8.253787718814000E-084
   73.0550000000000         5.355454833253038E-084
   73.2450000000000        -2.082520382146465E-085
   73.4350000000000        -9.229255480212957E-084
   73.6250000000000        -2.245166971004684E-083
   73.8150000000000        -4.042727535501876E-083
   74.0050000000000        -6.331241615970645E-083
   74.1950000000000        -9.060192254595853E-083
   74.3850000000000        -1.208026342052873E-082
   74.5750000000000        -1.510598580181002E-082
   74.7650000000000        -1.767652979966962E-082
   74.9550000000000        -1.911949787253132E-082
   75.1450000000000        -1.852502825056132E-082
   75.3350000000000        -1.474034600936554E-082
   75.5250000000000        -6.397874821430134E-083
   75.7150000000000         8.007206467101045E-083
   75.9050000000000         2.997205722184352E-082
   76.0950000000000         6.075549522968805E-082
   76.2850000000000         1.010450798141676E-081
   76.4750000000000         1.505111079542452E-081
   76.6650000000000         2.072472652862771E-081
   76.8550000000000         2.671145963475771E-081
   77.0450000000000         3.230299058647715E-081
   77.2350000000000         3.642724345101001E-081
   77.4250000000000         3.759236187972180E-081
   77.6150000000000         3.386026163417616E-081
   77.8050000000000         2.287118922367188E-081
   77.9950000000000         1.945692586802375E-082
   78.1850000000000        -3.170565935562717E-081
   78.3750000000000        -8.063279300156772E-081
   78.5650000000000        -1.466270138085591E-080
   78.7550000000000        -2.300102744037669E-080
   78.9450000000000        -3.287266286559013E-080
   79.1350000000000        -4.372555812031321E-080
   79.3250000000000        -5.454050585205940E-080
   79.5150000000000        -6.370931599236493E-080
   79.7050000000000        -6.892927328151913E-080
   79.8950000000000        -6.713891869423149E-080
   80.0850000000000        -5.452849852794032E-080
   80.2750000000000        -2.666653178927223E-080
   80.4650000000000         2.120946595501065E-080
   80.6550000000000         9.368684756540050E-080
   80.8450000000000         1.944075883784200E-079
   81.0350000000000         3.249964550994049E-079
   81.2250000000000         4.836732557619278E-079
   81.4150000000000         6.635731893517842E-079
   81.6050000000000         8.508557637225956E-079
   81.7950000000000         1.022759110620821E-078
   81.9850000000000         1.145852666532220E-078
   82.1750000000000         1.174853972287315E-078
   82.3650000000000         1.052497431850732E-078
   82.5550000000000         7.110614786669833E-079
   82.7450000000000         7.625639608488427E-080
   82.9350000000000        -9.257785901130456E-079
   83.1250000000000        -2.357657350391230E-078
   83.3150000000000        -4.255557164343500E-078
   83.5050000000000        -6.609435128006580E-078
   83.6950000000000        -9.338968832019144E-078
   83.8850000000000        -1.226632812962565E-077
   84.0750000000000        -1.508794203277673E-077
   84.2650000000000        -1.734874283432880E-077
   84.4550000000000        -1.842389883005423E-077
   84.6450000000000        -1.751468086445660E-077
   84.8350000000000        -1.366666783325225E-077
   85.0250000000000        -5.819719567920758E-078
   85.2150000000000         7.100321211241839E-078
   85.4050000000000         2.603883406327163E-077
   85.5950000000000         5.161140986623456E-077
   85.7850000000000         8.384192939121112E-077
   85.9750000000000         1.218441740977071E-076
   86.1650000000000         1.634616634963926E-076
   86.3550000000000         2.048939568446036E-076
   86.5450000000000         2.403542966884499E-076
   86.7350000000000         2.618224762818183E-076
   86.9250000000000         2.589767433568227E-076
   87.1150000000000         2.194071046008122E-076
   87.3050000000000         1.292262815341256E-076
   87.4950000000000        -2.580051821337931E-077
   87.6850000000000        -2.584951524574863E-076
   87.8750000000000        -5.777929936830116E-076
   88.0650000000000        -9.855295352540631E-076
   88.2550000000000        -1.472547906346208E-075
   88.4450000000000        -2.014311312236002E-075
   88.6350000000000        -2.566364486688138E-075
   88.8250000000000        -3.060181629110214E-075
   89.0150000000000        -3.400155240116158E-075
   89.2050000000000        -3.462702987358889E-075
   89.3950000000000        -3.098670932957770E-075
   89.5850000000000        -2.140353386475020E-075
   89.7750000000000        -4.144841466389028E-076
   89.9650000000000         2.237576163625169E-075
   90.1550000000000         5.931589291583995E-075
   90.3450000000000         1.070390485637568E-074
   90.5350000000000         1.646741287190450E-074
   90.7250000000000         2.296212274775449E-074
   90.9150000000000         2.970425485072600E-074
   91.1050000000000         3.593980522405601E-074
   91.2950000000000         4.061082934643165E-074
   91.4850000000000         4.234498647076282E-074
   91.6750000000000         3.948089573557177E-074
   91.8650000000000         3.014318056779882E-074
   92.0550000000000         1.238122329893375E-074
   92.2450000000000        -1.561595588455949E-074
   92.4350000000000        -5.522025472055264E-074
   92.6250000000000        -1.069789663954191E-073
   92.8150000000000        -1.701520281200644E-073
   93.0050000000000        -2.421949439527830E-073
   93.1950000000000        -3.182279305075227E-073
   93.3850000000000        -3.905524637236310E-073
   93.5750000000000        -4.482987508931977E-073
   93.7650000000000        -4.773096500340033E-073
   93.9550000000000        -4.603852505359274E-073
   94.1450000000000        -3.780238381720169E-073
   94.3350000000000        -2.097945790140402E-073
   94.5250000000000         6.354036039042055E-074
   94.7150000000000         4.570769325117575E-073
   94.9050000000000         9.779845740374880E-073
   95.0950000000000         1.620977043039649E-072
   95.2850000000000         2.363263781086399E-072
   95.4750000000000         3.159372565639618E-072
   95.6650000000000         3.936425363394332E-072
   95.8550000000000         4.590653420645243E-072
   96.0450000000000         4.986135206986544E-072
   96.2350000000000         4.956904606979878E-072
   96.4250000000000         4.313671756522882E-072
   96.6150000000000         2.856383426758002E-072
   96.8050000000000         3.936776228362254E-073
   96.9950000000000        -3.230088959859822E-072
   97.1850000000000        -8.100184233799914E-072
   97.3750000000000        -1.419005755701198E-071
   97.5650000000000        -2.131513918957114E-071
   97.7550000000000        -2.908536463861681E-071
   97.9450000000000        -3.686156517037078E-071
   98.1350000000000        -4.372261879371387E-071
   98.3250000000000        -4.845193266282459E-071
   98.5150000000000        -4.955319499288540E-071
   98.7050000000000        -4.530609810951087E-071
   98.8950000000000        -3.387254873849550E-071
   99.0850000000000        -1.346237022370567E-071
   99.2750000000000         1.743571248496257E-071
   99.4650000000000         5.975726187632947E-071
   99.6550000000000         1.135064576000637E-070
   99.8450000000000         1.773583616982578E-070
   100.035000000000         2.482478674195557E-070
   100.225000000000         3.209876360472543E-070
   100.415000000000         3.879715623455122E-070
   100.605000000000         4.390338454368898E-070
   100.795000000000         4.615447179212113E-070
   100.985000000000         4.408299834546006E-070
   101.175000000000         3.610000398637789E-070
   101.365000000000         2.062621172366031E-070
   101.555000000000        -3.723582710570248E-071
   101.745000000000        -3.790222236304801E-070
   101.935000000000        -8.214312716130606E-070
   102.125000000000        -1.356372231680612E-069
   102.315000000000        -1.961958879388313E-069
   102.505000000000        -2.599324124084058E-069
   102.695000000000        -3.210054648214652E-069
   102.885000000000        -3.714784950346975E-069
   103.075000000000        -4.013575460307797E-069
   103.265000000000        -3.988748221751433E-069
   103.455000000000        -3.510846154334868E-069
   103.645000000000        -2.448296836188518E-069
   103.835000000000        -6.811782194920343E-070
   104.025000000000         1.880816253252055E-069
   104.215000000000         5.276543952647685E-069
   104.405000000000         9.468600476261643E-069
   104.595000000000         1.431709590706553E-068
   104.785000000000         1.955435585682182E-068
   104.975000000000         2.476369149351396E-068
   105.165000000000         2.936615736647390E-068
   105.355000000000         3.261985871042157E-068
   105.545000000000         3.363676008331467E-068
   105.735000000000         3.142194554261616E-068
   105.925000000000         2.493973817874153E-068
   106.115000000000         1.320985762114263E-068
   106.305000000000        -4.565248139922849E-069
   106.495000000000        -2.884370087937335E-068
   106.685000000000        -5.956378315391429E-068
   106.875000000000        -9.595018961860057E-068
   107.065000000000        -1.363226656936608E-067
   107.255000000000        -1.779284433237560E-067
   107.445000000000        -2.168253992553143E-067
   107.635000000000        -2.478475565070021E-067
   107.825000000000        -2.646876178733840E-067
   108.015000000000        -2.601317317765598E-067
   108.205000000000        -2.264786474339800E-067
   108.395000000000        -1.561678329707992E-067
   108.585000000000        -4.262814413383676E-068
   108.775000000000         1.186603613681945E-067
   108.965000000000         3.289240559923950E-067
   109.155000000000         5.847363961972517E-067
   109.345000000000         8.766407986536470E-067
   109.535000000000         1.187893148508545E-066
   109.725000000000         1.493499070626589E-066
   109.915000000000         1.759754204724744E-066
   110.105000000000         1.944519105294559E-066