  -1.42500000000000         0.000000000000000E+000
  -1.23500000000000         0.000000000000000E+000
  -1.04500000000000         0.000000000000000E+000
 -0.855000000000000         0.000000000000000E+000
 -0.665000000000000         0.000000000000000E+000
 -0.475000000000000         0.000000000000000E+000
 -0.285000000000000         0.000000000000000E+000
 -9.499999999999975E-002    0.000000000000000E+000
  9.500000000000020E-002    0.000000000000000E+000
  0.285000000000000         0.000000000000000E+000
  0.475000000000000         0.000000000000000E+000
  0.665000000000000         0.000000000000000E+000
  0.855000000000000         0.000000000000000E+000
   1.04500000000000         0.000000000000000E+000
   1.23500000000000         0.000000000000000E+000
   1.42500000000000         0.000000000000000E+000
   1.61500000000000         0.000000000000000E+000
   1.80500000000000         0.000000000000000E+000
   1.99500000000000         0.000000000000000E+000
   2.18500000000000         0.000000000000000E+000
   2.37500000000000         0.000000000000000E+000
   2.56500000000000         0.000000000000000E+000
   2.75500000000000         0.000000000000000E+000
   2.94500000000000         0.000000000000000E+000
   3.13500000000000         0.000000000000000E+000
   3.32500000000000         0.000000000000000E+000
   3.51500000000000         0.000000000000000E+000
   3.70500000000000         0.000000000000000E+000
   3.89500000000000         0.000000000000000E+000
   4.08500000000000         0.000000000000000E+000
   4.27500000000000         0.000000000000000E+000
   4.46500000000000         0.000000000000000E+000
   4.65500000000000         0.000000000000000E+000
   4.84500000000000         0.000000000000000E+000
   5.03500000000000         0.000000000000000E+000
   5.22500000000000         0.000000000000000E+000
   5.41500000000000         0.000000000000000E+000
   5.60500000000000         0.000000000000000E+000
   5.79500000000000         0.000000000000000E+000
   5.98500000000000         0.000000000000000E+000
   6.17500000000000         0.000000000000000E+000
   6.36500000000000         0.000000000000000E+000
   6.55500000000000         0.000000000000000E+000
   6.74500000000000         0.000000000000000E+000
   6.93500000000000        -3.453441360425660E-189
   7.12500000000000        -3.926835411567190E-177
   7.31500000000000        -1.442566211881678E-175
   7.50500000000000         3.423519000341695E-174
   7.69500000000000         3.918968282123753E-172
   7.88500000000000         1.478159963466596E-170
   8.07500000000000         3.595044597705479E-169
   8.26500000000000         6.551136494257241E-168
   8.45500000000000         9.589061667793026E-167
   8.64500000000000         1.176278642777632E-165
   8.83500000000000         1.247546975471551E-164
   9.02500000000000         1.175602154628300E-163
   9.21500000000000         1.012081047243180E-162
   9.40500000000000         8.206996151257594E-162
   9.59500000000000         6.466553043009556E-161
   9.78500000000000         5.071136747693635E-160
   9.97500000000000         3.990806168151014E-159
   10.1650000000000         3.125325700777136E-158
   10.3550000000000         2.395116193666091E-157
   10.5450000000000         1.767784258926584E-156
   10.7350000000000         1.243056911244272E-155
   10.9250000000000         8.280154763067794E-155
   11.1150000000000         5.214255829649519E-154
   11.3050000000000         3.104742704631486E-153
   11.4950000000000         1.750294975916806E-152
   11.6850000000000         9.359336445489921E-152
   11.8750000000000         4.756498652364256E-151
   12.0650000000000         2.301843884329668E-150
   12.2550000000000         1.062620772572916E-149
   12.4450000000000         4.686691050851733E-149
   12.6350000000000         1.977419673133100E-148
   12.8250000000000         7.989287810294877E-148
   13.0150000000000         3.093021256513846E-147
   13.2050000000000         1.147744194984369E-146
   13.3950000000000         4.081424010204107E-146
   13.5850000000000         1.389742227279330E-145
   13.7750000000000         4.523733003683279E-145
   13.9650000000000         1.403587445413924E-144
   14.1550000000000         4.130751672499357E-144
   14.3450000000000         1.143414329159928E-143
   14.5350000000000         2.931517938011198E-143
   14.7250000000000         6.746343016271517E-143
   14.9150000000000         1.286986676391777E-142
   15.1050000000000         1.452841352835341E-142
   15.2950000000000        -2.890412200234863E-142
   15.4850000000000        -2.882951150926708E-141
   15.6750000000000        -1.379267297878326E-140
   15.8650000000000        -5.316925335281379E-140
   16.0550000000000        -1.824628257083579E-139
   16.2450000000000        -5.784823050783863E-139
   16.4350000000000        -1.724512364091374E-138
   16.6250000000000        -4.879808014194199E-138
   16.8150000000000        -1.317543783195212E-137
   17.0050000000000        -3.403231690178633E-137
   17.1950000000000        -8.415450388687416E-137
   17.3850000000000        -1.989870475414841E-136
   17.5750000000000        -4.484233216094597E-136
   17.7650000000000        -9.567979091857386E-136
   17.9550000000000        -1.909361101290586E-135
   18.1450000000000        -3.477573776123391E-135
   18.3350000000000        -5.459271535261115E-135
   18.5250000000000        -6.090059166177304E-135
   18.7150000000000         1.305609990117941E-135
   18.9050000000000         3.687124671052511E-134
   19.0950000000000         1.545479937040818E-133
   19.2850000000000         4.875040369183971E-133
   19.4750000000000         1.344049276035947E-132
   19.6650000000000         3.398863877927754E-132
   19.8550000000000         8.050918081213199E-132
   20.0450000000000         1.804341649148146E-131
   20.2350000000000         3.842553253242516E-131
   20.4250000000000         7.777533893532371E-131
   20.6150000000000         1.490355725938895E-130
   20.8050000000000         2.677353141328991E-130
   20.9950000000000         4.414743612515034E-130
   21.1850000000000         6.356298116374490E-130
   21.3750000000000         6.809251075261155E-130
   21.5650000000000         4.841808514158723E-131
   21.7550000000000        -2.662757024555818E-129
   21.9450000000000        -1.083516669980657E-128
   22.1350000000000        -3.214414446342123E-128
   22.3250000000000        -8.321337547963542E-128
   22.5150000000000        -1.987257761424266E-127
   22.7050000000000        -4.487946601070611E-127
   22.8950000000000        -9.712954093354613E-127
   23.0850000000000        -2.030679274789567E-126
   23.2750000000000        -4.122591856010434E-126
   23.4650000000000        -8.155817499929189E-126
   23.6550000000000        -1.576133987796416E-125
   23.8450000000000        -2.980408198880179E-125
   24.0350000000000        -5.520600428558460E-125
   24.2250000000000        -1.002247964342066E-124
   24.4150000000000        -1.783541257417453E-124
   24.6050000000000        -3.109785687461703E-124
   24.7950000000000        -5.307391799196118E-124
   24.9850000000000        -8.850611961335928E-124
   25.1750000000000        -1.438111342534182E-123
   25.3650000000000        -2.266940455380455E-123
   25.5550000000000        -3.442581639162762E-123
   25.7450000000000        -4.977461377858289E-123
   25.9350000000000        -6.703427095008877E-123
   26.1250000000000        -8.014900488179385E-123
   26.3150000000000        -7.361350078223537E-123
   26.5050000000000        -1.291082262653856E-123
   26.6950000000000         1.728139974786248E-122
   26.8850000000000         6.210954914362186E-122
   27.0750000000000         1.587629061999538E-121
   27.2650000000000         3.530978991992199E-121
   27.4550000000000         7.247654693389136E-121
   27.6450000000000         1.408035420062564E-120
   27.8350000000000         2.622684761672969E-120
   28.0250000000000         4.717686266730515E-120
   28.2150000000000         8.229144732228846E-120
   28.4050000000000         1.394980686122075E-119
   28.5950000000000         2.299765415447232E-119
   28.7850000000000         3.685054560152427E-119
   28.9750000000000         5.727412917169224E-119
   29.1650000000000         8.599759566044453E-119
   29.3550000000000         1.238652189122404E-118
   29.5450000000000         1.689803693887859E-118
   29.7350000000000         2.130216750691993E-118
   29.9250000000000         2.343996927344440E-118
   30.1150000000000         1.861935729802842E-118
   30.3050000000000        -2.414435647237471E-119
   30.4950000000000        -5.673973618375835E-118
   30.6850000000000        -1.742416055970123E-117
   30.8750000000000        -4.047791073063256E-117
   31.0650000000000        -8.276698638076935E-117
   31.2550000000000        -1.562629382427963E-116
   31.4450000000000        -2.778959221596464E-116
   31.6350000000000        -4.694883013099188E-116
   31.8250000000000        -7.549431841762586E-116
   32.0150000000000        -1.151180217667430E-115
   32.2050000000000        -1.646225584332535E-115
   32.3950000000000        -2.152604638173557E-115
   32.5850000000000        -2.415499669149779E-115
   32.7750000000000        -1.841203196154595E-115
   32.9650000000000         8.103117151265912E-116
   33.1550000000000         7.957704258324410E-115
   33.3450000000000         2.409245341724855E-114
   33.5350000000000         5.723934179591902E-114
   33.7250000000000         1.212776015018288E-113
   33.9150000000000         2.395282794181501E-113
   34.1050000000000         4.501338408768411E-113
   34.2950000000000         8.138510326824892E-113
   34.4850000000000         1.424868448642124E-112
   34.6750000000000         2.424985366487974E-112
   34.8650000000000         4.020644571469659E-112
   35.0550000000000         6.500355400723569E-112
   35.2450000000000         1.024604423683514E-111
   35.4350000000000         1.572430337078497E-111
   35.6250000000000         2.342997925206918E-111
   35.8150000000000         3.373145091417005E-111
   36.0050000000000         4.652918299803838E-111
   36.1950000000000         6.057990456723743E-111
   36.3850000000000         7.224991593333423E-111
   36.5750000000000         7.333440855266378E-111
   36.7650000000000         4.741048587011818E-111
   36.9550000000000        -3.601484775477707E-111
   37.1450000000000        -2.305160834355193E-110
   37.3350000000000        -6.260273409103069E-110
   37.5250000000000        -1.367435966296333E-109
   37.7150000000000        -2.678994541562208E-109
   37.9050000000000        -4.893551338324456E-109
   38.0950000000000        -8.482389456544173E-109
   38.2850000000000        -1.407542515152306E-108
   38.4750000000000        -2.245107218478056E-108
   38.6650000000000        -3.445819423937310E-108
   38.8550000000000        -5.080688218854463E-108
   39.0450000000000        -7.162806342333856E-108
   39.2350000000000        -9.565299695570854E-108
   39.4250000000000        -1.188041729312738E-107
   39.6150000000000        -1.319264245637322E-107
   39.8050000000000        -1.173388863344634E-107
   39.9950000000000        -4.388931598869203E-108
   40.1850000000000         1.396978477692041E-107
   40.3750000000000         5.130739802706745E-107
   40.5650000000000         1.193353348142771E-106
   40.7550000000000         2.343068155115432E-106
   40.9450000000000         4.173038548094025E-106
   41.1350000000000         6.933157383986567E-106
   41.3250000000000         1.087973186995341E-105
   41.5150000000000         1.620224066711088E-105
   41.7050000000000         2.288536293686904E-105
   41.8950000000000         3.047474004804498E-105
   42.0850000000000         3.770900990792729E-105
   42.2750000000000         4.197968637116364E-105
   42.4650000000000         3.859021031086993E-105
   42.6550000000000         1.981474105155392E-105
   42.8450000000000        -2.618170221069606E-105
   43.0350000000000        -1.163913964090789E-104
   43.2250000000000        -2.736350635079611E-104
   43.4150000000000        -5.262512444703719E-104
   43.6050000000000        -9.058427284284761E-104
   43.7950000000000        -1.441668762986133E-103
   43.9850000000000        -2.149762082552380E-103
   44.1750000000000        -3.014367192109416E-103
   44.3650000000000        -3.959008369327294E-103
   44.5550000000000        -4.804684226082352E-103
   44.7450000000000        -5.213780024036607E-103
   44.9350000000000        -4.620891497929002E-103
   45.1250000000000        -2.156639287928154E-103
   45.3150000000000         3.421381494262307E-103
   45.5050000000000         1.376423968206708E-102
   45.6950000000000         3.089080178978200E-102
   45.8850000000000         5.700585902079721E-102
   46.0750000000000         9.408819724863796E-102
   46.2650000000000         1.431356022440977E-101
   46.4550000000000         2.029375778388805E-101
   46.6450000000000         2.682499486081357E-101
   46.8350000000000         3.272863146774795E-101
   47.0250000000000         3.585439777872373E-101
   47.2150000000000         3.271771761585615E-101
   47.4050000000000         1.814527422180306E-101
   47.5950000000000        -1.496948983909416E-101
   47.7850000000000        -7.563313009891436E-101
   47.9750000000000        -1.741903308629950E-100
   48.1650000000000        -3.208888874099660E-100
   48.3550000000000        -5.231378863742856E-100
   48.5450000000000        -7.809684435712815E-100
   48.7350000000000        -1.080225813992628E-099
   48.9250000000000        -1.383181918994710E-099
   49.1150000000000        -1.616643829536930E-099
   49.3050000000000        -1.658349722843868E-099
   49.4950000000000        -1.323599137086975E-099
   49.6850000000000        -3.557527651842467E-100
   49.8750000000000         1.573502281405806E-099
   50.0650000000000         4.845466638004549E-099
   50.2550000000000         9.845676622304009E-099
   50.4450000000000         1.687077953162416E-098
   50.6350000000000         2.597536738451719E-098
   50.8250000000000         3.674451874303927E-098
   51.0150000000000         4.798406372850480E-098
   51.2050000000000         5.733432821597242E-098
   51.3950000000000         6.083733988792809E-098
   51.5850000000000         5.252515165465489E-098
   51.7750000000000         2.415017847495195E-098
   51.9650000000000        -3.475271494851737E-098
   52.1550000000000        -1.362020384764102E-097
   52.3450000000000        -2.921507693146361E-097
   52.5350000000000        -5.114950724769224E-097
   52.7250000000000        -7.952761492774902E-097
   52.9150000000000        -1.129716951134000E-096
   53.1050000000000        -1.476964677595784E-096
   53.2950000000000        -1.763864577908560E-096
   53.4850000000000        -1.869848439669186E-096
   53.6750000000000        -1.616150897387158E-096
   53.8650000000000        -7.601032894932366E-097
   54.0550000000000         9.998369024044636E-097
   54.2450000000000         4.000537688058196E-096
   54.4350000000000         8.562335118767941E-096
   54.6250000000000         1.489777243778856E-095
   54.8150000000000         2.297013647856051E-095
   55.0050000000000         3.229413561500356E-095
   55.1950000000000         4.167864839757763E-095
   55.3850000000000         4.892533345032356E-095
   55.5750000000000         5.051886937544802E-095
   55.7650000000000         4.137610156960339E-095
   55.9550000000000         1.476271911679742E-095
   56.1450000000000        -3.746449126603244E-095
   56.3350000000000        -1.240793468251455E-094
   56.5250000000000        -2.529159214875826E-094
   56.7150000000000        -4.282277153248536E-094
   56.9050000000000        -6.467224587207959E-094
   57.0950000000000        -8.921223179281800E-094
   57.2850000000000        -1.128321536356160E-093
   57.4750000000000        -1.291598198168151E-093
   57.6650000000000        -1.282925245207017E-093
   57.8550000000000        -9.622459473070847E-094
   58.0450000000000        -1.476280849375907E-094
   58.2350000000000         1.376567128982367E-093
   58.4250000000000         3.837109971832074E-093
   58.6150000000000         7.428495742242798E-093
   58.8050000000000         1.224187400089859E-092
   58.9950000000000         1.816027915019230E-092
   59.1850000000000         2.471689585695773E-092
   59.3750000000000         3.091875019970953E-092
   59.5650000000000         3.504776178279663E-092
   59.7550000000000         3.446544206485001E-092
   59.9450000000000         2.546726330561335E-092
   60.1350000000000         3.257722635384967E-093
   60.3250000000000        -3.785395951117857E-092
   60.5150000000000        -1.039079281713091E-091
   60.7050000000000        -2.002433644188865E-091
   60.8950000000000        -3.297788907146190E-091
   61.0850000000000        -4.904749447064603E-091
   61.2750000000000        -6.718887969883103E-091
   61.4650000000000        -8.508556748799393E-091
   61.6550000000000        -9.865372746903785E-091
   61.8450000000000        -1.015392031710994E-090
   62.0350000000000        -8.470535115946591E-091
   62.2250000000000        -3.626537576124883E-091
   62.4150000000000         5.822271288884578E-091
   62.6050000000000         2.147126381498595E-090
   62.7950000000000         4.485320699395563E-090
   62.9850000000000         7.707700664446148E-090
   63.1750000000000         1.182825010820575E-089
   63.3650000000000         1.668847267301742E-089
   63.5550000000000         2.186032977250338E-089
   63.7450000000000         2.653115174067551E-089
   63.9350000000000         2.937998922996760E-089
   64.1250000000000         2.846331612348266E-089
   64.3150000000000         2.113897708427147E-089
   64.5050000000000         4.070481004868874E-090
   64.6950000000000        -2.663176668302798E-089
   64.8850000000000        -7.506175215848370E-089
   65.0750000000000        -1.448806904384214E-088
   65.2650000000000        -2.383078706208248E-088
   65.4550000000000        -3.546671007954613E-088
   65.6450000000000        -4.884484580163568E-088
   65.8350000000000        -6.269065021177320E-088
   66.0250000000000        -7.473155598936798E-088
   66.2150000000000        -8.141477312699674E-088
   66.4050000000000        -7.766344247687759E-088
   66.5950000000000        -5.674161036443119E-088
   66.7850000000000        -1.032666179961403E-088
   66.9750000000000         7.108266582618457E-088
   67.1650000000000         1.972680734497316E-087
   67.3550000000000         3.767317643519100E-087
   67.5450000000000         6.143051096790771E-087
   67.7350000000000         9.077887871857414E-087
   67.9250000000000         1.243564816211048E-086
   68.1150000000000         1.591259321507113E-086
   68.3050000000000         1.897749805477405E-086
   68.4950000000000         2.081114970187661E-086
   68.6850000000000         2.025524634443357E-086
   68.8750000000000         1.578555843117639E-086
   69.0650000000000         5.529740033018592E-087
   69.2550000000000        -1.264416269097926E-086
   69.4450000000000        -4.093752165616708E-086
   69.6350000000000        -8.129532150026357E-086
   69.8250000000000        -1.349115739805621E-085
   70.0150000000000        -2.015394806226210E-085
   70.2050000000000        -2.785951034731129E-085
   70.3950000000000        -3.600699308821585E-085
   70.5850000000000        -4.353085432191934E-085
   70.7750000000000        -4.877648440480124E-085
   70.9650000000000        -4.939250473355740E-085
   71.1550000000000        -4.226766840238972E-085
   71.3450000000000        -2.355059335864031E-085
   71.5350000000000         1.119883339153739E-085
   71.7250000000000         6.666811520888389E-085
   71.9150000000000         1.471965617395446E-084
   72.1050000000000         2.558615121958910E-084
   72.2950000000000         3.931930238987353E-084
   72.4850000000000         5.554891325964980E-084
   72.6750000000000         7.327491579872063E-084
   72.8650000000000         9.063128854661075E-084
   73.0550000000000         1.046393091302138E-083
   73.2450000000000         1.109820169129723E-083
   73.4350000000000         1.038479513849982E-083
   73.6250000000000         7.591084608816306E-084
   73.8150000000000         1.853160648682015E-084
   74.0050000000000        -7.771280026090826E-084
   74.1950000000000        -2.220555749200644E-083
   74.3850000000000        -4.220001059355508E-083
   74.5750000000000        -6.811055849001564E-083
   74.7650000000000        -9.960275664043313E-083
   74.9550000000000        -1.352813717287602E-082
   75.1450000000000        -1.722568485560522E-082
   75.3350000000000        -2.056764790808932E-082
   75.5250000000000        -2.282701633916411E-082
   75.7150000000000        -2.299884034023277E-082
   75.9050000000000        -1.978427788166572E-082
   76.0950000000000        -1.160945859593223E-082
   76.2850000000000         3.302810305615738E-083
   76.4750000000000         2.678767173345144E-082
   76.6650000000000         6.049703132822888E-082
   76.8550000000000         1.055416325422368E-081
   77.0450000000000         1.620005779403082E-081
   77.2350000000000         2.282929967708499E-081
   77.4250000000000         3.004241030541462E-081
   77.6150000000000         3.711439719137927E-081
   77.8050000000000         4.290930972640156E-081
   77.9950000000000         4.580544909637458E-081
   78.1850000000000         4.364867290938645E-081
   78.3750000000000         3.375729854123626E-081
   78.5650000000000         1.300821156879072E-081
   78.7550000000000        -2.196096670601619E-081
   78.9450000000000        -7.439569270464071E-081
   79.1350000000000        -1.468770855952587E-080
   79.3250000000000        -2.405528135618309E-080
   79.5150000000000        -3.541310078330844E-080
   79.7050000000000        -4.826482143328178E-080
   79.8950000000000        -6.160622463028571E-080
   80.0850000000000        -7.377761053708973E-080
   80.2750000000000        -8.232705407090305E-080
   80.4650000000000        -8.391089261701320E-080
   80.6550000000000        -7.426745700799899E-080
   80.8450000000000        -4.830989054216100E-080
   81.0350000000000        -3.925734241994161E-082
   81.2250000000000         7.518876239561287E-080
   81.4150000000000         1.834032637653331E-079
   81.6050000000000         3.273465743492908E-079
   81.7950000000000         5.067284539799196E-079
   81.9850000000000         7.159950363852028E-079
   82.1750000000000         9.421524672621630E-079
   82.3650000000000         1.162439545854383E-078
   82.5550000000000         1.342101491365441E-078
   82.7450000000000         1.432642907747836E-078
   82.9350000000000         1.371078921877697E-078
   83.1250000000000         1.080847043504879E-078
   83.3150000000000         4.751691287290301E-079
   83.5050000000000        -5.362646789456507E-079
   83.6950000000000        -2.036416219913470E-078
   83.8850000000000        -4.085072835112926E-078
   84.0750000000000        -6.697620909171217E-078
   84.2650000000000        -9.818490807568084E-078
   84.4550000000000        -1.329014318621617E-077
   84.6450000000000        -1.681957236298870E-077
   84.8350000000000        -1.994572191470967E-077
   85.0250000000000        -2.201290613962455E-077
   85.2150000000000        -2.215721535051956E-077
   85.4050000000000        -1.931478407935265E-077
   85.5950000000000        -1.226245840647634E-077
   85.7850000000000         2.975516698164853E-079
   85.9750000000000         1.959747476218388E-077
   86.1650000000000         4.659833782694516E-077
   86.3550000000000         8.171290689081305E-077
   86.5450000000000         1.244580414278946E-076
   86.7350000000000         1.730475396324240E-076
   86.9250000000000         2.239505824149855E-076
   87.1150000000000         2.714587021080166E-076
   87.3050000000000         3.073252821632941E-076
   87.4950000000000         3.205646890909845E-076
   87.6850000000000         2.975210852422100E-076
   87.8750000000000         2.223365311571396E-076
   88.0650000000000         7.795974764266558E-077
   88.2550000000000        -1.521646922394044E-076
   88.4450000000000        -4.816084567688933E-076
   88.6350000000000        -9.176029908890847E-076
   88.8250000000000        -1.456826961710385E-075
   89.0150000000000        -2.080472009950966E-075
   89.2050000000000        -2.748885952954525E-075
   89.3950000000000        -3.396299145147344E-075
   89.5850000000000        -3.926380907478479E-075
   89.7750000000000        -4.209633432007851E-075
   89.9650000000000        -4.083884883201262E-075
   90.1550000000000        -3.359354489830288E-075
   90.3450000000000        -1.829880952399343E-075
   90.5350000000000         7.081293555924706E-076
   90.7250000000000         4.427735938924369E-075
   90.9150000000000         9.433735999739177E-075
   91.1050000000000         1.571535278220025E-074
   91.2950000000000         2.309086198488046E-074
   91.4850000000000         3.114746793384427E-074
   91.6750000000000         3.918195684377032E-074
   91.8650000000000         4.615020831336154E-074
   92.0550000000000         5.063636545953388E-074
   92.2450000000000         5.085507316695637E-074
   92.4350000000000         4.470230222340127E-074
   92.6250000000000         2.987137637314636E-074
   92.8150000000000         4.050294993142036E-075
   93.0050000000000        -3.478639431247810E-074
   93.1950000000000        -8.798378370891548E-074
   93.3850000000000        -1.557130079053367E-073
   93.5750000000000        -2.363937199238952E-073
   93.7650000000000        -3.260665332447518E-073
   93.9550000000000        -4.177713869368164E-073
   94.1450000000000        -5.010129284484042E-073
   94.3350000000000        -5.614204454421828E-073
   94.5250000000000        -5.807348684737394E-073
   94.7150000000000        -5.372751084938231E-073
   94.9050000000000        -4.070456341192717E-073
   95.0950000000000        -1.656409703595777E-073
   95.2850000000000         2.089256422357948E-073
   95.4750000000000         7.323992664532541E-073
   95.6650000000000         1.409487217178849E-072
   95.8550000000000         2.228240904543100E-072
   96.0450000000000         3.153935517024042E-072
   96.2350000000000         4.122972283197986E-072
   96.4250000000000         5.037559267676395E-072
   96.6150000000000         5.762167550676681E-072
   96.8050000000000         6.122984969844438E-072
   96.9950000000000         5.911765047354449E-072
   97.1850000000000         4.895551165097705E-072
   97.3750000000000         2.833695038510481E-072
   97.5650000000000        -4.966707065668479E-073
   97.7550000000000        -5.266057853526554E-072
   97.9450000000000        -1.154910926924124E-071
   98.1350000000000        -1.927345261826745E-071
   98.3250000000000        -2.816370441085251E-071
   98.5150000000000        -3.768518703014080E-071
   98.7050000000000        -4.699391850814896E-071
   98.8950000000000        -5.490150431175493E-071
   99.0850000000000        -5.986548702877723E-071
   99.2750000000000        -6.001720499676305E-071
   99.4650000000000        -5.323991628449145E-071
   99.6550000000000        -3.730944548375786E-071
   99.8450000000000        -1.010746239646722E-071
   100.035000000000         3.008673196158011E-071
   100.225000000000         8.422672722296393E-071
   100.415000000000         1.520620336595368E-070
   100.605000000000         2.316559209142586E-070
   100.795000000000         3.188948949255549E-070
   100.985000000000         4.070429137243188E-070
   101.175000000000         4.864102886383031E-070
   101.365000000000         5.442229288725548E-070
   101.555000000000         5.647898931882121E-070
   101.745000000000         5.300733145723879E-070
   101.935000000000         4.207614482086296E-070
   102.125000000000         2.179294313594248E-070
   102.315000000000        -9.465999983000285E-071
   102.505000000000        -5.276149428081338E-070
   102.695000000000        -1.082403166981945E-069
   102.885000000000        -1.747435709129702E-069
   103.075000000000        -2.494021448113796E-069
   103.265000000000        -3.272594384046666E-069
   103.455000000000        -4.009745772379341E-069
   103.645000000000        -4.606715922693915E-069
   103.835000000000        -4.940098570130976E-069
   104.025000000000        -4.865563646100888E-069
   104.215000000000        -4.225388393895197E-069
   104.405000000000        -2.860476944094768E-069
   104.595000000000        -6.273202129157712E-070
   104.785000000000         2.580019500590130E-069
   104.975000000000         6.803335012676521E-069
   105.165000000000         1.199022226812544E-068
   105.355000000000         1.796247481193660E-068
   105.545000000000         2.438576857808563E-068
   105.735000000000         3.074444364359618E-068
   105.925000000000         3.632610788427977E-068
   106.115000000000         4.022154415151795E-068
   106.305000000000         4.134585378031396E-068
   106.495000000000         3.848674985834728E-068
   106.685000000000         3.038524744615209E-068
   106.875000000000         1.585251225985984E-068
   107.065000000000        -6.075824608916129E-069
   107.255000000000        -3.595010070373125E-068
   107.445000000000        -7.368863307194339E-068
   107.635000000000        -1.183437524207507E-067
   107.825000000000        -1.678707045446042E-067
   108.015000000000        -2.189250472126366E-067
   108.205000000000        -2.667207626196969E-067
   108.395000000000        -3.049869332375489E-067
   108.585000000000        -3.260645391486007E-067
   108.775000000000        -3.211856280084069E-067
   108.965000000000        -2.809736018286867E-067
   109.155000000000        -1.961944867312969E-067
   109.345000000000        -5.877377127373109E-068
   109.535000000000         1.369290167570890E-067
   109.725000000000         3.926256251595158E-067
   109.915000000000         7.044586635951928E-067
   110.105000000000         1.061332222954918E-066