  -1.42500000000000         0.000000000000000E+000
  -1.23500000000000         0.000000000000000E+000
  -1.04500000000000         0.000000000000000E+000
 -0.855000000000000         0.000000000000000E+000
 -0.665000000000000         0.000000000000000E+000
 -0.475000000000000         0.000000000000000E+000
 -0.285000000000000         0.000000000000000E+000
 -9.499999999999975E-002    0.000000000000000E+000
  9.500000000000020E-002    0.000000000000000E+000
  0.285000000000000         0.000000000000000E+000
  0.475000000000000         0.000000000000000E+000
  0.665000000000000         0.000000000000000E+000
  0.855000000000000         0.000000000000000E+000
   1.04500000000000         0.000000000000000E+000
   1.23500000000000         0.000000000000000E+000
   1.42500000000000         0.000000000000000E+000
   1.61500000000000         0.000000000000000E+000
   1.80500000000000         0.000000000000000E+000
   1.99500000000000         0.000000000000000E+000
   2.18500000000000         0.000000000000000E+000
   2.37500000000000         0.000000000000000E+000
   2.56500000000000         0.000000000000000E+000
   2.75500000000000         0.000000000000000E+000
   2.94500000000000         0.000000000000000E+000
   3.13500000000000         0.000000000000000E+000
   3.32500000000000         0.000000000000000E+000
   3.51500000000000         0.000000000000000E+000
   3.70500000000000         0.000000000000000E+000
   3.89500000000000         0.000000000000000E+000
   4.08500000000000         0.000000000000000E+000
   4.27500000000000         0.000000000000000E+000
   4.46500000000000         0.000000000000000E+000
   4.65500000000000         0.000000000000000E+000
   4.84500000000000         0.000000000000000E+000
   5.03500000000000         0.000000000000000E+000
   5.22500000000000         0.000000000000000E+000
   5.41500000000000         0.000000000000000E+000
   5.60500000000000         0.000000000000000E+000
   5.79500000000000         0.000000000000000E+000
   5.98500000000000         0.000000000000000E+000
   6.17500000000000         0.000000000000000E+000
   6.36500000000000         0.000000000000000E+000
   6.55500000000000         0.000000000000000E+000
   6.74500000000000        -9.566319557965816E-188
   6.93500000000000        -1.087766041983458E-175
   7.12500000000000        -3.778475079363902E-174
   7.31500000000000         1.027176013104283E-172
   7.50500000000000         1.066220314655135E-170
   7.69500000000000         3.878456924443644E-169
   7.88500000000000         9.150502973114360E-168
   8.07500000000000         1.619642430568092E-166
   8.26500000000000         2.303264491667211E-165
   8.45500000000000         2.745286830792323E-164
   8.64500000000000         2.830693375578441E-163
   8.83500000000000         2.597937800448107E-162
   9.02500000000000         2.186803562526970E-161
   9.21500000000000         1.745261571255973E-160
   9.40500000000000         1.364643190438326E-159
   9.59500000000000         1.069223296566288E-158
   9.78500000000000         8.424499581834854E-158
   9.97500000000000         6.586913669318198E-157
   10.1650000000000         5.013737161197157E-156
   10.3550000000000         3.656549244324480E-155
   10.5450000000000         2.530335793339657E-154
   10.7350000000000         1.653966583510224E-153
   10.9250000000000         1.020091570127531E-152
   11.1150000000000         5.940978078482716E-152
   11.3050000000000         3.272822696085884E-151
   11.4950000000000         1.708925419423672E-150
   11.6850000000000         8.475514850022032E-150
   11.8750000000000         4.000380937151567E-149
   12.0650000000000         1.800047042190099E-148
   12.2550000000000         7.733057878501021E-148
   12.4450000000000         3.175466870415637E-147
   12.6350000000000         1.247400988674197E-146
   12.8250000000000         4.689489367778894E-146
   13.0150000000000         1.687071528489055E-145
   13.2050000000000         5.803982675586572E-145
   13.3950000000000         1.906459403703451E-144
   13.5850000000000         5.962301800955758E-144
   13.7750000000000         1.766800740734631E-143
   13.9650000000000         4.919529313129739E-143
   14.1550000000000         1.267653017178529E-142
   14.3450000000000         2.930095420889966E-142
   14.5350000000000         5.614186895869940E-142
   14.7250000000000         6.395287172814208E-142
   14.9150000000000        -1.236835729421221E-141
   15.1050000000000        -1.249060451388856E-140
   15.2950000000000        -5.982228741263713E-140
   15.4850000000000        -2.303549001926131E-139
   15.6750000000000        -7.885556383981710E-139
   15.8650000000000        -2.490775401149962E-138
   16.0550000000000        -7.388529280179619E-138
   16.2450000000000        -2.077591633359998E-137
   16.4350000000000        -5.565832662298718E-137
   16.6250000000000        -1.423915281898919E-136
   16.8150000000000        -3.479570429938031E-136
   17.0050000000000        -8.106733494530091E-136
   17.1950000000000        -1.792530655665431E-135
   17.3850000000000        -3.728635191505974E-135
   17.5750000000000        -7.172806468374060E-135
   17.7650000000000        -1.230439347724567E-134
   17.9550000000000        -1.705400229163318E-134
   18.1450000000000        -1.145388045165978E-134
   18.3350000000000         3.742133319173225E-134
   18.5250000000000         2.223395231914524E-133
   18.7150000000000         7.803315114712445E-133
   18.9050000000000         2.274545990945969E-132
   19.0950000000000         5.963415407777248E-132
   19.2850000000000         1.450385584219489E-131
   19.4750000000000         3.319305714056108E-131
   19.6650000000000         7.194569532946379E-131
   19.8550000000000         1.479347425757014E-130
   20.0450000000000         2.878010424009812E-130
   20.2350000000000         5.254207856497199E-130
   20.4250000000000         8.839453533425811E-130
   20.6150000000000         1.314113791702047E-129
   20.8050000000000         1.524634503589881E-129
   20.9950000000000         5.655513370454700E-130
   21.1850000000000        -4.123549986074219E-129
   21.3750000000000        -1.877568748679211E-128
   21.5650000000000        -5.758083344356999E-128
   21.7550000000000        -1.512807358879044E-127
   21.9450000000000        -3.638938528632656E-127
   22.1350000000000        -8.243837466094057E-127
   22.3250000000000        -1.785129353090778E-126
   22.5150000000000        -3.727326407253273E-126
   22.7050000000000        -7.546589065478275E-126
   22.8950000000000        -1.487210848270652E-125
   23.0850000000000        -2.860190348384378E-125
   23.2750000000000        -5.377598511628507E-125
   23.4650000000000        -9.895558820266517E-125
   23.6550000000000        -1.783163360887163E-124
   23.8450000000000        -3.146587309126093E-124
   24.0350000000000        -5.434035970038548E-124
   24.2250000000000        -9.171893949838439E-124
   24.4150000000000        -1.509559936201832E-123
   24.6050000000000        -2.413744270609881E-123
   24.7950000000000        -3.727462743505257E-123
   24.9850000000000        -5.504934354199658E-123
   25.1750000000000        -7.639306549741949E-123
   25.3650000000000        -9.606982574405354E-123
   25.5550000000000        -9.951206507291418E-123
   25.7450000000000        -5.293240400417200E-123
   25.9350000000000         1.148178182770303E-122
   26.1250000000000         5.443279233036998E-122
   26.3150000000000         1.500475735627101E-121
   26.5050000000000         3.463217228517079E-121
   26.6950000000000         7.273038056854024E-121
   26.8850000000000         1.435601320237467E-120
   27.0750000000000         2.705862491494022E-120
   27.2650000000000         4.912259754582483E-120
   27.4550000000000         8.631644891522336E-120
   27.6450000000000         1.471965071708463E-119
   27.8350000000000         2.438648652208150E-119
   28.0250000000000         3.923703491525718E-119
   28.2150000000000         6.119677738209347E-119
   28.4050000000000         9.216579402381349E-119
   28.5950000000000         1.331037161717556E-118
   28.7850000000000         1.820136322192804E-118
   28.9750000000000         2.299136542544131E-118
   29.1650000000000         2.533007413585485E-118
   29.3550000000000         2.007625270013744E-118
   29.5450000000000        -2.974639324465801E-119
   29.7350000000000        -6.277919117775238E-118
   29.9250000000000        -1.927538432670485E-117
   30.1150000000000        -4.491185864224353E-117
   30.3050000000000        -9.222024263505535E-117
   30.4950000000000        -1.750043459189282E-116
   30.6850000000000        -3.131180950029349E-116
   30.8750000000000        -5.328345008090155E-116
   31.0650000000000        -8.644564047615001E-116
   31.2550000000000        -1.333435790992333E-115
   31.4450000000000        -1.937933385967375E-115
   31.6350000000000        -2.600069355015714E-115
   31.8250000000000        -3.068757635036898E-115
   32.0150000000000        -2.737072941106186E-115
   32.2050000000000        -3.139525533494948E-116
   32.3950000000000         6.744709774648173E-115
   32.5850000000000         2.319090038701960E-114
   32.7750000000000         5.754067696083107E-114
   32.9650000000000         1.245395465904884E-113
   33.1550000000000         2.489572469730286E-113
   33.3450000000000         4.712503938987900E-113
   33.5350000000000         8.557166572642472E-113
   33.7250000000000         1.501729036299488E-112
   33.9150000000000         2.558307023334338E-112
   34.1050000000000         4.241319400192724E-112
   34.2950000000000         6.850421721717076E-112
   34.4850000000000         1.077837955363477E-111
   34.6750000000000         1.649701626415058E-111
   34.8650000000000         2.448896466128043E-111
   35.0550000000000         3.506864284924271E-111
   35.2450000000000         4.799363705923164E-111
   35.4350000000000         6.170129494001025E-111
   35.6250000000000         7.190570029963061E-111
   35.8150000000000         6.914848813760316E-111
   36.0050000000000         3.470885000916098E-111
   36.1950000000000        -6.594765105546471E-111
   36.3850000000000        -2.932276661154353E-110
   36.5750000000000        -7.481555485283983E-110
   36.7650000000000        -1.592836868209132E-109
   36.9550000000000        -3.076894793790776E-109
   37.1450000000000        -5.568144648034500E-109
   37.3350000000000        -9.581644540477532E-109
   37.5250000000000        -1.579362742049442E-108
   37.7150000000000        -2.501380114948403E-108
   37.9050000000000        -3.806873466641179E-108
   38.0950000000000        -5.551793841438152E-108
   38.2850000000000        -7.708064648971221E-108
   38.4750000000000        -1.005948759372589E-107
   38.6650000000000        -1.202649832293343E-107
   38.8550000000000        -1.238917807651630E-107
   39.0450000000000        -8.874660104088931E-108
   39.2350000000000         2.420381043780365E-108
   39.4250000000000         2.778095385902194E-107
   39.6150000000000         7.675842066960438E-107
   39.8050000000000         1.630527205443283E-106
   39.9950000000000         3.050902864601793E-106
   40.1850000000000         5.257312153561617E-106
   40.3750000000000         8.501474664006257E-106
   40.5650000000000         1.300375177563892E-105
   40.7550000000000         1.884364504171559E-105
   40.9450000000000         2.576588484526170E-105
   41.1350000000000         3.286580748128275E-105
   41.3250000000000         3.811452385569581E-105
   41.5150000000000         3.769012389475599E-105
   41.7050000000000         2.510401222763948E-105
   41.8950000000000        -9.836765963812605E-106
   42.0850000000000        -8.209399990709025E-105
   42.2750000000000        -2.121925906795032E-104
   42.4650000000000        -4.262047977568503E-104
   42.6550000000000        -7.540436011893067E-104
   42.8450000000000        -1.224743793244677E-103
   43.0350000000000        -1.856896756246519E-103
   43.2250000000000        -2.641897890956476E-103
   43.4150000000000        -3.517321412623075E-103
   43.6050000000000        -4.327826886414199E-103
   43.7950000000000        -4.771946953146576E-103
   43.9850000000000        -4.335506647944228E-103
   44.1750000000000        -2.217065586172977E-103
   44.3650000000000         2.741421619468729E-103
   44.5550000000000         1.209363043769538E-102
   44.7450000000000         2.775579845046703E-102
   44.9350000000000         5.183832919371861E-102
   45.1250000000000         8.625397706896441E-102
   45.3150000000000         1.319899558341915E-101
   45.5050000000000         1.879142360085915E-101
   45.6950000000000         2.489887845789549E-101
   45.8850000000000         3.038027976959985E-101
   46.0750000000000         3.314422927318283E-101
   46.2650000000000         2.979105429175352E-101
   46.4550000000000         1.526425256086581E-101
   46.6450000000000        -1.738505457039241E-101
   46.8350000000000        -7.694931567752333E-101
   47.0250000000000        -1.734749715746077E-100
   47.2150000000000        -3.167801449081867E-100
   47.4050000000000        -5.136376916023300E-100
   47.5950000000000        -7.631267645131026E-100
   47.7850000000000        -1.049683116461508E-099
   47.9750000000000        -1.333555561852919E-099
   48.1650000000000        -1.538793418763118E-099
   48.3550000000000        -1.539655352705714E-099
   48.5450000000000        -1.147557153029096E-099
   48.7350000000000        -1.024580216270509E-100
   48.9250000000000         1.925046937946343E-099
   49.1150000000000         5.311801031448253E-099
   49.3050000000000         1.042815731478754E-098
   49.4950000000000         1.753727939462149E-098
   49.6850000000000         2.663181924341618E-098
   49.8750000000000         3.719416371215211E-098
   50.0650000000000         4.787384010251297E-098
   50.2550000000000         5.609121675957598E-098
   50.4450000000000         5.760346104079985E-098
   50.6350000000000         4.610979239969668E-098
   50.8250000000000         1.303029437516494E-098
   51.0150000000000        -5.233463983373718E-098
   51.2050000000000        -1.619737622025475E-097
   51.3950000000000        -3.272908561005217E-097
   51.5850000000000        -5.557558156905753E-097
   51.7750000000000        -8.456487602151351E-097
   51.9650000000000        -1.178571471036662E-096
   52.1550000000000        -1.509678872862415E-096
   52.3450000000000        -1.756110036677571E-096
   52.5350000000000        -1.784952178345753E-096
   52.7250000000000        -1.403316483544079E-096
   52.9150000000000        -3.547624544397314E-097
   53.1050000000000         1.671684934875537E-096
   53.2950000000000         5.011524613632978E-096
   53.4850000000000         9.963473796195394E-096
   53.6750000000000         1.668559738537103E-095
   53.8650000000000         2.503857573417669E-095
   54.0550000000000         3.437009955002860E-095
   54.2450000000000         4.324367437828289E-095
   54.4350000000000         4.913129884517663E-095
   54.6250000000000         4.811431362192036E-095
   54.8150000000000         3.467133229005821E-095
   55.0050000000000         1.676278286177931E-096
   55.1950000000000        -5.921960470438100E-095
   55.3850000000000        -1.565969287429761E-094
   55.5750000000000        -2.974045354839088E-094
   55.7650000000000        -4.839505442371563E-094
   55.9550000000000        -7.095243193912437E-094
   56.1450000000000        -9.525663483734951E-094
   56.3350000000000        -1.169576706463274E-093
   56.5250000000000        -1.287402193208687E-093
   56.7150000000000        -1.196203588882870E-093
   56.9050000000000        -7.452940667989370E-094
   57.0950000000000         2.548653955513622E-094
   57.2850000000000         2.020015418725458E-093
   57.4750000000000         4.763147223632254E-093
   57.6650000000000         8.642835039855918E-093
   57.8550000000000         1.368250871106820E-092
   58.0450000000000         1.965588231441728E-092
   58.2350000000000         2.593760744957753E-092
   58.4250000000000         3.132528885210578E-092
   58.6150000000000         3.385020743061128E-092
   58.8050000000000         3.061016317556535E-092
   58.9950000000000         1.767899051168223E-092
   59.1850000000000        -9.827212299546336E-093
   59.3750000000000        -5.741946702672350E-092
   59.5650000000000        -1.305077922724020E-091
   59.7550000000000        -2.331262892324108E-091
   59.9450000000000        -3.659657039055884E-091
   60.1350000000000        -5.236050270452949E-091
   60.3250000000000        -6.909220640877276E-091
   60.5150000000000        -8.388218168267850E-091
   60.7050000000000        -9.196700844364270E-091
   60.8950000000000        -8.631725123575870E-091
   61.0850000000000        -5.739002296401283E-091
   61.2750000000000         6.778322410583992E-092
   61.4650000000000         1.199038173994177E-090
   61.6550000000000         2.959192321047755E-090
   61.8450000000000         5.462417649223006E-090
   62.0350000000000         8.755158832848631E-090
   62.2250000000000         1.275571004207134E-089
   62.4150000000000         1.717502399194435E-089
   62.6050000000000         2.142091593592333E-089
   62.7950000000000         2.449267720647132E-089
   62.9850000000000         2.488004096146864E-089
   63.1750000000000         2.048956013994637E-089
   63.3650000000000         8.632535586545383E-090
   63.5550000000000        -1.387908951007807E-089
   63.7450000000000        -5.047048417950236E-089
   63.9350000000000        -1.043077727362061E-088
   64.1250000000000        -1.774976712666553E-088
   64.3150000000000        -2.699212476507314E-088
   64.5050000000000        -3.776662495427772E-088
   64.6950000000000        -4.910730689074475E-088
   64.8850000000000        -5.924917674371756E-088
   65.0750000000000        -6.539679197358876E-088
   65.2650000000000        -6.352368418901173E-088
   65.4550000000000        -4.826073974032970E-088
   65.6450000000000        -1.295481130326796E-088
   65.8350000000000         4.999719203719502E-088
   66.0250000000000         1.484124276998898E-087
   66.2150000000000         2.890456450899702E-087
   66.4050000000000         4.756371596212536E-087
   66.5950000000000         7.061805111460039E-087
   66.7850000000000         9.693733811906216E-087
   66.9750000000000         1.240334625976410E-086
   67.1650000000000         1.475852722399763E-086
   67.3550000000000         1.609685718143729E-086
   67.5450000000000         1.548762664252002E-086
   67.7350000000000         1.171533283064875E-086
   67.9250000000000         3.301516972509455E-087
   68.1150000000000        -1.141385632292889E-086
   68.3050000000000        -3.410673663712928E-086
   68.4950000000000        -6.619265940569503E-086
   68.6850000000000        -1.084150846485912E-085
   68.8750000000000        -1.602806228504327E-085
   69.0650000000000        -2.193375159512482E-085
   69.2550000000000        -2.803173474013838E-085
   69.4450000000000        -3.341950381969162E-085
   69.6350000000000        -3.672701561274798E-085
   69.8250000000000        -3.604336332897622E-085
   70.0150000000000        -2.888564046657357E-085
   70.2050000000000        -1.224156387410942E-085
   70.3950000000000         1.727483399448901E-085
   70.5850000000000         6.310889614464256E-085
   70.7750000000000         1.282440375104082E-084
   70.9650000000000         2.144281623247598E-084
   71.1550000000000         3.211146457778877E-084
   71.3450000000000         4.441094655520305E-084
   71.5350000000000         5.739572040766977E-084
   71.7250000000000         6.941596873494250E-084
   71.9150000000000         7.794045408777213E-084
   72.1050000000000         7.940875691550629E-084
   72.2950000000000         6.915400829617319E-084
   72.4850000000000         4.145129277824221E-084
   72.6750000000000        -1.023905238727663E-084
   72.8650000000000        -9.275213751487688E-084
   73.0550000000000        -2.123355346494350E-083
   73.2450000000000        -3.733178202419004E-083
   73.4350000000000        -5.762614894421323E-083
   73.6250000000000        -8.155715873824879E-083
   73.8150000000000        -1.076597427877714E-082
   74.0050000000000        -1.332364762089414E-082
   74.1950000000000        -1.540214857516068E-082
   74.3850000000000        -1.638807422413279E-082
   74.5750000000000        -1.546163505251230E-082
   74.7650000000000        -1.159672281969410E-082
   74.9550000000000        -3.592414789376397E-083
   75.1450000000000         9.849989757481622E-083
   75.3350000000000         2.998877067615823E-082
   75.5250000000000         5.782671551263551E-082
   75.7150000000000         9.380571910348217E-082
   75.9050000000000         1.374032362095965E-081
   76.0950000000000         1.866329533466618E-081
   76.2850000000000         2.374679370162807E-081
   76.4750000000000         2.832270960371673E-081
   76.6650000000000         3.139956127210637E-081
   76.8550000000000         3.161868195031473E-081
   77.0450000000000         2.723953859410035E-081
   77.2350000000000         1.617364945361393E-081
   77.4250000000000        -3.909244940858139E-082
   77.6150000000000        -3.537602080172753E-081
   77.8050000000000        -8.029842562463329E-081
   77.9950000000000        -1.399699600266247E-080
   78.1850000000000        -2.142547972621074E-080
   78.3750000000000        -3.007676621688458E-080
   78.5650000000000        -3.939083463258000E-080
   78.7550000000000        -4.838101862553352E-080
   78.9450000000000        -5.553093321881853E-080
   79.1350000000000        -5.871006946247703E-080
   79.3250000000000        -5.513148560853547E-080
   79.5150000000000        -4.138230534204914E-080
   79.7050000000000        -1.356461349115301E-080
   79.8950000000000         3.241045125207541E-080
   80.0850000000000         1.003308136562528E-079
   80.2750000000000         1.929530467507796E-079
   80.4650000000000         3.110048242416718E-079
   80.6550000000000         4.519149821834848E-079
   80.8450000000000         6.083033421640881E-079
   81.0350000000000         7.663163075304901E-079
   81.2250000000000         9.039658047065938E-079
   81.4150000000000         9.897177067655779E-079
   81.6050000000000         9.816778129271746E-079
   81.7950000000000         8.278311017909884E-079
   81.9850000000000         4.678905393816314E-079
   82.1750000000000        -1.626136366964172E-079
   82.3650000000000        -1.125349946846564E-078
   82.5550000000000        -2.468712718245530E-078
   82.7450000000000        -4.213446045776568E-078
   82.9350000000000        -6.334290651043750E-078
   83.1250000000000        -8.738117351884498E-078
   83.3150000000000        -1.123977542656045E-077
   83.5050000000000        -1.353788734884040E-077
   83.6950000000000        -1.519404637760764E-077
   83.8850000000000        -1.562026201825031E-077
   84.0750000000000        -1.408093696228742E-077
   84.2650000000000        -9.716966211944897E-078
   84.4550000000000        -1.600465322007008E-078
   84.6450000000000         1.117118074935051E-077
   84.8350000000000         2.933421957911639E-077
   85.0250000000000         5.326523584542558E-077
   85.2150000000000         8.273519340891758E-077
   85.4050000000000         1.166175734545539E-076
   85.5950000000000         1.525674349976875E-076
   85.7850000000000         1.867011915810130E-076
   85.9750000000000         2.133224369084182E-076
   86.1650000000000         2.247563988672188E-076
   86.3550000000000         2.113730047981603E-076
   86.5450000000000         1.618937304002219E-076
   86.7350000000000         6.408710742470858E-077
   86.9250000000000        -9.404219084571505E-077
   87.1150000000000        -3.224803223754488E-076
   87.3050000000000        -6.267914993791466E-076
   87.4950000000000        -1.005069550594589E-075
   87.6850000000000        -1.444347651974958E-075
   87.8750000000000        -1.916682255662150E-075
   88.0650000000000        -2.375281339822604E-075
   88.2550000000000        -2.751227829568390E-075
   88.4450000000000        -2.951544864008387E-075
   88.6350000000000        -2.859541182856209E-075
   88.8250000000000        -2.338534000534067E-075
   89.0150000000000        -1.240135589002183E-075
   89.2050000000000         5.817382496050058E-076
   89.3950000000000         3.250178112512043E-075
   89.5850000000000         6.837375008359013E-075
   89.7750000000000         1.132966962149486E-074
   89.9650000000000         1.658675469707431E-074
   90.1550000000000         2.229759401828176E-074
   90.3450000000000         2.793730666373598E-074
   90.5350000000000         3.273119876288320E-074
   90.7250000000000         3.563416835132718E-074
   90.9150000000000         3.533564325889921E-074
   91.1050000000000         3.030172909194300E-074
   91.2950000000000         1.886694588043217E-074
   91.4850000000000        -6.126603611567113E-076
   91.6750000000000        -2.953566316717016E-074
   91.8650000000000        -6.875607544096603E-074
   92.0550000000000        -1.182118958102453E-073
   92.2450000000000        -1.764952534896836E-073
   92.4350000000000        -2.403921026786653E-073
   92.6250000000000        -3.044364412672968E-073
   92.8150000000000        -3.605431558342331E-073
   93.0050000000000        -3.978033266154365E-073
   93.1950000000000        -4.025439002765610E-073
   93.3850000000000        -3.587669756824727E-073
   93.5750000000000        -2.490886787340195E-073
   93.7650000000000        -5.628920695867067E-074
   93.9550000000000         2.344407806226269E-073
   94.1450000000000         6.325214547869570E-073
   94.3350000000000         1.138312852139114E-072
   94.5250000000000         1.738897036328894E-072
   94.7150000000000         2.403593196527287E-072
   94.9050000000000         3.079645135322509E-072
   95.0950000000000         3.688696643647602E-072
   95.2850000000000         4.124847967370823E-072
   95.4750000000000         4.255244501610423E-072
   95.6650000000000         3.924258632649724E-072
   95.8550000000000         2.962352496307233E-072
   96.0450000000000         1.200613675706463E-072
   96.2350000000000        -1.508304202092402E-072
   96.4250000000000        -5.262567907981264E-072
   96.6150000000000        -1.007730924743851E-071
   96.8050000000000        -1.584590974121177E-071
   96.9950000000000        -2.229900165558874E-071
   97.1850000000000        -2.896515912272803E-071
   97.3750000000000        -3.513877059529372E-071
   97.5650000000000        -3.986208869480272E-071
   97.7550000000000        -4.192975813725695E-071
   97.9450000000000        -3.992498430225853E-071
   98.1350000000000        -3.229663278556349E-071
   98.3250000000000        -1.748561846823356E-071
   98.5150000000000         5.893383414962047E-072
   98.7050000000000         3.881289956792767E-071
   98.8950000000000         8.154025170591834E-071
   99.0850000000000         1.333037326602903E-070
   99.2750000000000         1.919392432204280E-070
   99.4650000000000         2.535507503729078E-070
   99.6550000000000         3.122302572453477E-070
   99.8450000000000         3.598950490514319E-070
   100.035000000000         3.863102743306507E-070
   100.225000000000         3.793715006977558E-070
   100.415000000000         3.257224603365384E-070
   100.605000000000         2.117752564148045E-070
   100.795000000000         2.518129605173892E-071
   100.985000000000        -2.432311325423784E-070
   101.175000000000        -5.970840631504826E-070
   101.365000000000        -1.031736175030316E-069
   101.555000000000        -1.531400081204479E-069
   101.745000000000        -2.066351461161601E-069
   101.935000000000        -2.590585886023456E-069
   102.125000000000        -3.040371588371821E-069
   102.315000000000        -3.334224703288183E-069
   102.505000000000        -3.374883135614402E-069
   102.695000000000        -3.053859223655013E-069
   102.885000000000        -2.259091325106282E-069
   103.075000000000        -8.860719376392232E-070
   103.265000000000         1.147411290864100E-069
   103.455000000000         3.883136787205008E-069
   103.645000000000         7.301592877493424E-069
   103.835000000000         1.129965571931166E-068
   104.025000000000         1.566870715167876E-068
   104.215000000000         2.007579494722259E-068
   104.405000000000         2.405111582766121E-068
   104.595000000000         2.698567818080068E-068
   104.785000000000         2.814337392189716E-068
   104.975000000000         2.669173804328326E-068
   105.165000000000         2.175527114576882E-068
   105.355000000000         1.249421668525919E-068
   105.545000000000        -1.789991707437106E-069
   105.735000000000        -2.152384556307367E-068
   105.925000000000        -4.670991616192237E-068
   106.115000000000        -7.676251076017127E-068
   106.305000000000        -1.103438656720970E-067
   106.495000000000        -1.452187947431714E-067
   106.685000000000        -1.781504923572595E-067
   106.875000000000        -2.048643125341752E-067
   107.065000000000        -2.201091198348797E-067
   107.255000000000        -2.178464341661218E-067
   107.445000000000        -1.915952072187034E-067
   107.635000000000        -1.349538164832727E-067
   107.825000000000        -4.230998737337876E-068
   108.015000000000         9.026668312942268E-068
   108.205000000000         2.639763099503651E-067
   108.395000000000         4.761375265041689E-067
   108.585000000000         7.190170928322785E-067
   108.775000000000         9.787566492943660E-067
   108.965000000000         1.234545399381428E-066
   109.155000000000         1.458216076459168E-066
   109.345000000000         1.614461844134471E-066
   109.535000000000         1.661878680653921E-066
   109.725000000000         1.555025762693918E-066
   109.915000000000         1.247659859391921E-066
   110.105000000000         6.972338308166600E-067