  -1.42500000000000         0.000000000000000E+000
  -1.23500000000000         0.000000000000000E+000
  -1.04500000000000         0.000000000000000E+000
 -0.855000000000000         0.000000000000000E+000
 -0.665000000000000         0.000000000000000E+000
 -0.475000000000000         0.000000000000000E+000
 -0.285000000000000         0.000000000000000E+000
 -9.499999999999975E-002    0.000000000000000E+000
  9.500000000000020E-002    0.000000000000000E+000
  0.285000000000000         0.000000000000000E+000
  0.475000000000000         0.000000000000000E+000
  0.665000000000000         0.000000000000000E+000
  0.855000000000000         0.000000000000000E+000
   1.04500000000000         0.000000000000000E+000
   1.23500000000000         0.000000000000000E+000
   1.42500000000000         0.000000000000000E+000
   1.61500000000000         0.000000000000000E+000
   1.80500000000000         0.000000000000000E+000
   1.99500000000000         0.000000000000000E+000
   2.18500000000000         0.000000000000000E+000
   2.37500000000000         0.000000000000000E+000
   2.56500000000000         0.000000000000000E+000
   2.75500000000000         0.000000000000000E+000
   2.94500000000000         0.000000000000000E+000
   3.13500000000000         0.000000000000000E+000
   3.32500000000000         0.000000000000000E+000
   3.51500000000000         0.000000000000000E+000
   3.70500000000000         0.000000000000000E+000
   3.89500000000000         0.000000000000000E+000
   4.08500000000000         0.000000000000000E+000
   4.27500000000000         0.000000000000000E+000
   4.46500000000000         0.000000000000000E+000
   4.65500000000000         0.000000000000000E+000
   4.84500000000000         0.000000000000000E+000
   5.03500000000000         0.000000000000000E+000
   5.22500000000000         0.000000000000000E+000
   5.41500000000000         0.000000000000000E+000
   5.60500000000000         0.000000000000000E+000
   5.79500000000000         0.000000000000000E+000
   5.98500000000000         0.000000000000000E+000
   6.17500000000000         0.000000000000000E+000
   6.36500000000000         0.000000000000000E+000
   6.55500000000000         0.000000000000000E+000
   6.74500000000000         7.426268320946777E-187
   6.93500000000000         3.631099796433686E-175
   7.12500000000000         2.680500033547448E-173
   7.31500000000000         9.695145706777892E-172
   7.50500000000000         2.340576721810722E-170
   7.69500000000000         4.373106842013367E-169
   7.88500000000000         6.995355369137825E-168
   8.07500000000000         1.025991259972528E-166
   8.26500000000000         1.419723905918601E-165
   8.45500000000000         1.842382719216101E-164
   8.64500000000000         2.199961604404168E-163
   8.83500000000000         2.380574101052943E-162
   9.02500000000000         2.316922764689187E-161
   9.21500000000000         2.023641605873203E-160
   9.40500000000000         1.585644421422593E-159
   9.59500000000000         1.113193578431711E-158
   9.78500000000000         6.965901805040191E-158
   9.97500000000000         3.831211751827975E-157
   10.1650000000000         1.787005419186825E-156
   10.3550000000000         6.343704608294623E-156
   10.5450000000000         8.746552131484362E-156
   10.7350000000000        -1.111100100484037E-154
   10.9250000000000        -1.429471562316753E-153
   11.1150000000000        -1.138030464829713E-152
   11.3050000000000        -7.429740608897869E-152
   11.4950000000000        -4.281465388522397E-151
   11.6850000000000        -2.245670781959856E-150
   11.8750000000000        -1.089028784497296E-149
   12.0650000000000        -4.925491719411134E-149
   12.2550000000000        -2.087389220822066E-148
   12.4450000000000        -8.303205022017518E-148
   12.6350000000000        -3.096601335560045E-147
   12.8250000000000        -1.077572186195137E-146
   13.0150000000000        -3.461341975574605E-146
   13.2050000000000        -1.002818738605796E-145
   13.3950000000000        -2.477438988333970E-145
   13.5850000000000        -4.305233970442200E-145
   13.7750000000000         1.458484832848654E-145
   13.9650000000000         6.207129167530943E-144
   14.1550000000000         3.964866949655909E-143
   14.3450000000000         1.896899003195594E-142
   14.5350000000000         7.901326694500058E-142
   14.7250000000000         3.011235482469169E-141
   14.9150000000000         1.074085210222956E-140
   15.1050000000000         3.630157847214010E-140
   15.2950000000000         1.171127319783309E-139
   15.4850000000000         3.623274696675065E-139
   15.6750000000000         1.078265415380197E-138
   15.8650000000000         3.092410084242954E-138
   16.0550000000000         8.555836798379665E-138
   16.2450000000000         2.284265751089237E-137
   16.4350000000000         5.882397206345968E-137
   16.6250000000000         1.459237408352454E-136
   16.8150000000000         3.478802579809478E-136
   17.0050000000000         7.938705666536422E-136
   17.1950000000000         1.722923854801998E-135
   17.3850000000000         3.516985290145043E-135
   17.5750000000000         6.615260067634192E-135
   17.7650000000000         1.096899668646408E-134
   17.9550000000000         1.410640795396118E-134
   18.1450000000000         5.513690564767583E-135
   18.3350000000000        -4.787513268176762E-134
   18.5250000000000        -2.360180228218126E-133
   18.7150000000000        -7.811134154398539E-133
   18.9050000000000        -2.191194390181847E-132
   19.0950000000000        -5.549340792751322E-132
   19.2850000000000        -1.300892817199403E-131
   19.4750000000000        -2.853886801483309E-131
   19.6650000000000        -5.882873591818620E-131
   19.8550000000000        -1.139241604205023E-130
   20.0450000000000        -2.066029025338239E-130
   20.2350000000000        -3.492715072863649E-130
   20.4250000000000        -5.499301818281187E-130
   20.6150000000000        -8.236692714201078E-130
   20.8050000000000        -1.290032527988566E-129
   20.9950000000000        -2.590641801259051E-129
   21.1850000000000        -7.311999441959587E-129
   21.3750000000000        -2.424749241276844E-128
   21.5650000000000        -8.009832900780858E-128
   21.7550000000000        -2.495538655930783E-127
   21.9450000000000        -7.286213746318378E-127
   22.1350000000000        -2.005510281613060E-126
   22.3250000000000        -5.243347933957088E-126
   22.5150000000000        -1.310696840626322E-125
   22.7050000000000        -3.149010100859387E-125
   22.8950000000000        -7.301011106825361E-125
   23.0850000000000        -1.638630738160641E-124
   23.2750000000000        -3.568626256783137E-124
   23.4650000000000        -7.554787816443028E-124
   23.6550000000000        -1.556743273917535E-123
   23.8450000000000        -3.125221968883869E-123
   24.0350000000000        -6.115753704916640E-123
   24.2250000000000        -1.166825913008826E-122
   24.4150000000000        -2.170046684667581E-122
   24.6050000000000        -3.931649518650896E-122
   24.7950000000000        -6.931563208011994E-122
   24.9850000000000        -1.186974902838250E-121
   25.1750000000000        -1.968657006333503E-121
   25.3650000000000        -3.148465328049918E-121
   25.5550000000000        -4.821253225723652E-121
   25.7450000000000        -6.984598938333244E-121
   25.9350000000000        -9.359763784526169E-121
   26.1250000000000        -1.103639975046393E-120
   26.3150000000000        -9.814586078375763E-121
   26.5050000000000        -1.052977863071221E-121
   26.6950000000000         2.424785424890512E-120
   26.8850000000000         8.247839115801417E-120
   27.0750000000000         2.019644231469756E-119
   27.2650000000000         4.293401287992135E-119
   27.4550000000000         8.377020719574353E-119
   27.6450000000000         1.535531195003494E-118
   27.8350000000000         2.673251171138201E-118
   28.0250000000000         4.440071046447578E-118
   28.2150000000000         7.035870511117993E-118
   28.4050000000000         1.058882042116350E-117
   28.5950000000000         1.496531925865483E-117
   28.7850000000000         1.937893677128526E-117
   28.9750000000000         2.164134526919819E-117
   29.1650000000000         1.680024282174382E-117
   29.3550000000000        -5.234843599882662E-118
   29.5450000000000        -6.367814547274076E-117
   29.7350000000000        -1.933196739917067E-116
   29.9250000000000        -4.545816940822496E-116
   30.1150000000000        -9.485374822871261E-116
   30.3050000000000        -1.838193624589534E-115
   30.4950000000000        -3.376565369656541E-115
   30.6850000000000        -5.939760195845252E-115
   30.8750000000000        -1.005796870676650E-114
   31.0650000000000        -1.642651870787966E-114
   31.2550000000000        -2.585917149422870E-114
   31.4450000000000        -3.911101666110857E-114
   31.6350000000000        -5.644097738148123E-114
   31.8250000000000        -7.669461511028046E-114
   32.0150000000000        -9.555688859542873E-114
   32.2050000000000        -1.024456464795157E-113
   32.3950000000000        -7.529541758201757E-114
   32.5850000000000         2.775062826951940E-114
   32.7750000000000         2.808818830110499E-113
   32.9650000000000         8.084501873374652E-113
   33.1550000000000         1.808495528651022E-112
   33.3450000000000         3.580627995596037E-112
   33.5350000000000         6.553242242833468E-112
   33.7250000000000         1.129819613491475E-111
   33.9150000000000         1.850943711660046E-111
   34.1050000000000         2.890362278308404E-111
   34.2950000000000         4.297353917579251E-111
   34.4850000000000         6.048774638912522E-111
   34.6750000000000         7.958312928457962E-111
   34.8650000000000         9.524609831048799E-111
   35.0550000000000         9.693640142044024E-111
   35.2450000000000         6.510163295691582E-111
   35.4350000000000        -3.359229517378120E-111
   35.6250000000000        -2.522535534150292E-110
   35.8150000000000        -6.704118223354711E-110
   36.0050000000000        -1.399822466566357E-109
   36.1950000000000        -2.586385241760736E-109
   36.3850000000000        -4.402772975997743E-109
   36.5750000000000        -7.023016260223772E-109
   36.7650000000000        -1.056591933692885E-108
   36.9550000000000        -1.498905423272846E-108
   37.1450000000000        -1.991000764854039E-108
   37.3350000000000        -2.432824958793278E-108
   37.5250000000000        -2.622250931203996E-108
   37.7150000000000        -2.200978431380611E-108
   37.9050000000000        -5.880281688708513E-109
   38.0950000000000         3.092254703352634E-108
   38.2850000000000         1.007141715668057E-107
   38.4750000000000         2.195654920582465E-107
   38.6650000000000         4.065681997369088E-107
   38.8550000000000         6.813799876749250E-107
   39.0450000000000         1.058934138530458E-106
   39.2350000000000         1.539860788856619E-106
   39.4250000000000         2.094908253674234E-106
   39.6150000000000         2.641629704872809E-106
   39.8050000000000         3.012062552440511E-106
   39.9950000000000         2.911436357851359E-106
   40.1850000000000         1.870581274536438E-106
   40.3750000000000        -8.007441997456456E-107
   40.5650000000000        -6.045310523768117E-106
   40.7550000000000        -1.505024036838710E-105
   40.9450000000000        -2.916144156977815E-105
   41.1350000000000        -4.966691395014197E-105
   41.3250000000000        -7.737844259376591E-105
   41.5150000000000        -1.119275795701068E-104
   41.7050000000000        -1.506881996272926E-104
   41.8950000000000        -1.872550404018992E-104
   42.0850000000000        -2.094609508414294E-104
   42.2750000000000        -1.970255144077483E-104
   42.4650000000000        -1.191189440941572E-104
   42.6550000000000         6.757612643534911E-105
   42.8450000000000         4.192939729429866E-104
   43.0350000000000         1.002529088099335E-103
   43.2250000000000         1.886033686230839E-103
   43.4150000000000         3.124483716660267E-103
   43.6050000000000         4.730213283786283E-103
   43.7950000000000         6.629186746803999E-103
   43.9850000000000         8.597959244331917E-103
   44.1750000000000         1.018038731368571E-102
   44.3650000000000         1.058711145177595E-102
   44.5550000000000         8.588335538955892E-103
   44.7450000000000         2.422238544971693E-103
   44.9350000000000        -1.024161309069980E-102
   45.1250000000000        -3.222185286807141E-102
   45.3150000000000        -6.653845121731959E-102
   45.5050000000000        -1.158005016683571E-101
   45.6950000000000        -1.811243435237807E-101
   45.8850000000000        -2.604270075958290E-101
   46.0750000000000        -3.459607956042798E-101
   46.2650000000000        -4.210313621466720E-101
   46.4550000000000        -4.560059955564912E-101
   46.6450000000000        -4.040094482491193E-101
   46.8350000000000        -1.971624101841408E-101
   47.0250000000000         2.551234893176788E-101
   47.2150000000000         1.063408919272669E-100
   47.4050000000000         2.347614406031586E-100
   47.5950000000000         4.213988555103596E-100
   47.7850000000000         6.714184315170404E-100
   47.9750000000000         9.780641795475005E-100
   48.1650000000000         1.313339635375066E-099
   48.3550000000000         1.615651702802843E-099
   48.5450000000000         1.774881952444629E-099
   48.7350000000000         1.616467594343837E-099
   48.9250000000000         8.878056850027554E-100
   49.1150000000000        -7.472568409239710E-100
   49.3050000000000        -3.696910031365391E-099
   49.4950000000000        -8.400185651205196E-099
   49.6850000000000        -1.523964033647042E-098
   49.8750000000000        -2.438858929483973E-098
   50.0650000000000        -3.557314760340750E-098
   50.2550000000000        -4.773375963690665E-098
   50.4450000000000        -5.858339260754873E-098
   50.6350000000000        -6.408417057995622E-098
   50.8250000000000        -5.790542312181324E-098
   51.0150000000000        -3.098810609333703E-098
   51.2050000000000         2.857415935945376E-098
   51.3950000000000         1.350198786433921E-097
   51.5850000000000         3.033315768298863E-097
   51.7750000000000         5.460199667515812E-097
   51.9650000000000         8.676489749809114E-097
   52.1550000000000         1.256487784950126E-096
   52.3450000000000         1.672866466026494E-096
   52.5350000000000         2.034278620024829E-096
   52.7250000000000         2.198141836513267E-096
   52.9150000000000         1.944525513136374E-096
   53.1050000000000         9.631966375268396E-097
   53.2950000000000        -1.147936600867011E-096
   53.4850000000000        -4.862571900430781E-096
   53.6750000000000        -1.066991410262005E-095
   53.8650000000000        -1.896542053667913E-095
   54.0550000000000        -2.986926555511091E-095
   54.2450000000000        -4.295473170196045E-095
   54.4350000000000        -5.687556164276046E-095
   54.6250000000000        -6.889661493055556E-095
   54.8150000000000        -7.435941253968475E-095
   55.0050000000000        -6.615677603674109E-095
   55.1950000000000        -3.435142964093193E-095
   55.3850000000000         3.384730785872985E-095
   55.5750000000000         1.534401342710830E-094
   55.7650000000000         3.399190947981247E-094
   55.9550000000000         6.059785288149754E-094
   56.1450000000000         9.561186934199061E-094
   56.3350000000000         1.378654130124884E-093
   56.5250000000000         1.834841108997892E-093
   56.7150000000000         2.245271383366094E-093
   56.9050000000000         2.474429584839637E-093
   57.0950000000000         2.315462312732351E-093
   57.2850000000000         1.478817353389746E-093
   57.4750000000000        -4.095162047573032E-094
   57.6650000000000        -3.792001104035899E-093
   57.8550000000000        -9.135072016190672E-093
   58.0450000000000        -1.684331167278475E-092
   58.2350000000000        -2.711839442742712E-092
   58.4250000000000        -3.975015296699535E-092
   58.6150000000000        -5.383210872559638E-092
   58.8050000000000        -6.740433019299799E-092
   58.9950000000000        -7.704451849952649E-092
   59.1850000000000        -7.745562261069346E-092
   59.3750000000000        -6.113631427845428E-092
   59.5650000000000        -1.826925055632679E-092
   59.7550000000000         6.298111023019468E-092
   59.9450000000000         1.955100905393413E-091
   60.1350000000000         3.913516009420518E-091
   60.3250000000000         6.584657632359803E-091
   60.5150000000000         9.959294567069785E-091
   60.7050000000000         1.387326443531401E-090
   60.8950000000000         1.792353959706379E-090
   61.0850000000000         2.137041514622247E-090
   61.2750000000000         2.303553433938405E-090
   61.4650000000000         2.121345480738933E-090
   61.6550000000000         1.362467623788201E-090
   61.8450000000000        -2.549950065432066E-091
   62.0350000000000        -3.050084574502581E-090
   62.2250000000000        -7.342349231037470E-090
   62.4150000000000        -1.338837994784153E-089
   62.6050000000000        -2.128468906703558E-089
   62.7950000000000        -3.083186205326375E-089
   62.9850000000000        -4.135888136682445E-089
   63.1750000000000        -5.151348572008096E-089
   63.3650000000000        -5.903512535902003E-089
   63.5550000000000        -6.054203062821621E-089
   63.7450000000000        -5.138320102599777E-089
   63.9350000000000        -2.562904832534347E-089
   64.1250000000000         2.370086433848963E-089
   64.3150000000000         1.040514938133002E-088
   64.5050000000000         2.222499463072020E-088
   64.6950000000000         3.827884960317106E-088
   64.8850000000000         5.853583089355671E-088
   65.0750000000000         8.215803562647638E-088
   65.2650000000000         1.070992006830027E-087
   65.4550000000000         1.296523801586748E-087
   65.6450000000000         1.439951104252030E-087
   65.8350000000000         1.418133056547263E-087
   66.0250000000000         1.121248132999563E-087
   66.2150000000000         4.146753318944564E-088
   66.4050000000000        -8.533981766325581E-088
   66.5950000000000        -2.836220345114514E-087
   66.7850000000000        -5.662012691244069E-087
   66.9750000000000        -9.394480834844112E-087
   67.1650000000000        -1.397876573530775E-086
   67.3550000000000        -1.917287213276359E-086
   67.5450000000000        -2.446717396571915E-086
   67.7350000000000        -2.899833937263550E-086
   67.9250000000000        -3.146903614724399E-086
   68.1150000000000        -3.009100870528159E-086
   68.3050000000000        -2.257624956012597E-086
   68.4950000000000        -6.208366517783613E-087
   68.6850000000000         2.196722964703193E-086
   68.8750000000000         6.479165553176169E-086
   69.0650000000000         1.244374038073716E-085
   69.2550000000000         2.016158431874334E-085
   69.4450000000000         2.945323143832355E-085
   69.6350000000000         3.976066325886055E-085
   69.8250000000000         5.000268097137363E-085
   70.0150000000000         5.842730583806161E-085
   70.2050000000000         6.248378455121256E-085
   70.3950000000000         5.874730791726949E-085
   70.5850000000000         4.294101900392689E-085
   70.7750000000000         1.011098428081443E-085
   70.9650000000000        -4.498149046848094E-085
   71.1550000000000        -1.271823214049947E-084
   71.3450000000000        -2.399193659848866E-084
   71.5350000000000        -3.837854544240938E-084
   71.7250000000000        -5.547223699955809E-084
   71.9150000000000        -7.418577310842721E-084
   72.1050000000000        -9.251326423209279E-084
   72.2950000000000        -1.072972398108209E-083
   72.4850000000000        -1.140393959809786E-083
   72.6750000000000        -1.068105824984874E-083
   72.8650000000000        -7.833247463912439E-084
   73.0550000000000        -2.031872212021153E-084
   73.2450000000000         7.582608903862973E-084
   73.4350000000000         2.178499610595662E-083
   73.6250000000000         4.109530504394572E-083
   73.8150000000000         6.554909758557109E-083
   74.0050000000000         9.440912049277974E-083
   74.1950000000000         1.258287098551977E-082
   74.3850000000000         1.564907463465550E-082
   74.5750000000000         1.812631893554855E-082
   74.7650000000000         1.929329601297415E-082
   74.9550000000000         1.821030092871905E-082
   75.1450000000000         1.373606152426360E-082
   75.3350000000000         4.584491461147534E-083
   75.5250000000000        -1.056464285479664E-082
   75.7150000000000        -3.288738782912429E-082
   75.9050000000000        -6.315826388662098E-082
   76.0950000000000        -1.014080225353984E-081
   76.2850000000000        -1.464999092849236E-081
   76.4750000000000        -1.956417704135900E-081
   76.6650000000000        -2.438703585887371E-081
   76.8550000000000        -2.835682773273619E-081
   77.0450000000000        -3.041023828237275E-081
   77.2350000000000        -2.917033146051600E-081
   77.4250000000000        -2.297359954400111E-081
   77.6150000000000        -9.953567183609885E-082
   77.8050000000000         1.180031516535920E-081
   77.9950000000000         4.399049584775564E-081
   78.1850000000000         8.775161023691289E-081
   78.3750000000000         1.431767730073922E-080
   78.5650000000000         2.087363075677140E-080
   78.7550000000000         2.806141976207943E-080
   78.9450000000000         3.520128203713980E-080
   79.1350000000000         4.125080091338642E-080
   79.3250000000000         4.475729913213812E-080
   79.5150000000000         4.384287096427212E-080
   79.7050000000000         3.624152329223675E-080
   79.8950000000000         1.941082165816938E-080
   80.0850000000000        -9.258259442635969E-081
   80.2750000000000        -5.211093009278002E-080
   80.4650000000000        -1.107604566814486E-079
   80.6550000000000        -1.854754348378088E-079
   80.8450000000000        -2.744321773336018E-079
   81.0350000000000        -3.728657593587849E-079
   81.2250000000000        -4.721847362880834E-079
   81.4150000000000        -5.591532160827351E-079
   81.6050000000000        -6.152881517139158E-079
   81.7950000000000        -6.166661224108987E-079
   81.9850000000000        -5.343772208597232E-079
   82.1750000000000        -3.358964336240906E-079
   82.3650000000000         1.234476922800571E-080
   82.5550000000000         5.409240510206465E-079
   82.7450000000000         1.271734641172992E-078
   82.9350000000000         2.210562556409073E-078
   83.1250000000000         3.338064052383223E-078
   83.3150000000000         4.599554738311116E-078
   83.5050000000000         5.894389169882564E-078
   83.6950000000000         7.066155216167185E-078
   83.8850000000000         7.895409604268790E-078
   84.0750000000000         8.097200088004615E-078
   84.2650000000000         7.326094196980926E-078
   84.4550000000000         5.191778926738568E-078
   84.6450000000000         1.288400138303950E-078
   84.8350000000000        -4.759456401530345E-078
   85.0250000000000        -1.323202384021710E-077
   85.2150000000000        -2.423018127387821E-077
   85.4050000000000        -3.757341705410884E-077
   85.5950000000000        -5.268461545939371E-077
   85.7850000000000        -6.847036372134166E-077
   85.9750000000000        -8.321027652652024E-077
   86.1650000000000        -9.447417272884003E-077
   86.3550000000000        -9.909137056207082E-077
   86.5450000000000        -9.320122711340994E-077
   86.7350000000000        -7.241742944554484E-077
   86.9250000000000        -3.213930918633816E-077
   87.1150000000000         3.195973370623987E-077
   87.3050000000000         1.232451930140903E-076
   87.4950000000000         2.432296930755336E-076
   87.6850000000000         3.904937938052257E-076
   87.8750000000000         5.594687921102889E-076
   88.0650000000000         7.391717419394717E-076
   88.2550000000000         9.120311541231909E-076
   88.4450000000000         1.052994796448638E-075
   88.6350000000000         1.129164120630337E-075
   88.8250000000000         1.100246418387735E-075
   89.0150000000000         9.201469704269909E-076
   89.2050000000000         5.400282443995536E-076
   89.3950000000000        -8.687095011613086E-077
   89.5850000000000        -9.984498523784904E-076
   89.7750000000000        -2.214938594878319E-075
   89.9650000000000        -3.728241087528432E-075
   90.1550000000000        -5.489906931391561E-075
   90.3450000000000        -7.398597293873441E-075
   90.5350000000000        -9.288361243728925E-075
   90.7250000000000        -1.091952949298910E-074
   90.9150000000000        -1.197451852466413E-074
   91.1050000000000        -1.206125798103512E-074
   91.2950000000000        -1.072722741787135E-074
   91.4850000000000        -7.487117510070802E-075
   91.6750000000000        -1.866805484392445E-075
   91.8650000000000         6.534459451344049E-075
   92.0550000000000         1.796313432969563E-074
   92.2450000000000         3.241322555724354E-074
   92.4350000000000         4.951512271237661E-074
   92.6250000000000         6.841904135326904E-074
   92.8150000000000         8.768463266765762E-074
   93.0050000000000         1.051925662049511E-073
   93.1950000000000         1.180980740975435E-073
   93.3850000000000         1.228500362102313E-073
   93.5750000000000         1.153015110637525E-073
   93.7650000000000         9.093787100918428E-074
   93.9550000000000         4.524598504382523E-074
   94.1450000000000        -2.575871059594562E-074
   94.3350000000000        -1.248417486064687E-073
   94.5250000000000        -2.527069714436414E-073
   94.7150000000000        -4.070352197882669E-073
   94.9050000000000        -5.814656279445195E-073
   95.0950000000000        -7.646128706005685E-073
   95.2850000000000        -9.392482462743005E-073
   95.4750000000000        -1.081806510739906E-072
   95.6650000000000        -1.162409783401937E-072
   95.8550000000000        -1.145619415981522E-072
   96.0450000000000        -9.921302431384322E-073
   96.2350000000000        -6.616022893542382E-073
   96.4250000000000        -1.167758198229803E-073
   96.6150000000000         6.710697597252293E-073
   96.8050000000000         1.715379018460515E-072
   96.9950000000000         3.006540928727239E-072
   97.1850000000000         4.503512482857332E-072
   97.3750000000000         6.125535847287811E-072
   97.5650000000000         7.744903940803756E-072
   97.7550000000000         9.181992519478591E-072
   97.9450000000000         1.020400918021703E-071
   98.1350000000000         1.052907366588850E-071
   98.3250000000000         9.837295086505232E-072
   98.5150000000000         7.790401126799723E-072
   98.7050000000000         4.061151877246151E-072
   98.8950000000000        -1.626809562034404E-072
   99.0850000000000        -9.448891848055105E-072
   99.2750000000000        -1.942068337542524E-071
   99.4650000000000        -3.133316922928788E-071
   99.6550000000000        -4.468667806847300E-071
   99.8450000000000        -5.863011327885330E-071
   100.035000000000        -7.191396422463363E-071
   100.225000000000        -8.286736806228777E-071
   100.415000000000        -8.941085099679146E-071
   100.605000000000        -8.911702260257002E-071
   100.795000000000        -7.933109600997027E-071
   100.985000000000        -5.736131614450440E-071
   101.175000000000        -2.074587251652808E-071
   101.365000000000         3.240261359430637E-071
   101.555000000000         1.029815631360731E-070
   101.745000000000         1.904281691269123E-070
   101.935000000000         2.922223442579144E-070
   102.125000000000         4.034039224072291E-070
   102.315000000000         5.161588078904317E-070
   102.505000000000         6.195418310295361E-070
   102.695000000000         6.994150057321096E-070
   102.885000000000         7.386868295172109E-070
   103.075000000000         7.179390952258638E-070
   103.265000000000         6.165201354070128E-070
   103.455000000000         4.141652730855971E-070
   103.645000000000         9.317455669896804E-071
   103.835000000000        -3.588667785778858E-070
   104.025000000000        -9.458987595066119E-070
   104.215000000000        -1.659874453011519E-069
   104.405000000000        -2.477155647122148E-069
   104.595000000000        -3.355138283172479E-069
   104.785000000000        -4.229521479619184E-069
   104.975000000000        -5.012718017631477E-069
   105.165000000000        -5.593969336323608E-069
   105.355000000000        -5.841761602228648E-069
   105.545000000000        -5.609127117800010E-069
   105.735000000000        -4.742342605109204E-069
   105.925000000000        -3.093388902947780E-069
   106.115000000000        -5.363038427259233E-070
   106.305000000000         3.012765787257734E-069
   106.495000000000         7.572427242426753E-069
   106.685000000000         1.307094045837441E-068
   106.875000000000         1.932084820792150E-068
   107.065000000000         2.599564695379670E-068
   107.255000000000         3.261141463788081E-068
   107.445000000000         3.851685391437792E-068
   107.635000000000         4.289561459617878E-068
   107.825000000000         4.478494359797429E-068
   108.015000000000         4.311458296277790E-068
   108.205000000000         3.676930322412769E-068
   108.395000000000         2.467743280481050E-068
   108.585000000000         5.926152479325787E-069
   108.775000000000        -2.009787747422770E-068
   108.965000000000        -5.354680526820305E-068
   109.155000000000        -9.393641854139528E-068
   109.345000000000        -1.399689737690025E-067
   109.535000000000        -1.893695596443212E-067
   109.725000000000        -2.387555792514973E-067
   109.915000000000        -2.835625807209207E-067
   110.105000000000        -3.180524449360570E-067