  -1.42500000000000         0.000000000000000E+000
  -1.23500000000000         0.000000000000000E+000
  -1.04500000000000         0.000000000000000E+000
 -0.855000000000000         0.000000000000000E+000
 -0.665000000000000         0.000000000000000E+000
 -0.475000000000000         0.000000000000000E+000
 -0.285000000000000         0.000000000000000E+000
 -9.499999999999975E-002    0.000000000000000E+000
  9.500000000000020E-002    0.000000000000000E+000
  0.285000000000000         0.000000000000000E+000
  0.475000000000000         0.000000000000000E+000
  0.665000000000000         0.000000000000000E+000
  0.855000000000000         0.000000000000000E+000
   1.04500000000000         0.000000000000000E+000
   1.23500000000000         0.000000000000000E+000
   1.42500000000000         0.000000000000000E+000
   1.61500000000000         0.000000000000000E+000
   1.80500000000000         0.000000000000000E+000
   1.99500000000000         0.000000000000000E+000
   2.18500000000000         0.000000000000000E+000
   2.37500000000000         0.000000000000000E+000
   2.56500000000000         0.000000000000000E+000
   2.75500000000000         0.000000000000000E+000
   2.94500000000000         0.000000000000000E+000
   3.13500000000000         0.000000000000000E+000
   3.32500000000000         0.000000000000000E+000
   3.51500000000000         0.000000000000000E+000
   3.70500000000000         0.000000000000000E+000
   3.89500000000000         0.000000000000000E+000
   4.08500000000000         0.000000000000000E+000
   4.27500000000000         0.000000000000000E+000
   4.46500000000000         0.000000000000000E+000
   4.65500000000000         0.000000000000000E+000
   4.84500000000000         0.000000000000000E+000
   5.03500000000000         0.000000000000000E+000
   5.22500000000000         0.000000000000000E+000
   5.41500000000000         0.000000000000000E+000
   5.60500000000000         0.000000000000000E+000
   5.79500000000000         0.000000000000000E+000
   5.98500000000000         0.000000000000000E+000
   6.17500000000000         1.660353103896634E-184
   6.36500000000000         1.056990739352340E-180
   6.55500000000000        -5.174092283067755E-176
   6.74500000000000         3.046625924890454E-172
   6.93500000000000         1.646715351918737E-170
   7.12500000000000         3.748546090845785E-169
   7.31500000000000         2.984381817238800E-168
   7.50500000000000        -5.327695596463186E-167
   7.69500000000000        -1.670780524100510E-165
   7.88500000000000        -1.029694320557333E-164
   8.07500000000000         5.174501115424987E-163
   8.26500000000000         2.250782472159495E-161
   8.45500000000000         5.669396484730749E-160
   8.64500000000000         1.082658689391476E-158
   8.83500000000000         1.672888163477966E-157
   9.02500000000000         2.152230415374713E-156
   9.21500000000000         2.347513011217733E-155
   9.40500000000000         2.198902082920161E-154
   9.59500000000000         1.784003528605319E-153
   9.78500000000000         1.258441385992825E-152
   9.97500000000000         7.697670457558168E-152
   10.1650000000000         4.026689480384120E-151
   10.3550000000000         1.731534399256251E-150
   10.5450000000000         5.390726647485383E-150
   10.7350000000000         4.482156130700564E-150
   10.9250000000000        -9.347189567150255E-149
   11.1150000000000        -9.194224725613612E-148
   11.3050000000000        -5.704884591272586E-147
   11.4950000000000        -2.755918122343443E-146
   11.6850000000000        -1.060728440636675E-145
   11.8750000000000        -2.961520095716637E-145
   12.0650000000000        -2.631568428761718E-145
   12.2550000000000         3.678575772101608E-144
   12.4450000000000         3.432758211961081E-143
   12.6350000000000         2.039976496129306E-142
   12.8250000000000         9.913321876560989E-142
   13.0150000000000         4.221099552905868E-141
   13.2050000000000         1.623439969723313E-140
   13.3950000000000         5.745540838479932E-140
   13.5850000000000         1.904404256330449E-139
   13.7750000000000         6.063318535313752E-139
   13.9650000000000         1.932709957480800E-138
   14.1550000000000         6.526233773407935E-138
   14.3450000000000         2.440489936244264E-137
   14.5350000000000         1.006237719757093E-136
   14.7250000000000         4.368486992190234E-136
   14.9150000000000         1.903236508515811E-135
   15.1050000000000         8.077770463140170E-135
   15.2950000000000         3.295364091621057E-134
   15.4850000000000         1.286744380576279E-133
   15.6750000000000         4.809119619561173E-133
   15.8650000000000         1.723319169357874E-132
   16.0550000000000         5.934177662745848E-132
   16.2450000000000         1.968001640974122E-131
   16.4350000000000         6.298810143107594E-131
   16.6250000000000         1.949189363605188E-130
   16.8150000000000         5.841180896080949E-130
   17.0050000000000         1.697417889289602E-129
   17.1950000000000         4.788729598397218E-129
   17.3850000000000         1.312858580246380E-128
   17.5750000000000         3.500518219068771E-128
   17.7650000000000         9.083365876730782E-128
   17.9550000000000         2.294979633438968E-127
   18.1450000000000         5.647783264875911E-127
   18.3350000000000         1.354002635401285E-126
   18.5250000000000         3.162216230877444E-126
   18.7150000000000         7.192418435278710E-126
   18.9050000000000         1.592245730919454E-125
   19.0950000000000         3.427244386946662E-125
   19.2850000000000         7.160632764015691E-125
   19.4750000000000         1.448380349114098E-124
   19.6650000000000         2.824381524646619E-124
   19.8550000000000         5.273625752030093E-124
   20.0450000000000         9.317741017008823E-124
   20.2350000000000         1.523156603987730E-123
   20.4250000000000         2.189635240518816E-123
   20.6150000000000         2.360033768690415E-123
   20.8050000000000         1.963257560290595E-124
   20.9950000000000        -9.317353683321501E-123
   21.1850000000000        -3.868931727065370E-122
   21.3750000000000        -1.173070579248240E-121
   21.5650000000000        -3.112358194734502E-121
   21.7550000000000        -7.638674987456927E-121
   21.9450000000000        -1.777384055404842E-120
   22.1350000000000        -3.972429260917244E-120
   22.3250000000000        -8.594629820748344E-120
   22.5150000000000        -1.809149968106073E-119
   22.7050000000000        -3.717773981477545E-119
   22.8950000000000        -7.476618810937249E-119
   23.0850000000000        -1.474042864977290E-118
   23.2750000000000        -2.852790886481384E-118
   23.4650000000000        -5.425186339434376E-118
   23.6550000000000        -1.014532574143817E-117
   23.8450000000000        -1.866633705091916E-117
   24.0350000000000        -3.380304906930693E-117
   24.2250000000000        -6.026320280708751E-117
   24.4150000000000        -1.057743717640868E-116
   24.6050000000000        -1.827710824455239E-116
   24.7950000000000        -3.108337260139425E-116
   24.9850000000000        -5.200595010050758E-116
   25.1750000000000        -8.554385316570421E-116
   25.3650000000000        -1.381996712765934E-115
   25.5550000000000        -2.189753849905129E-115
   25.7450000000000        -3.396087623765608E-115
   25.9350000000000        -5.140308695770595E-115
   26.1250000000000        -7.560179180070261E-115
   26.3150000000000        -1.073119686004996E-114
   26.5050000000000        -1.453427771286171E-114
   26.6950000000000        -1.839222582010206E-114
   26.8850000000000        -2.077437464435042E-114
   27.0750000000000        -1.830356721266480E-114
   27.2650000000000        -4.197989669299205E-115
   27.4550000000000         3.437496294178571E-114
   27.6450000000000         1.206882559752063E-113
   27.8350000000000         2.955848868495463E-113
   28.0250000000000         6.288335338507433E-113
   28.2150000000000         1.236879945795354E-112
   28.4050000000000         2.310092081606841E-112
   28.5950000000000         4.153812135041870E-112
   28.7850000000000         7.249045623730631E-112
   28.9750000000000         1.234038727464993E-111
   29.1650000000000         2.056062868661816E-111
   29.3550000000000         3.360300733257258E-111
   29.5450000000000         5.395244528847946E-111
   29.7350000000000         8.518496583992748E-111
   29.9250000000000         1.323373664690523E-110
   30.1150000000000         2.023332974098310E-110
   30.3050000000000         3.044211298862029E-110
   30.4950000000000         4.505243353030262E-110
   30.6850000000000         6.553132650150183E-110
   30.8750000000000         9.356592832864811E-110
   31.0650000000000         1.308901798784980E-109
   31.2550000000000         1.789010017869322E-109
   31.4450000000000         2.379206609211123E-109
   31.6350000000000         3.058878226920955E-109
   31.8250000000000         3.761550038410257E-109
   32.0150000000000         4.339252351603899E-109
   32.2050000000000         4.506643654743581E-109
   32.3950000000000         3.755647271091703E-109
   32.5850000000000         1.227972043528172E-109
   32.7750000000000        -4.471407969468049E-109
   32.9650000000000        -1.554203814761425E-108
   33.1550000000000        -3.536557072665949E-108
   33.3450000000000        -6.902888610725572E-108
   33.5350000000000        -1.240361484670997E-107
   33.7250000000000        -2.112605211855595E-107
   33.9150000000000        -3.461917896654432E-107
   34.1050000000000        -5.505374700941273E-107
   34.2950000000000        -8.542284294705568E-107
   34.4850000000000        -1.297860132396616E-106
   34.6750000000000        -1.935559512946932E-106
   34.8650000000000        -2.838194135526238E-106
   35.0550000000000        -4.096719499295173E-106
   35.2450000000000        -5.825270900575386E-106
   35.4350000000000        -8.163318466683223E-106
   35.6250000000000        -1.127577503799174E-105
   35.8150000000000        -1.534931326203420E-105
   36.0050000000000        -2.058221495881626E-105
   36.1950000000000        -2.716369640902059E-105
   36.3850000000000        -3.523660543004342E-105
   36.5750000000000        -4.483433853763223E-105
   36.7650000000000        -5.577830237657843E-105
   36.9550000000000        -6.751559249323874E-105
   37.1450000000000        -7.886696328252286E-105
   37.3350000000000        -8.764170017146199E-105
   37.5250000000000        -9.005788726319340E-105
   37.7150000000000        -7.988358432379065E-105
   37.9050000000000        -4.718780688039428E-105
   38.0950000000000         2.343601851912482E-105
   38.2850000000000         1.553283005705451E-104
   38.4750000000000         3.830479966612310E-104
   38.6650000000000         7.565642536680981E-104
   38.8550000000000         1.346271444705535E-103
   39.0450000000000         2.248415253768373E-103
   39.2350000000000         3.589935955800964E-103
   39.4250000000000         5.530792461963323E-103
   39.6150000000000         8.260409230096559E-103
   39.8050000000000         1.198288667042710E-102
   39.9950000000000         1.688299906846504E-102
   40.1850000000000         2.306188497096679E-102
   40.3750000000000         3.042809773001625E-102
   40.5650000000000         3.852715653394452E-102
   40.7550000000000         4.629241117911863E-102
   40.9450000000000         5.170430660231216E-102
   41.1350000000000         5.135754337792659E-102
   41.3250000000000         3.996097554916409E-102
   41.5150000000000         9.839290485656314E-103
   41.7050000000000        -4.942499160415120E-102
   41.8950000000000        -1.509703533424207E-101
   42.0850000000000        -3.098839735379317E-101
   42.2750000000000        -5.411460900245469E-101
   42.4650000000000        -8.555913251603721E-101
   42.6550000000000        -1.253054700260111E-100
   42.8450000000000        -1.711847531130625E-100
   43.0350000000000        -2.173914746694937E-100
   43.2250000000000        -2.525631859253532E-100
   43.4150000000000        -2.575432716856021E-100
   43.6050000000000        -2.031585665145236E-100
   43.7950000000000        -4.867259450845600E-101
   43.9850000000000         2.579600164584831E-100
   44.1750000000000         7.763137328720571E-100
   44.3650000000000         1.563774136370084E-099
   44.5550000000000         2.656805744002494E-099
   44.7450000000000         4.039715060908344E-099
   44.9350000000000         5.597624798131914E-099
   45.1250000000000         7.051760768543607E-099
   45.3150000000000         7.878478438297130E-099
   45.5050000000000         7.219657967973452E-099
   45.6950000000000         3.802180512282283E-099
   45.8850000000000        -4.100992421992455E-099
   46.0750000000000        -1.861581018200612E-098
   46.2650000000000        -4.204200863020932E-098
   46.4550000000000        -7.635681758156781E-098
   46.6450000000000        -1.223268682689764E-097
   46.8350000000000        -1.781041904348739E-097
   47.0250000000000        -2.372113007371229E-097
   47.2150000000000        -2.859048502383766E-097
   47.4050000000000        -3.000754794437260E-097
   47.5950000000000        -2.421244376407244E-097
   47.7850000000000        -5.868234345033517E-098
   47.9750000000000         3.193858783094115E-097
   48.1650000000000         9.725343420895788E-097
   48.3550000000000         1.980726381616201E-096
   48.5450000000000         3.400686409968604E-096
   48.7350000000000         5.228385229313478E-096
   48.9250000000000         7.343518142021825E-096
   49.1150000000000         9.434768914813012E-096
   49.3050000000000         1.090888296839176E-095
   49.4950000000000         1.079381605640860E-095
   49.6850000000000         7.657192204933589E-096
   49.8750000000000        -4.236865781823126E-097
   50.0650000000000        -1.578550571956724E-095
   50.2550000000000        -4.092140693425841E-095
   50.4450000000000        -7.794983993952557E-095
   50.6350000000000        -1.277094319450678E-094
   50.8250000000000        -1.883918041064817E-094
   51.0150000000000        -2.536712344112056E-094
   51.2050000000000        -3.103893337132018E-094
   51.3950000000000        -3.360232541062537E-094
   51.5850000000000        -2.964232795770912E-094
   51.7750000000000        -1.446562006632694E-094
   51.9650000000000         1.777786756205362E-094
   52.1550000000000         7.356296627735481E-094
   52.3450000000000         1.588333563429804E-093
   52.5350000000000         2.769895694243591E-093
   52.7250000000000         4.258152973192630E-093
   52.9150000000000         5.932392434393852E-093
   53.1050000000000         7.520461329320641E-093
   53.2950000000000         8.540191043937260E-093
   53.4850000000000         8.245478502052149E-093
   53.6750000000000         5.594823008061760E-093
   53.8650000000000        -7.308163982195697E-094
   54.0550000000000        -1.222429419331972E-092
   54.2450000000000        -3.031780016913416E-092
   54.4350000000000        -5.596898902643668E-092
   54.6250000000000        -8.902456871623487E-092
   54.8150000000000        -1.273390533554078E-091
   55.0050000000000        -1.656697651404821E-091
   55.1950000000000        -1.944423200645621E-091
   55.3850000000000        -1.985893495174430E-091
   55.5750000000000        -1.568103381216275E-091
   55.7650000000000        -4.177535722185872E-092
   55.9550000000000         1.780194317177666E-091
   56.1450000000000         5.338787820147642E-091
   56.3350000000000         1.049081594311011E-090
   56.5250000000000         1.726766329572956E-090
   56.7150000000000         2.533079422671904E-090
   56.9050000000000         3.375931321299127E-090
   57.0950000000000         4.081032436931490E-090
   57.2850000000000         4.368835295506578E-090
   57.4750000000000         3.838602793267863E-090
   57.6650000000000         1.968926678624782E-090
   57.8550000000000        -1.852712737875613E-090
   58.0450000000000        -8.255973991619914E-090
   58.2350000000000        -1.775262492910505E-089
   58.4250000000000        -3.052548113771619E-089
   58.6150000000000        -4.613276165739078E-089
   58.8050000000000        -6.313254489143437E-089
   58.9950000000000        -7.865404333250422E-089
   59.1850000000000        -8.797467965525814E-089
   59.3750000000000        -8.420455502155225E-089
   59.5650000000000        -5.823067851367838E-089
   59.7550000000000         8.733546183996605E-091
   59.9450000000000         1.047209840783992E-088
   60.1350000000000         2.634965228780698E-088
   60.3250000000000         4.826001509421322E-088
   60.5150000000000         7.579025135201258E-088
   60.7050000000000         1.069659246265513E-087
   60.8950000000000         1.375471433339244E-087
   61.0850000000000         1.603167931707407E-087
   61.2750000000000         1.645130147261421E-087
   61.4650000000000         1.356345640463715E-087
   61.6550000000000         5.592798221631348E-088
   61.8450000000000        -9.406561284683698E-088
   62.0350000000000        -3.324919530696940E-087
   62.2250000000000        -6.713129355294773E-087
   62.4150000000000        -1.109340543705590E-086
   62.6050000000000        -1.623217342205402E-086
   62.7950000000000        -2.156859190781460E-086
   62.9850000000000        -2.610564714668789E-086
   63.1750000000000        -2.831898498142727E-086
   63.3650000000000        -2.611521787540533E-086
   63.5550000000000        -1.688257509933284E-086
   63.7450000000000         2.313727282110479E-087
   63.9350000000000         3.433427652088214E-086
   64.1250000000000         8.131355320633235E-086
   64.3150000000000         1.437188787097218E-085
   64.5050000000000         2.191239274830042E-085
   64.6950000000000         3.007634699106735E-085
   64.8850000000000         3.760269324754355E-085
   65.0750000000000         4.251665213125076E-085
   65.2650000000000         4.206340253475066E-085
   65.4550000000000         3.276029875125385E-085
   65.6450000000000         1.063521917286822E-085
   65.8350000000000        -2.827583924750281E-085
   66.0250000000000        -8.710509645885869E-085
   66.2150000000000        -1.669609827349211E-084
   66.4050000000000        -2.653751526129215E-084
   66.5950000000000        -3.744765734852445E-084
   66.7850000000000        -4.790957955675581E-084
   66.9750000000000        -5.551501022631585E-084
   67.1650000000000        -5.688304544888684E-084
   67.3550000000000        -4.772827721222348E-084
   67.5450000000000        -2.316137596510500E-084
   67.7350000000000         2.168961340859022E-084
   67.9250000000000         9.065897164597654E-084
   68.1150000000000         1.850787077005565E-083
   68.3050000000000         3.018884536720341E-083
   68.4950000000000         4.314405574679613E-083
   68.6850000000000         5.552639859964723E-083
   68.8750000000000         6.442311274466884E-083
   69.0650000000000         6.577760635734096E-083
   69.2550000000000         5.450139402903499E-083
   69.4450000000000         2.487641535729936E-083
   69.6350000000000        -2.864782313964882E-083
   69.8250000000000        -1.101729358810669E-082
   70.0150000000000        -2.205405586370694E-082
   70.2050000000000        -3.550276757147532E-082
   70.3950000000000        -5.007121824012732E-082
   70.5850000000000        -6.338489526169078E-082
   70.7750000000000        -7.178169837722321E-082
   70.9650000000000        -7.024449859875409E-082
   71.1550000000000        -5.257620620627940E-082
   71.3450000000000        -1.193975135570101E-082
   71.5350000000000         5.811073440790650E-082
   71.7250000000000         1.620009696945774E-081
   71.9150000000000         2.998577603697252E-081
   72.1050000000000         4.646289617325421E-081
   72.2950000000000         6.388064913381989E-081
   72.4850000000000         7.911714953516116E-081
   72.6750000000000         8.742488550251622E-081
   72.8650000000000         8.234596013208123E-081
   73.0550000000000         5.592551171159991E-081
   73.2450000000000        -6.256827145349873E-083
   73.4350000000000        -9.566163010755054E-081
   73.6250000000000        -2.350872242684479E-080
   73.8150000000000        -4.195235472504578E-080
   74.0050000000000        -6.406906895707254E-080
   74.1950000000000        -8.772265565128139E-080
   74.3850000000000        -1.090411400774410E-079
   74.5750000000000        -1.220585782319344E-079
   74.7650000000000        -1.185414215783929E-079
   74.9550000000000        -8.815164408705558E-080
   75.1450000000000        -1.912950119257996E-080
   75.3350000000000         1.003066055062493E-079
   75.5250000000000         2.796598636409971E-079
   75.7150000000000         5.228290722282654E-079
   75.9050000000000         8.237493070330306E-079
   76.0950000000000         1.161183246979217E-078
   76.2850000000000         1.493121926361949E-078
   76.4750000000000         1.751610586293389E-078
   76.6650000000000         1.839237624741236E-078
   76.8550000000000         1.628973510571449E-078
   77.0450000000000         9.694549630752346E-079
   77.2350000000000        -3.019216734332154E-079
   77.4250000000000        -2.335737824308918E-078
   77.6150000000000        -5.235198692296727E-078
   77.8050000000000        -9.007815345491611E-078
   77.9950000000000        -1.350508317352807E-077
   78.1850000000000        -1.835386366112445E-077
   78.3750000000000        -2.288687972773261E-077
   78.5650000000000        -2.608429146128972E-077
   78.7550000000000        -2.654341379022292E-077
   78.9450000000000        -2.249867810822907E-077
   79.1350000000000        -1.191800283356317E-077
   79.3250000000000         7.296456516240507E-078
   79.5150000000000         3.697727308111333E-077
   79.7050000000000         7.821231821076015E-077
   79.8950000000000         1.307142507229602E-076
   80.0850000000000         1.920609656839353E-076
   80.2750000000000         2.568640487155841E-076
   80.4650000000000         3.159673359545817E-076
   80.6550000000000         3.558306883499651E-076
   80.8450000000000         3.583104278119835E-076
   81.0350000000000         3.010997890272783E-076
   81.2250000000000         1.591289070551854E-076
   81.4150000000000        -9.277059075355895E-077
   81.6050000000000        -4.756742728440684E-076
   81.7950000000000        -1.000695720459523E-075
   81.9850000000000        -1.661486038350716E-075
   82.1750000000000        -2.425447498840023E-075
   82.3650000000000        -3.224412118173719E-075
   82.5550000000000        -3.946038270410281E-075
   82.7450000000000        -4.427746900298456E-075
   82.9350000000000        -4.455595167363176E-075
   83.1250000000000        -3.770978506024377E-075
   83.3150000000000        -2.088336227429623E-075
   83.5050000000000         8.730478004328260E-076
   83.6950000000000         5.340692078148519E-075
   83.8850000000000         1.142292949570275E-074
   84.0750000000000         1.902648709405572E-074
   84.2650000000000         2.776214311233470E-074
   84.4550000000000         3.684730395265033E-074
   84.6450000000000         4.501954396025897E-074
   84.8350000000000         5.048083651239328E-074
   85.0250000000000         5.089771694042576E-074
   85.2150000000000         4.348698265575238E-074
   85.4050000000000         2.521845846249639E-074
   85.5950000000000        -6.835739930550453E-075
   85.7850000000000        -5.498387271204257E-074
   85.9750000000000        -1.202229637577537E-073
   86.1650000000000        -2.013910002125025E-073
   86.3550000000000        -2.942150356248152E-073
   86.5450000000000        -3.903506161668716E-073
   86.7350000000000        -4.765585762942303E-073
   86.9250000000000        -5.342189767410557E-073
   87.1150000000000        -5.394319746993845E-073
   87.3050000000000        -4.639920527240763E-073
   87.4950000000000        -2.775328246144929E-073
   87.6850000000000         4.889014241276047E-074
   87.8750000000000         5.375972398159308E-073
   88.0650000000000         1.197439885664641E-072
   88.2550000000000         2.015529926236484E-072
   88.4450000000000         2.948089036439088E-072
   88.6350000000000         3.911373546853442E-072
   88.8250000000000         4.774099123535046E-072
   89.0150000000000         5.353276032522067E-072
   89.2050000000000         5.415804126269266E-072
   89.3950000000000         4.688477181445821E-072
   89.5850000000000         2.879095449413081E-072
   89.7750000000000        -2.889477478626122E-073
   89.9650000000000        -5.027092422971303E-072
   90.1550000000000        -1.141703792117665E-071
   90.3450000000000        -1.933339326574329E-071
   90.5350000000000        -2.835878003028412E-071
   90.7250000000000        -3.770031064531451E-071
   90.9150000000000        -4.612053924376983E-071
   91.1050000000000        -5.190025144398905E-071
   91.2950000000000        -5.285424115868340E-071
   91.4850000000000        -4.642372662034915E-071
   91.6750000000000        -2.986930410319497E-071
   91.8650000000000        -5.852085438491367E-073
   92.0550000000000         4.345201252288397E-071
   92.2450000000000         1.031005510633122E-070
   92.4350000000000         1.773558234492634E-070
   92.6250000000000         2.625841601192432E-070
   92.8150000000000         3.517653604743405E-070
   93.0050000000000         4.338576607047096E-070
   93.1950000000000         4.934352990277041E-070
   93.3850000000000         5.107813773375181E-070
   93.5750000000000         4.626405563819738E-070
   93.7650000000000         3.238391973252045E-070
   93.9550000000000         6.995569274235686E-071
   94.1450000000000        -3.188385793038819E-070
   94.3350000000000        -8.527556113835441E-070
   94.5250000000000        -1.526332930237096E-069
   94.7150000000000        -2.311704505113989E-069
   94.9050000000000        -3.151826616864032E-069
   95.0950000000000        -3.954582922809976E-069
   95.2850000000000        -4.589000408442394E-069
   95.4750000000000        -4.885086734294092E-069
   95.6650000000000        -4.638998300419486E-069
   95.8550000000000        -3.625303574426601E-069
   96.0450000000000        -1.617945252893178E-069
   96.2350000000000         1.578948141590306E-069
   96.4250000000000         6.090065715793000E-069
   96.6150000000000         1.191862691672771E-068
   96.8050000000000         1.888936206595434E-068
   96.9950000000000         2.658938885690599E-068
   97.1850000000000         3.431399102759808E-068
   97.3750000000000         4.102681144570681E-068
   97.5650000000000         4.534632878205812E-068
   97.7550000000000         4.557231592778401E-068
   97.9450000000000         3.976680439486161E-068
   98.1350000000000         2.590335202573619E-068
   98.3250000000000         2.095545859750143E-069
   98.5150000000000        -3.308989173892827E-068
   98.7050000000000        -8.023873731650451E-068
   98.8950000000000        -1.386290784001813E-067
   99.0850000000000        -2.057361128985879E-067
   99.2750000000000        -2.767508228562791E-067
   99.4650000000000        -3.441810258191640E-067
   99.6550000000000        -3.976225991473559E-067
   99.8450000000000        -4.238050260477098E-067
   100.035000000000        -4.070254778385249E-067
   100.225000000000        -3.300854590504701E-067
   100.415000000000        -1.758292624346740E-067
   100.605000000000         7.065020665857772E-068
   100.795000000000         4.191290139806229E-067
   100.985000000000         8.707654079959482E-067
   101.175000000000         1.414187757324915E-066
   101.365000000000         2.021465909909758E-066
   101.555000000000         2.644420308767006E-066
   101.745000000000         3.211873438613315E-066
   101.935000000000         3.628586281905818E-066
   102.125000000000         3.776726305814532E-066
   102.315000000000         3.520756097163256E-066
   102.505000000000         2.716582606127435E-066
   102.695000000000         1.225634342492400E-066
   102.885000000000        -1.065791733442880E-066
   103.075000000000        -4.222073328088033E-066
   103.265000000000        -8.229543663829925E-066
   103.455000000000        -1.296522482548823E-065
   103.645000000000        -1.816574218351135E-065
   103.835000000000        -2.340024616357865E-065
   104.025000000000        -2.805225102115086E-065
   104.215000000000        -3.131623368905220E-065
   104.405000000000        -3.221544740761047E-065
   104.595000000000        -2.964749306355048E-065
   104.785000000000        -2.246353666686413E-065
   104.975000000000        -9.585446360002146E-066
   105.165000000000         9.837643232183654E-066
   105.355000000000         3.623587656469564E-065
   105.545000000000         6.939622332055848E-065
   105.735000000000         1.082254642180359E-064
   105.925000000000         1.505205014831518E-064
   106.115000000000         1.927757046235257E-064
   106.305000000000         2.300644446950885E-064
   106.495000000000         2.560380165962008E-064
   106.685000000000         2.630885570763512E-064
   106.875000000000         2.427219214580004E-064
   107.065000000000         1.861802945630589E-064
   107.255000000000         8.534115847255373E-065
   107.445000000000        -6.610204479086818E-065
   107.635000000000        -2.712023135601360E-064
   107.825000000000        -5.281281473769238E-064
   108.015000000000        -8.284493607031191E-064
   108.205000000000        -1.155501523014976E-063
   108.395000000000        -1.483044107874825E-063
   108.585000000000        -1.774476602310335E-063
   108.775000000000        -1.982914896612331E-063
   108.965000000000        -2.052448796446603E-063
   109.155000000000        -1.920891074431637E-063
   109.345000000000        -1.524279456290041E-063
   109.535000000000        -8.032964012302333E-064
   109.725000000000         2.883794303787028E-064
   109.915000000000         1.773984944890840E-063
   110.105000000000         3.642307468073164E-063