  -1.42500000000000         0.000000000000000E+000
  -1.23500000000000         0.000000000000000E+000
  -1.04500000000000         0.000000000000000E+000
 -0.855000000000000         0.000000000000000E+000
 -0.665000000000000         0.000000000000000E+000
 -0.475000000000000         0.000000000000000E+000
 -0.285000000000000         0.000000000000000E+000
 -9.499999999999975E-002    0.000000000000000E+000
  9.500000000000020E-002    0.000000000000000E+000
  0.285000000000000         0.000000000000000E+000
  0.475000000000000         0.000000000000000E+000
  0.665000000000000         0.000000000000000E+000
  0.855000000000000         0.000000000000000E+000
   1.04500000000000         0.000000000000000E+000
   1.23500000000000         0.000000000000000E+000
   1.42500000000000         0.000000000000000E+000
   1.61500000000000         0.000000000000000E+000
   1.80500000000000         0.000000000000000E+000
   1.99500000000000         0.000000000000000E+000
   2.18500000000000         0.000000000000000E+000
   2.37500000000000         0.000000000000000E+000
   2.56500000000000         0.000000000000000E+000
   2.75500000000000         0.000000000000000E+000
   2.94500000000000         0.000000000000000E+000
   3.13500000000000         0.000000000000000E+000
   3.32500000000000         0.000000000000000E+000
   3.51500000000000         0.000000000000000E+000
   3.70500000000000         0.000000000000000E+000
   3.89500000000000         0.000000000000000E+000
   4.08500000000000         0.000000000000000E+000
   4.27500000000000         0.000000000000000E+000
   4.46500000000000         0.000000000000000E+000
   4.65500000000000         0.000000000000000E+000
   4.84500000000000         0.000000000000000E+000
   5.03500000000000         0.000000000000000E+000
   5.22500000000000         0.000000000000000E+000
   5.41500000000000         0.000000000000000E+000
   5.60500000000000         0.000000000000000E+000
   5.79500000000000         0.000000000000000E+000
   5.98500000000000         0.000000000000000E+000
   6.17500000000000        -6.925221154850607E-183
   6.36500000000000         7.000442683749492E-177
   6.55500000000000        -2.274976905618690E-172
   6.74500000000000        -1.239451232527106E-170
   6.93500000000000        -2.708274563580760E-169
   7.12500000000000         3.491709124354970E-168
   7.31500000000000         3.973324339633835E-166
   7.50500000000000         1.276485302608745E-164
   7.69500000000000         2.548183554815998E-163
   7.88500000000000         3.665492234698307E-162
   8.07500000000000         4.071906089021402E-161
   8.26500000000000         3.702748502096177E-160
   8.45500000000000         3.006949913268953E-159
   8.64500000000000         2.492934410985973E-158
   8.83500000000000         2.313377202786636E-157
   9.02500000000000         2.261061430768309E-156
   9.21500000000000         2.062714444815116E-155
   9.40500000000000         1.627641684128440E-154
   9.59500000000000         1.067836968343489E-153
   9.78500000000000         5.614465889043989E-153
   9.97500000000000         2.217680560475083E-152
   10.1650000000000         5.874028656878620E-152
   10.3550000000000         1.606482531876758E-151
   10.5450000000000         2.611046119778700E-150
   10.7350000000000         4.315294705534085E-149
   10.9250000000000         4.893711080071844E-148
   11.1150000000000         4.308658889601410E-147
   11.3050000000000         3.165253231050758E-146
   11.4950000000000         2.014174362616499E-145
   11.6850000000000         1.131854038657805E-144
   11.8750000000000         5.659722827428964E-144
   12.0650000000000         2.509922865471014E-143
   12.2550000000000         9.675973711186146E-143
   12.4450000000000         3.050776743767573E-142
   12.6350000000000         6.170392901346183E-142
   12.8250000000000        -8.485963271038870E-142
   13.0150000000000        -1.872017210823234E-140
   13.2050000000000        -1.364228761007229E-139
   13.3950000000000        -7.605294034915460E-139
   13.5850000000000        -3.671799461079678E-138
   13.7750000000000        -1.604187067358442E-137
   13.9650000000000        -6.474445644611865E-137
   14.1550000000000        -2.440615127045554E-136
   14.3450000000000        -8.644481722369709E-136
   14.5350000000000        -2.884621881420476E-135
   14.7250000000000        -9.067886291485793E-135
   14.9150000000000        -2.676527976339351E-134
   15.1050000000000        -7.358917655832639E-134
   15.2950000000000        -1.853075429199492E-133
   15.4850000000000        -4.114081497751852E-133
   15.6750000000000        -7.226142159891815E-133
   15.8650000000000        -5.298275282497610E-133
   16.0550000000000         3.230240638098171E-132
   16.2450000000000         2.277865709462843E-131
   16.4350000000000         1.009531176375392E-130
   16.6250000000000         3.759972114927598E-130
   16.8150000000000         1.267844367026987E-129
   17.0050000000000         3.992286328988037E-129
   17.1950000000000         1.193091962668098E-128
   17.3850000000000         3.416907084781090E-128
   17.5750000000000         9.437997885431183E-128
   17.7650000000000         2.525724772426213E-127
   17.9550000000000         6.570952747995380E-127
   18.1450000000000         1.666324374702465E-126
   18.3350000000000         4.127697008195526E-126
   18.5250000000000         1.000546723718900E-125
   18.7150000000000         2.376768803737502E-125
   18.9050000000000         5.539811116878801E-125
   19.0950000000000         1.268285590996269E-124
   19.2850000000000         2.854557055416983E-124
   19.4750000000000         6.320991125240759E-124
   19.6650000000000         1.377937664242544E-123
   19.8550000000000         2.958695050455862E-123
   20.0450000000000         6.260183568363183E-123
   20.2350000000000         1.305713121651885E-122
   20.4250000000000         2.685423864481302E-122
   20.6150000000000         5.447413156334870E-122
   20.8050000000000         1.090107526321891E-121
   20.9950000000000         2.152399186485024E-121
   21.1850000000000         4.193811338811426E-121
   21.3750000000000         8.064383185526025E-121
   21.5650000000000         1.530515300517937E-120
   21.7550000000000         2.866940056181260E-120
   21.9450000000000         5.300324760122949E-120
   22.1350000000000         9.670542582886197E-120
   22.3250000000000         1.740969558127700E-119
   22.5150000000000         3.091771876384335E-119
   22.7050000000000         5.414114979583573E-119
   22.8950000000000         9.343419922224028E-119
   23.0850000000000         1.587815337874460E-118
   23.2750000000000         2.654209736010385E-118
   23.4650000000000         4.357652613845748E-118
   23.6550000000000         7.011745585486435E-118
   23.8450000000000         1.102366726650604E-117
   24.0350000000000         1.685689750067843E-117
   24.2250000000000         2.489442562872659E-117
   24.4150000000000         3.508741373442419E-117
   24.6050000000000         4.617091131490740E-117
   24.7950000000000         5.404511535703416E-117
   24.9850000000000         4.860357689243137E-117
   25.1750000000000         7.751821401585392E-118
   25.3650000000000        -1.135351687734159E-116
   25.5550000000000        -4.027294888932796E-116
   25.7450000000000        -1.023795204233335E-115
   25.9350000000000        -2.275395709779249E-115
   26.1250000000000        -4.688563085138373E-115
   26.3150000000000        -9.187656794391456E-115
   26.5050000000000        -1.735094831335741E-114
   26.6950000000000        -3.182495857518885E-114
   26.8850000000000        -5.697100080754370E-114
   27.0750000000000        -9.985389760081523E-114
   27.2650000000000        -1.717204378498301E-113
   27.4550000000000        -2.901536815719824E-113
   27.6450000000000        -4.821154040214588E-113
   27.8350000000000        -7.880740187123675E-113
   28.0250000000000        -1.267302517199893E-112
   28.2150000000000        -2.004114918435396E-112
   28.4050000000000        -3.114102606289579E-112
   28.5950000000000        -4.748009604662113E-112
   28.7850000000000        -7.088203278615330E-112
   28.9750000000000        -1.032785772875713E-111
   29.1650000000000        -1.461452500454987E-111
   29.3550000000000        -1.992543123901429E-111
   29.5450000000000        -2.581802443116268E-111
   29.7350000000000        -3.096052690749743E-111
   29.9250000000000        -3.228521053502221E-111
   30.1150000000000        -2.350948024400636E-111
   30.3050000000000         7.381401601993545E-112
   30.4950000000000         8.232682453799813E-111
   30.6850000000000         2.400418553885408E-110
   30.8750000000000         5.470217991270012E-110
   31.0650000000000         1.114938410288554E-109
   31.2550000000000         2.127725182279030E-109
   31.4450000000000         3.883129074952552E-109
   31.6350000000000         6.855527788811405E-109
   31.8250000000000         1.178950445127338E-108
   32.0150000000000         1.983715428494455E-108
   32.2050000000000         3.275644722322964E-108
   32.3950000000000         5.319317082170576E-108
   32.5850000000000         8.507484823401289E-108
   32.7750000000000         1.341511224929730E-107
   32.9650000000000         2.087205925623491E-107
   33.1550000000000         3.205876295946062E-107
   33.3450000000000         4.862922912110887E-107
   33.5350000000000         7.286493362770798E-107
   33.7250000000000         1.078615015474473E-106
   33.9150000000000         1.577468661926476E-106
   34.1050000000000         2.279245807080941E-106
   34.2950000000000         3.253286779770583E-106
   34.4850000000000         4.586667275016904E-106
   34.6750000000000         6.386155926873571E-106
   34.8650000000000         8.779203526195125E-106
   35.0550000000000         1.191331912615420E-105
   35.2450000000000         1.595304298469266E-105
   35.4350000000000         2.107359463247956E-105
   35.6250000000000         2.745014605757621E-105
   35.8150000000000         3.524148270736404E-105
   36.0050000000000         4.456639705988023E-105
   36.1950000000000         5.547013756056867E-105
   36.3850000000000         6.787589851596182E-105
   36.5750000000000         8.151145428082636E-105
   36.7650000000000         9.579165976642481E-105
   36.9550000000000         1.096208097287893E-104
   37.1450000000000         1.210510199370911E-104
   37.3350000000000         1.266896045376220E-104
   37.5250000000000         1.206862915648813E-104
   37.7150000000000         9.304967756404461E-105
   37.9050000000000         2.694907771259237E-105
   38.0950000000000        -1.054241540260245E-104
   38.2850000000000        -3.488830475815753E-104
   38.4750000000000        -7.734757526850677E-104
   38.6650000000000        -1.484804941594639E-103
   38.8550000000000        -2.635363328823773E-103
   39.0450000000000        -4.434030313014205E-103
   39.2350000000000        -7.147909544193322E-103
   39.4250000000000        -1.108619569635193E-102
   39.6150000000000        -1.654956101638949E-102
   39.8050000000000        -2.372089972861123E-102
   39.9950000000000        -3.246526488058714E-102
   40.1850000000000        -4.200102748227093E-102
   40.3750000000000        -5.040541854422745E-102
   40.5650000000000        -5.393338305571315E-102
   40.7550000000000        -4.617031561184535E-102
   40.9450000000000        -1.712143123624122E-102
   41.1350000000000         4.752011025524383E-102
   41.3250000000000         1.664728949751193E-101
   41.5150000000000         3.615926012488166E-101
   41.7050000000000         6.541308147032787E-101
   41.8950000000000         1.057079512796367E-100
   42.0850000000000         1.561911056357017E-100
   42.2750000000000         2.118102980414818E-100
   42.4650000000000         2.604560071689450E-100
   42.6550000000000         2.793857619360247E-100
   42.8450000000000         2.313672684488377E-100
   43.0350000000000         6.154043257396425E-101
   43.2250000000000        -3.031789919897417E-100
   43.4150000000000        -9.492554701234306E-100
   43.6050000000000        -1.962119324132165E-099
   43.7950000000000        -3.396916078511645E-099
   43.9850000000000        -5.228591810718994E-099
   44.1750000000000        -7.276275736244807E-099
   44.3650000000000        -9.100181924165219E-099
   44.5550000000000        -9.876426938161621E-099
   44.7450000000000        -8.267862815723518E-099
   44.9350000000000        -2.328684174140997E-099
   45.1250000000000         1.049221703068664E-098
   45.3150000000000         3.315064874292949E-098
   45.5050000000000         6.847542077840851E-098
   45.6950000000000         1.181440127526161E-097
   45.8850000000000         1.810003189176674E-097
   46.0750000000000         2.505938980781845E-097
   46.2650000000000         3.119463153996846E-097
   46.4550000000000         3.377969486558036E-097
   46.6450000000000         2.849871596301555E-097
   46.8350000000000         9.223487478168992E-098
   47.0250000000000        -3.186737955961505E-097
   47.2150000000000        -1.035358910986764E-096
   47.4050000000000        -2.137226468511808E-096
   47.5950000000000        -3.663496341461140E-096
   47.7850000000000        -5.562945455464088E-096
   47.9750000000000        -7.623244324733331E-096
   48.1650000000000        -9.381896687978305E-096
   48.3550000000000        -1.002815116549879E-095
   48.5450000000000        -8.316618673743384E-096
   48.7350000000000        -2.529003215944652E-096
   48.9250000000000         9.460350364069019E-096
   49.1150000000000         2.993883368151570E-095
   49.3050000000000         6.083665488032334E-095
   49.4950000000000         1.028361625517302E-094
   49.6850000000000         1.540294383172118E-094
   49.8750000000000         2.081021944578697E-094
   50.0650000000000         2.521380142850979E-094
   50.2550000000000         2.643291631041562E-094
   50.4450000000000         2.121611514805516E-094
   50.6350000000000         5.200650727746902E-095
   50.8250000000000        -2.685083193691948E-094
   51.0150000000000        -8.035776284607815E-094
   51.2050000000000        -1.595656306644948E-093
   51.3950000000000        -2.653220092813235E-093
   51.5850000000000        -3.918424008821868E-093
   51.7750000000000        -5.224783891829194E-093
   51.9650000000000        -6.247842515094942E-093
   52.1550000000000        -6.456230159752316E-093
   52.3450000000000        -5.076748257026720E-093
   52.5350000000000        -1.094910162354823E-093
   52.7250000000000         6.678994395650958E-093
   52.9150000000000         1.944039303842601E-092
   53.1050000000000         3.807522053170204E-092
   53.2950000000000         6.265994871422514E-092
   53.4850000000000         9.175392755201904E-092
   53.6750000000000         1.214965327797958E-091
   53.8650000000000         1.445828807793354E-091
   54.0550000000000         1.492841349246936E-091
   54.2450000000000         1.188030323810895E-091
   54.4350000000000         3.140635563868574E-092
   54.6250000000000        -1.380636003914031E-091
   54.8150000000000        -4.145602669316552E-091
   55.0050000000000        -8.162898732965969E-091
   55.1950000000000        -1.344552920431247E-090
   55.3850000000000        -1.969615860495595E-090
   55.5750000000000        -2.612969423821817E-090
   55.7650000000000        -3.127512610071847E-090
   55.9550000000000        -3.278932275855606E-090
   56.1450000000000        -2.733828386218816E-090
   56.3350000000000        -1.062831752520038E-090
   56.5250000000000         2.230261084021092E-090
   56.7150000000000         7.640063551744638E-090
   56.9050000000000         1.553784397435924E-089
   57.0950000000000         2.598441946292798E-089
   57.2850000000000         3.847212417216460E-089
   57.4750000000000         5.160295722862047E-089
   57.6650000000000         6.273061688204184E-089
   57.8550000000000         6.762372590377237E-089
   58.0450000000000         6.024590973295277E-089
   58.2350000000000         3.279303743146729E-089
   58.4250000000000        -2.382687418466975E-089
   58.6150000000000        -1.188499599292163E-088
   58.8050000000000        -2.596170782954524E-088
   58.9950000000000        -4.484414572855013E-088
   59.1850000000000        -6.782917529943541E-088
   59.3750000000000        -9.274025856081018E-088
   59.5650000000000        -1.153251296517080E-087
   59.7550000000000        -1.286803967691385E-087
   59.9450000000000        -1.228529722944679E-087
   60.1350000000000        -8.483701755697496E-088
   60.3250000000000         7.458104098819556E-090
   60.5150000000000         1.499408243884121E-087
   60.7050000000000         3.763708359475433E-087
   60.8950000000000         6.864551777094821E-087
   61.0850000000000         1.072784843777217E-086
   61.2750000000000         1.505799488738525E-086
   61.4650000000000         1.924387446294515E-086
   61.6550000000000         2.226702034595551E-086
   61.8450000000000         2.263346031863541E-086
   62.0350000000000         1.836063563602171E-086
   62.2250000000000         7.060694117872361E-087
   62.4150000000000        -1.383071817786137E-086
   62.6050000000000        -4.662841269364151E-086
   62.7950000000000        -9.272927971823060E-086
   62.9850000000000        -1.516773607910253E-085
   63.1750000000000        -2.199783797674701E-085
   63.3650000000000        -2.897438203885211E-085
   63.5550000000000        -3.473350249267953E-085
   63.7450000000000        -3.722929858863915E-085
   63.9350000000000        -3.369717674458339E-085
   64.1250000000000        -2.074263332337052E-085
   64.3150000000000         5.378856840698222E-086
   64.5050000000000         4.822129706742109E-085
   64.6950000000000         1.102854822517174E-084
   64.8850000000000         1.917988719086074E-084
   65.0750000000000         2.891535008718078E-084
   65.2650000000000         3.930983139282779E-084
   65.4550000000000         4.868962526877008E-084
   65.6450000000000         5.448013311010024E-084
   65.8350000000000         5.313769900245574E-084
   66.0250000000000         4.023436805318665E-084
   66.2150000000000         1.077769761820081E-084
   66.4050000000000        -4.014713198056978E-084
   66.5950000000000        -1.163350978936150E-083
   66.7850000000000        -2.189725934611160E-083
   66.9750000000000        -3.447167453303249E-083
   67.1650000000000        -4.834544094266711E-083
   67.3550000000000        -6.159887439397411E-083
   67.5450000000000        -7.120739825851596E-083
   67.7350000000000        -7.294162196789893E-083
   67.9250000000000        -6.144551277140190E-083
   68.1150000000000        -3.058985364005239E-083
   68.3050000000000         2.579583985365528E-083
   68.4950000000000         1.127208456087908E-082
   68.6850000000000         2.323047238254094E-082
   68.8750000000000         3.815380977725845E-082
   69.0650000000000         5.496602177171949E-082
   69.2550000000000         7.154376155955158E-082
   69.4450000000000         8.448260022299569E-082
   69.6350000000000         8.897222980196010E-082
   69.8250000000000         7.887369983731880E-082
   70.0150000000000         4.710933255862157E-082
   70.2050000000000        -1.351757051781132E-082
   70.3950000000000        -1.089690248476428E-081
   70.5850000000000        -2.420221705240812E-081
   70.7750000000000        -4.097401391694348E-081
   70.9650000000000        -6.005076545558608E-081
   71.1550000000000        -7.909506436472023E-081
   71.3450000000000        -9.432798723797252E-081
   71.5350000000000        -1.003848552009373E-080
   71.7250000000000        -9.039614990535904E-081
   71.9150000000000        -5.641684548935098E-081
   72.1050000000000         9.665415291694323E-082
   72.2950000000000         1.146270082534109E-080
   72.4850000000000         2.617392837663251E-080
   72.6750000000000         4.479507848255238E-080
   72.8650000000000         6.605756224912744E-080
   73.0550000000000         8.738348528622400E-080
   73.2450000000000         1.045839182322049E-079
   73.4350000000000         1.116875493821110E-079
   73.6250000000000         1.010133188410903E-079
   73.8150000000000         6.362258544986501E-080
   74.0050000000000        -9.704568949739598E-081
   74.1950000000000        -1.268376654174128E-079
   74.3850000000000        -2.919242903762071E-079
   74.5750000000000        -5.022854189388555E-079
   74.7650000000000        -7.447292925915474E-079
   74.9550000000000        -9.916388495218367E-079
   75.1450000000000        -1.197445604276935E-078
   75.3350000000000        -1.296399090142733E-078
   75.5250000000000        -1.202842385335522E-078
   75.7150000000000        -8.154571746240362E-079
   75.9050000000000        -2.707003516843444E-080
   76.0950000000000         1.258482565604849E-078
   76.2850000000000         3.101363382260055E-078
   76.4750000000000         5.492434664216542E-078
   76.6650000000000         8.312907381853438E-078
   76.8550000000000         1.129025414162723E-077
   77.0450000000000         1.395635471692018E-077
   77.2350000000000         1.561695513995497E-077
   77.4250000000000         1.534478748515049E-077
   77.6150000000000         1.201161103812028E-077
   77.8050000000000         4.376262371232077E-078
   77.9950000000000        -8.754416387718284E-078
   78.1850000000000        -2.827830239653862E-077
   78.3750000000000        -5.445869770270177E-077
   78.5650000000000        -8.650065058426754E-077
   78.7550000000000        -1.220701083616329E-076
   78.9450000000000        -1.568090471759411E-076
   79.1350000000000        -1.839309928891533E-076
   79.3250000000000        -1.940154304040072E-076
   79.5150000000000        -1.751520580904069E-076
   79.7050000000000        -1.136100433689279E-076
   79.8950000000000         4.785515306476580E-078
   80.0850000000000         1.924086526007451E-076
   80.2750000000000         4.566187523014818E-076
   80.4650000000000         7.955900318611460E-076
   80.6550000000000         1.193369620255424E-075
   80.8450000000000         1.614587118060943E-075
   81.0350000000000         1.999534987956500E-075
   81.2250000000000         2.260675900996965E-075
   81.4150000000000         2.281974625129211E-075
   81.6050000000000         1.922742347129461E-075
   81.7950000000000         1.027843018838758E-075
   81.9850000000000        -5.539531274682384E-076
   82.1750000000000        -2.942086246260603E-075
   82.3650000000000        -6.186266689582905E-075
   82.5550000000000        -1.021936017007532E-074
   82.7450000000000        -1.480400472176035E-074
   82.9350000000000        -1.947849620392817E-074
   83.1250000000000        -2.351060047377151E-074
   83.3150000000000        -2.587130483823292E-074
   83.5050000000000        -2.524367543812912E-074
   83.6950000000000        -2.008431114813194E-074
   83.8850000000000        -8.755553708322217E-075
   84.0750000000000         1.025535776517416E-074
   84.2650000000000         3.801968129425835E-074
   84.4550000000000         7.475302136286268E-074
   84.6450000000000         1.193194624354981E-073
   84.8350000000000         1.686915389657439E-073
   85.0250000000000         2.174306108637728E-073
   85.2150000000000         2.572828973107229E-073
   85.4050000000000         2.770177118051885E-073
   85.5950000000000         2.626615989868911E-073
   85.7850000000000         1.982985868448673E-073
   85.9750000000000         6.760448888593169E-074
   86.1650000000000        -1.437471928772567E-073
   86.3550000000000        -4.447382859553223E-073
   86.5450000000000        -8.347626390327919E-073
   86.7350000000000        -1.298697075026543E-072
   86.9250000000000        -1.801714669903845E-072
   87.1150000000000        -2.284529438910644E-072
   87.3050000000000        -2.660047020601749E-072
   87.4950000000000        -2.812673456641508E-072
   87.6850000000000        -2.601756103161724E-072
   87.8750000000000        -1.870734340955565E-072
   88.0650000000000        -4.634873922682543E-073
   88.2550000000000         1.751001110422742E-072
   88.4450000000000         4.845268945822304E-072
   88.6350000000000         8.792051543311951E-072
   88.8250000000000         1.341738215879664E-071
   89.0150000000000         1.835254439699158E-071
   89.2050000000000         2.299170548642177E-071
   89.3950000000000         2.646460742260250E-071
   89.5850000000000         2.763607508758278E-071
   89.7750000000000         2.514587118857038E-071
   89.9650000000000         1.750301824439280E-071
   90.1550000000000         3.247449756336055E-072
   90.3450000000000        -1.881196842599183E-071
   90.5350000000000        -4.928106593368333E-071
   90.7250000000000        -8.779448242097675E-071
   90.9150000000000        -1.325838899779875E-070
   91.1050000000000        -1.800424114162304E-070
   91.2950000000000        -2.243485081671874E-070
   91.4850000000000        -2.572346877725468E-070
   91.6750000000000        -2.680065143578248E-070
   91.8650000000000        -2.439316980038179E-070
   92.0550000000000        -1.711225954719111E-070
   92.2450000000000        -3.602262778559122E-071
   92.4350000000000         1.724280222606237E-070
   92.6250000000000         4.599350171118100E-070
   92.8150000000000         8.233831600169758E-070
   93.0050000000000         1.246970763597038E-069
   93.1950000000000         1.698313879537620E-069
   93.3850000000000         2.125069518714943E-069
   93.5750000000000         2.452813723341266E-069
   93.7650000000000         2.585079795938665E-069
   93.9550000000000         2.406581948678024E-069
   94.1450000000000         1.790680047480383E-069
   94.3350000000000         6.120361062431017E-070
   94.5250000000000        -1.234875168593045E-069
   94.7150000000000        -3.811255312430097E-069
   94.9050000000000        -7.104099842822343E-069
   95.0950000000000        -1.099262095121251E-068
   95.2850000000000        -1.521394752800012E-068
   95.4750000000000        -1.933255458496503E-068
   95.6650000000000        -2.271941610449623E-068
   95.8550000000000        -2.454829519092552E-068
   96.0450000000000        -2.381763252332929E-068
   96.2350000000000        -1.940685648040342E-068
   96.4250000000000        -1.017525770071875E-068
   96.6150000000000         4.890528964480660E-069
   96.8050000000000         2.647826236950946E-068
   96.9950000000000         5.470478854404823E-068
   97.1850000000000         8.883548366398240E-068
   97.3750000000000         1.269903207458068E-067
   97.5650000000000         1.658700816805382E-067
   97.7550000000000         2.005485869958635E-067
   97.9450000000000         2.243885344827396E-067
   98.1350000000000         2.291477901122551E-067
   98.3250000000000         2.053474538183684E-067
   98.5150000000000         1.429700501902784E-067
   98.7050000000000         3.254291150901960E-068
   98.8950000000000        -1.333645131651206E-067
   99.0850000000000        -3.582422897131729E-067
   99.2750000000000        -6.394114839240053E-067
   99.4650000000000        -9.656104496223714E-067
   99.6550000000000        -1.314628182235567E-066
   99.8450000000000        -1.651312000263677E-066
   100.035000000000        -1.926370557217410E-066
   100.225000000000        -2.076473092985126E-066
   100.415000000000        -2.026195795290733E-066
   100.605000000000        -1.692367086231796E-066
   100.795000000000        -9.912947317013612E-067
   100.985000000000         1.508018170556264E-067
   101.175000000000         1.784098403008731E-066
   101.365000000000         3.918545132880249E-066
   101.555000000000         6.505159697437704E-066
   101.745000000000         9.416695445655086E-066
   101.935000000000         1.242983878200792E-065
   102.125000000000         1.521180576823820E-065
   102.315000000000         1.731486409713219E-065
   102.505000000000         1.818279819304071E-065
   102.695000000000         1.717353362671733E-065
   102.885000000000         1.360189769079382E-065
   103.075000000000         6.805666336033834E-066
   103.265000000000        -3.763504376014060E-066
   103.455000000000        -1.842504678653084E-065
   103.645000000000        -3.713439415719700E-065
   103.835000000000        -5.933597605102488E-065
   104.025000000000        -8.381720595906499E-065
   104.215000000000        -1.085815118430613E-064
   104.405000000000        -1.307635012694260E-064
   104.595000000000        -1.466136475145756E-064
   104.785000000000        -1.515826190918942E-064
   104.975000000000        -1.405356058711090E-064
   105.165000000000        -1.081236996186583E-064
   105.355000000000        -4.933156327002286E-065
   105.545000000000         3.979258577492961E-065
   105.735000000000         1.612378024204623E-064
   105.925000000000         3.140003343331346E-064
   106.115000000000         4.929914787309948E-064
   106.305000000000         6.879866952807121E-064
   106.495000000000         8.827551774758458E-064
   106.685000000000         1.054542727865345E-063
   106.875000000000         1.174107401116314E-063
   107.065000000000         1.206521171215393E-063
   107.255000000000         1.112945313062083E-063
   107.445000000000         8.535554816284865E-064
   107.635000000000         3.917282791176994E-064
   107.825000000000        -3.005005885122749E-064
   108.015000000000        -1.235838249222040E-063
   108.205000000000        -2.404309247829263E-063
   108.395000000000        -3.765529414643445E-063
   108.585000000000        -5.241441124843258E-063
   108.775000000000        -6.710510183817612E-063
   108.965000000000        -8.004599376278040E-063
   109.155000000000        -8.909892166442732E-063
   109.345000000000        -9.173303214020985E-063
   109.535000000000        -8.515737684392985E-063
   109.725000000000        -6.653305961352853E-063
   109.915000000000        -3.327125992259657E-063
   110.105000000000         1.658375787845733E-063