  -1.42500000000000         0.000000000000000E+000
  -1.23500000000000         0.000000000000000E+000
  -1.04500000000000         0.000000000000000E+000
 -0.855000000000000         0.000000000000000E+000
 -0.665000000000000         0.000000000000000E+000
 -0.475000000000000         0.000000000000000E+000
 -0.285000000000000         0.000000000000000E+000
 -9.499999999999975E-002    0.000000000000000E+000
  9.500000000000020E-002    0.000000000000000E+000
  0.285000000000000         0.000000000000000E+000
  0.475000000000000         0.000000000000000E+000
  0.665000000000000         0.000000000000000E+000
  0.855000000000000         0.000000000000000E+000
   1.04500000000000         0.000000000000000E+000
   1.23500000000000         0.000000000000000E+000
   1.42500000000000         0.000000000000000E+000
   1.61500000000000         0.000000000000000E+000
   1.80500000000000         0.000000000000000E+000
   1.99500000000000         0.000000000000000E+000
   2.18500000000000         0.000000000000000E+000
   2.37500000000000         0.000000000000000E+000
   2.56500000000000         0.000000000000000E+000
   2.75500000000000         0.000000000000000E+000
   2.94500000000000         0.000000000000000E+000
   3.13500000000000         0.000000000000000E+000
   3.32500000000000         0.000000000000000E+000
   3.51500000000000         0.000000000000000E+000
   3.70500000000000         0.000000000000000E+000
   3.89500000000000         0.000000000000000E+000
   4.08500000000000         0.000000000000000E+000
   4.27500000000000         0.000000000000000E+000
   4.46500000000000         0.000000000000000E+000
   4.65500000000000         0.000000000000000E+000
   4.84500000000000         0.000000000000000E+000
   5.03500000000000         0.000000000000000E+000
   5.22500000000000         0.000000000000000E+000
   5.41500000000000         0.000000000000000E+000
   5.60500000000000         0.000000000000000E+000
   5.79500000000000         0.000000000000000E+000
   5.98500000000000         0.000000000000000E+000
   6.17500000000000        -2.394427084729859E-183
   6.36500000000000         5.252473958327401E-177
   6.55500000000000        -6.583007945194063E-173
   6.74500000000000        -5.766291022643288E-171
   6.93500000000000         1.739289198407135E-169
   7.12500000000000         1.932689516260730E-167
   7.31500000000000         6.777660006947207E-166
   7.50500000000000         1.473150794789328E-164
   7.69500000000000         2.287110549763527E-163
   7.88500000000000         2.567643536590060E-162
   8.07500000000000         1.707016063934857E-161
   8.26500000000000        -6.521137414063202E-161
   8.45500000000000        -4.323940743666145E-159
   8.64500000000000        -8.495772523180079E-158
   8.83500000000000        -1.199976534013805E-156
   9.02500000000000        -1.383811699358035E-155
   9.21500000000000        -1.363453880318452E-154
   9.40500000000000        -1.173042410465950E-153
   9.59500000000000        -8.915749202129967E-153
   9.78500000000000        -6.020102100980910E-152
   9.97500000000000        -3.612081435352107E-151
   10.1650000000000        -1.912703957420315E-150
   10.3550000000000        -8.760821804287628E-150
   10.5450000000000        -3.287105678565265E-149
   10.7350000000000        -8.295360486835703E-149
   10.9250000000000         5.258572341981093E-149
   11.1150000000000         2.481049610161550E-147
   11.3050000000000         2.116049758712627E-146
   11.4950000000000         1.331239817811180E-145
   11.6850000000000         7.182267893169940E-145
   11.8750000000000         3.511842688332464E-144
   12.0650000000000         1.605064501058696E-143
   12.2550000000000         7.011885677883862E-143
   12.4450000000000         2.981011135158166E-142
   12.6350000000000         1.250174762928146E-141
   12.8250000000000         5.211679266490387E-141
   13.0150000000000         2.161495310536220E-140
   13.2050000000000         8.874902924432060E-140
   13.3950000000000         3.577984838491757E-139
   13.5850000000000         1.403638642109261E-138
   13.7750000000000         5.313133343698404E-138
   13.9650000000000         1.925835947139020E-137
   14.1550000000000         6.634607395881314E-137
   14.3450000000000         2.153346728721833E-136
   14.5350000000000         6.500205850556635E-136
   14.7250000000000         1.783498423239340E-135
   14.9150000000000         4.227137805766323E-135
   15.1050000000000         7.375470227126497E-135
   15.2950000000000         9.131933182539516E-136
   15.4850000000000        -7.314803325618667E-134
   15.6750000000000        -4.677841871274201E-133
   15.8650000000000        -2.152893024317439E-132
   16.0550000000000        -8.543386371555869E-132
   16.2450000000000        -3.091499625702762E-131
   16.4350000000000        -1.045978120313053E-130
   16.6250000000000        -3.354173211281002E-130
   16.8150000000000        -1.027919199276062E-129
   17.0050000000000        -3.027154200535782E-129
   17.1950000000000        -8.600039559355128E-129
   17.3850000000000        -2.363763570305547E-128
   17.5750000000000        -6.299383490896944E-128
   17.7650000000000        -1.630521769400906E-127
   17.9550000000000        -4.104659863437206E-127
   18.1450000000000        -1.006032481847075E-126
   18.3350000000000        -2.402624499391258E-126
   18.5250000000000        -5.594408597153241E-126
   18.7150000000000        -1.270493142929920E-125
   18.9050000000000        -2.814411319818483E-125
   19.0950000000000        -6.080246746106431E-125
   19.2850000000000        -1.280378791256680E-124
   19.4750000000000        -2.625427243009778E-124
   19.6650000000000        -5.233389877829248E-124
   19.8550000000000        -1.011463831021064E-123
   20.0450000000000        -1.887634783148358E-123
   20.2350000000000        -3.379224113832912E-123
   20.4250000000000        -5.738215466545452E-123
   20.6150000000000        -9.051665130838309E-123
   20.8050000000000        -1.267405247265473E-122
   20.9950000000000        -1.377500454597968E-122
   21.1850000000000        -3.944175632187051E-123
   21.3750000000000         3.826568235788094E-122
   21.5650000000000         1.629404236307904E-121
   21.7550000000000         4.801343003781604E-121
   21.9450000000000         1.220500755100771E-120
   22.1350000000000         2.848582641622350E-120
   22.3250000000000         6.267222896155039E-120
   22.5150000000000         1.317311822564846E-119
   22.7050000000000         2.665069250519293E-119
   22.8950000000000         5.211753839183822E-119
   23.0850000000000         9.873907821847929E-119
   23.2750000000000         1.813620574565931E-118
   23.4650000000000         3.227638085904075E-118
   23.6550000000000         5.553454208189379E-118
   23.8450000000000         9.198572677850508E-118
   24.0350000000000         1.455474849609098E-117
   24.2250000000000         2.168965747114895E-117
   24.4150000000000         2.957993718884348E-117
   24.6050000000000         3.439898010753490E-117
   24.7950000000000         2.594221995621669E-117
   24.9850000000000        -1.949087669136762E-117
   25.1750000000000        -1.527636005582213E-116
   25.3650000000000        -4.773761023042110E-116
   25.5550000000000        -1.195766689322253E-115
   25.7450000000000        -2.691629391772188E-115
   25.9350000000000        -5.673383297188792E-115
   26.1250000000000        -1.141969692574814E-114
   26.3150000000000        -2.219254722351701E-114
   26.5050000000000        -4.192094064573488E-114
   26.6950000000000        -7.731506231401222E-114
   26.8850000000000        -1.396541976135092E-113
   27.0750000000000        -2.476125187711532E-113
   27.2650000000000        -4.316571567074812E-113
   27.4550000000000        -7.407866208062664E-113
   27.6450000000000        -1.252687368740439E-112
   27.8350000000000        -2.088779238037817E-112
   28.0250000000000        -3.436089067432206E-112
   28.2150000000000        -5.578398980226793E-112
   28.4050000000000        -8.939569923565548E-112
   28.5950000000000        -1.414215806390076E-111
   28.7850000000000        -2.208408832542150E-111
   28.9750000000000        -3.403466305890572E-111
   29.1650000000000        -5.174766317671172E-111
   29.3550000000000        -7.758236242128572E-111
   29.5450000000000        -1.146108871536911E-110
   29.7350000000000        -1.666696260787429E-110
   29.9250000000000        -2.382793804143803E-110
   30.1150000000000        -3.343084606567077E-110
   30.3050000000000        -4.591784558029834E-110
   30.4950000000000        -6.153061058008711E-110
   30.6850000000000        -8.003277756179171E-110
   30.8750000000000        -1.002456265601535E-109
   31.0650000000000        -1.193064589061978E-109
   31.2550000000000        -1.315271579786324E-109
   31.4450000000000        -1.266917427555666E-109
   31.6350000000000        -8.758668460139108E-110
   31.8250000000000         1.349266508766983E-110
   32.0150000000000         2.195705561910536E-109
   32.2050000000000         5.955223584708080E-109
   32.3950000000000         1.236737702538206E-108
   32.5850000000000         2.280412977077828E-108
   32.7750000000000         3.920063597323652E-108
   32.9650000000000         6.423993854972632E-108
   33.1550000000000         1.015872023577601E-107
   33.3450000000000         1.561880145691555E-107
   33.5350000000000         2.346530817190796E-107
   33.7250000000000         3.457640927008423E-107
   33.9150000000000         5.011536761337740E-107
   34.1050000000000         7.162357468090120E-107
   34.2950000000000         1.011486540143408E-106
   34.4850000000000         1.414188260826944E-106
   34.6750000000000         1.960717907762360E-106
   34.8650000000000         2.699338527435722E-106
   35.0550000000000         3.693132856809037E-106
   35.2450000000000         5.022054915246109E-106
   35.4350000000000         6.781831161982442E-106
   35.6250000000000         9.075298462122276E-106
   35.8150000000000         1.198832168502522E-105
   36.0050000000000         1.553726484899120E-105
   36.1950000000000         1.956778045528780E-105
   36.3850000000000         2.357548621619147E-105
   36.5750000000000         2.640878987161407E-105
   36.7650000000000         2.580508974768494E-105
   36.9550000000000         1.770870947961710E-105
   37.1450000000000        -4.669138582591806E-106
   37.3350000000000        -5.204754757208410E-105
   37.5250000000000        -1.404402731577321E-104
   37.7150000000000        -2.924327596643295E-104
   37.9050000000000        -5.378460200065694E-104
   38.0950000000000        -9.128524653120722E-104
   38.2850000000000        -1.456042887934913E-103
   38.4750000000000        -2.199233995720236E-103
   38.6650000000000        -3.150028438159458E-103
   38.8550000000000        -4.262478587130320E-103
   39.0450000000000        -5.392011714003874E-103
   39.2350000000000        -6.231629113445337E-103
   39.4250000000000        -6.229167603571642E-103
   39.6150000000000        -4.491300944595600E-103
   39.8050000000000         3.095707762136637E-104
   39.9950000000000         9.992778505868968E-103
   40.1850000000000         2.683439330219094E-102
   40.3750000000000         5.335129843595149E-102
   40.5650000000000         9.177837676845873E-102
   40.7550000000000         1.430753226774194E-101
   40.9450000000000         2.052735574128890E-101
   41.1350000000000         2.709792030420378E-101
   41.3250000000000         3.239158764242658E-101
   41.5150000000000         3.345644520252111E-101
   41.7050000000000         2.552910521737755E-101
   41.8950000000000         1.591176884023455E-102
   42.0850000000000        -4.785186506913219E-101
   42.2750000000000        -1.344753720350357E-100
   42.4650000000000        -2.708856696310739E-100
   42.6550000000000        -4.678185741026270E-100
   42.8450000000000        -7.290470414428648E-100
   43.0350000000000        -1.043191375809918E-099
   43.2250000000000        -1.371725780843330E-099
   43.4150000000000        -1.632877952408201E-099
   43.6050000000000        -1.682002585879316E-099
   43.7950000000000        -1.290588829410092E-099
   43.9850000000000        -1.285574821415943E-100
   44.1750000000000         2.241909446472901E-099
   44.3650000000000         6.348053017357562E-099
   44.5550000000000         1.274519695125595E-098
   44.7450000000000         2.188811878177402E-098
   44.9350000000000         3.390646798809618E-098
   45.1250000000000         4.825496616161742E-098
   45.3150000000000         6.321607125550059E-098
   45.5050000000000         7.525244896117376E-098
   45.6950000000000         7.824545015660072E-098
   45.8850000000000         6.272107285117313E-098
   46.0750000000000         1.526326970793072E-098
   46.2650000000000        -8.155026383284210E-098
   46.4550000000000        -2.481853275439748E-097
   46.6450000000000        -5.054682402651848E-097
   46.8350000000000        -8.693147404823085E-097
   47.0250000000000        -1.341902533013714E-096
   47.2150000000000        -1.898388372229680E-096
   47.4050000000000        -2.468644867550115E-096
   47.5950000000000        -2.914348043215749E-096
   47.7850000000000        -3.003290072972283E-096
   47.9750000000000        -2.385229160159581E-096
   48.1650000000000        -5.770723376033005E-097
   48.3550000000000         3.030275130208964E-096
   48.5450000000000         9.125735177278396E-096
   48.7350000000000         1.836950167452785E-095
   48.9250000000000         3.119494797498735E-095
   49.1150000000000         4.749326837755372E-095
   49.3050000000000         6.615934387628697E-095
   49.4950000000000         8.449466310889448E-095
   49.6850000000000         9.749677132124794E-095
   49.8750000000000         9.712006419007297E-095
   50.0650000000000         7.167417798092867E-095
   50.2550000000000         5.635100745638726E-096
   50.4450000000000        -1.197242198647139E-094
   50.6350000000000        -3.243371659716336E-094
   50.8250000000000        -6.253152243656586E-094
   51.0150000000000        -1.030173682461628E-093
   51.2050000000000        -1.526689055412964E-093
   51.3950000000000        -2.069096083470780E-093
   51.5850000000000        -2.561015769169122E-093
   51.7750000000000        -2.836665675771000E-093
   51.9650000000000        -2.643642726452532E-093
   52.1550000000000        -1.632928345895472E-093
   52.3450000000000         6.353361653828893E-094
   52.5350000000000         4.658605972327128E-093
   52.7250000000000         1.091670581503082E-092
   52.9150000000000         1.973860204296080E-092
   53.1050000000000         3.109641748913088E-092
   53.2950000000000         4.431789660776114E-092
   53.4850000000000         5.772152486051302E-092
   53.6750000000000         6.820099683883588E-092
   53.8650000000000         7.081979456768941E-092
   54.0550000000000         5.852316756208072E-092
   54.2450000000000         2.213232236682214E-092
   54.4350000000000        -4.915121460808424E-092
   54.6250000000000        -1.664452511138663E-091
   54.8150000000000        -3.387705255478862E-091
   55.0050000000000        -5.692143478237372E-091
   55.1950000000000        -8.494726095550068E-091
   55.3850000000000        -1.152799269481959E-090
   55.5750000000000        -1.425796250042110E-090
   55.7650000000000        -1.580090854037206E-090
   55.9550000000000        -1.485787972694223E-090
   56.1450000000000        -9.696242510091172E-091
   56.3350000000000         1.781027560889882E-091
   56.5250000000000         2.182695686721510E-090
   56.7150000000000         5.244510630162432E-090
   56.9050000000000         9.473096919507018E-090
   57.0950000000000         1.479206666410933E-089
   57.2850000000000         2.081455198054779E-089
   57.4750000000000         2.669582266111555E-089
   57.6650000000000         3.097985781199326E-089
   57.8550000000000         3.147063468506791E-089
   58.0450000000000         2.517617337562745E-089
   58.2350000000000         8.392427947049976E-090
   58.4250000000000        -2.298811374238030E-089
   58.6150000000000        -7.284676205750554E-089
   58.8050000000000        -1.437935033416278E-088
   58.9950000000000        -2.356368310742939E-088
   59.1850000000000        -3.433574854820287E-088
   59.3750000000000        -4.546785382349334E-088
   59.5650000000000        -5.474817612392090E-088
   59.7550000000000        -5.875352048481118E-088
   59.9450000000000        -5.272624595148315E-088
   60.1350000000000        -3.065770882849463E-088
   60.3250000000000         1.429193286096483E-088
   60.5150000000000         8.888937918283982E-088
   60.7050000000000         1.982924737747102E-087
   60.8950000000000         3.437707978127865E-087
   61.0850000000000         5.196536249384924E-087
   61.2750000000000         7.096243674275667E-087
   61.4650000000000         8.827061601083620E-087
   61.6550000000000         9.895908616341107E-087
   61.8450000000000         9.603435977610456E-087
   62.0350000000000         7.049347251245181E-087
   62.2250000000000         1.184477801282366E-087
   62.4150000000000        -9.069153154257011E-087
   62.6050000000000        -2.460904646203827E-086
   62.7950000000000        -4.583684620869491E-086
   62.9850000000000        -7.223107268884886E-086
   63.1750000000000        -1.018218855003555E-085
   63.3650000000000        -1.306119104488954E-085
   63.5550000000000        -1.520282719557130E-085
   63.7450000000000        -1.565417780445419E-085
   63.9350000000000        -1.316455128369127E-085
   64.1250000000000        -6.243877868330570E-086
   64.3150000000000         6.689953788040468E-086
   64.5050000000000         2.704597263099412E-085
   64.6950000000000         5.565361914988784E-085
   64.8850000000000         9.220484621209825E-085
   65.0750000000000         1.345593804543862E-084
   65.2650000000000         1.779653490224749E-084
   65.4550000000000         2.142989938797786E-084
   65.6450000000000         2.314910212283416E-084
   65.8350000000000         2.133781889890922E-084
   66.0250000000000         1.402872089579983E-084
   66.2150000000000        -9.291635181299348E-086
   66.4050000000000        -2.555733990322986E-084
   66.5950000000000        -6.125794015954249E-084
   66.7850000000000        -1.081315985404486E-083
   66.9750000000000        -1.641163870813971E-083
   67.1650000000000        -2.240053535644579E-083
   67.3550000000000        -2.784610227961273E-083
   67.5450000000000        -3.132208721981056E-083
   67.7350000000000        -3.087725264647673E-083
   67.9250000000000        -2.408600911760227E-083
   68.1150000000000        -8.224599526763719E-084
   68.3050000000000         1.938287882669830E-083
   68.4950000000000         6.081004763384201E-083
   68.6850000000000         1.167437030965517E-082
   68.8750000000000         1.854789954437954E-082
   69.0650000000000         2.617533092620841E-082
   69.2550000000000         3.355457386546420E-082
   69.4450000000000         3.910540239042633E-082
   69.6350000000000         4.061567474559977E-082
   69.8250000000000         3.527635497439342E-082
   70.0150000000000         1.985311563869507E-082
   70.2050000000000        -8.954846018418998E-083
   70.3950000000000        -5.392330414552888E-082
   70.5850000000000        -1.164503478678176E-081
   70.7750000000000        -1.954468374532830E-081
   70.9650000000000        -2.860258605256735E-081
   71.1550000000000        -3.781190472382197E-081
   71.3450000000000        -4.552383699620777E-081
   71.5350000000000        -4.937055673165438E-081
   71.7250000000000        -4.627755519115777E-081
   71.9150000000000        -3.261658042423765E-081
   72.1050000000000        -4.554369727739802E-082
   72.2950000000000         4.135165059808769E-081
   72.4850000000000         1.072755143654800E-080
   72.6750000000000         1.929595130989306E-080
   72.8650000000000         2.943137946075046E-080
   73.0550000000000         4.018993629225528E-080
   73.2450000000000         4.995074235172234E-080
   73.4350000000000         5.631546712330302E-080
   73.6250000000000         5.609236264144871E-080
   73.8150000000000         4.541709183778409E-080
   74.0050000000000         2.006781735874932E-080
   74.1950000000000        -2.397037567846821E-080
   74.3850000000000        -8.965050538571790E-080
   74.5750000000000        -1.777062828780341E-079
   74.7650000000000        -2.852286576616095E-079
   74.9550000000000        -4.040819045626583E-079
   75.1450000000000        -5.193542400385532E-079
   75.3350000000000        -6.081427895394480E-079
   75.5250000000000        -6.390827439442323E-079
   75.7150000000000        -5.731288165524104E-079
   75.9050000000000        -3.661593773112216E-079
   76.0950000000000         2.603141643987620E-080
   76.2850000000000         6.398971982700991E-079
   76.4750000000000         1.493253732956919E-078
   76.6650000000000         2.571566893194550E-078
   76.8550000000000         3.812262989060582E-078
   77.0450000000000         5.088732226095896E-078
   77.2350000000000         6.196676747011734E-078
   77.4250000000000         6.846507761197609E-078
   77.6150000000000         6.666475574768999E-078
   77.8050000000000         5.221909241765240E-078
   77.9950000000000         2.056071300877805E-078
   78.1850000000000        -3.242631532594865E-078
   78.3750000000000        -1.094434928185586E-077
   78.5650000000000        -2.105324293191247E-077
   78.7550000000000        -3.316089509641988E-077
   78.9450000000000        -4.629105795265746E-077
   79.1350000000000        -5.875784165361623E-077
   79.3250000000000        -6.806902858246130E-077
   79.5150000000000        -7.091544169403158E-077
   79.7050000000000        -6.329442082818131E-077
   79.8950000000000        -4.081811377579064E-077
   80.0850000000000         7.473619613844366E-079
   80.2750000000000         6.468085394140316E-077
   80.4650000000000         1.522404712524407E-076
   80.6550000000000         2.613742302718919E-076
   80.8450000000000         3.853078172384987E-076
   81.0350000000000         5.111842868100657E-076
   81.2250000000000         6.190136769656469E-076
   81.4150000000000         6.812733752193981E-076
   81.6050000000000         6.635683429838931E-076
   81.7950000000000         5.267947670549007E-076
   81.9850000000000         2.312278877329156E-076
   82.1750000000000        -2.571512714250413E-076
   82.3650000000000        -9.579900166696033E-076
   82.5550000000000        -1.865801520102931E-075
   82.7450000000000        -2.937828044864900E-075
   82.9350000000000        -4.081858380073329E-075
   83.1250000000000        -5.146023861501302E-075
   83.3150000000000        -5.913311678204705E-075
   83.5050000000000        -6.104156106873535E-075
   83.6950000000000        -5.390845585127988E-075
   83.8850000000000        -3.427426762282174E-075
   84.0750000000000         1.019178092423165E-076
   84.2650000000000         5.414608443066657E-075
   84.4550000000000         1.254272281419340E-074
   84.6450000000000         2.123231500747967E-074
   84.8350000000000         3.083879563748713E-074
   85.0250000000000         4.023386851768733E-074
   85.2150000000000         4.774555513741631E-074
   85.4050000000000         5.115837818304526E-074
   85.5950000000000         4.780464508649965E-074
   85.7850000000000         3.477847659411048E-074
   85.9750000000000         9.300030952548829E-075
   86.1650000000000        -3.075352334676229E-074
   86.3550000000000        -8.615295164274178E-074
   86.5450000000000        -1.554890890648274E-073
   86.7350000000000        -2.342815183155061E-073
   86.9250000000000        -3.141392427170991E-073
   87.1150000000000        -3.821394678713398E-073
   87.3050000000000        -4.206398552142171E-073
   87.4950000000000        -4.077787052219381E-073
   87.6850000000000        -3.189349622288099E-073
   87.8750000000000        -1.294019142243666E-073
   88.0650000000000         1.815400200226058E-073
   88.2550000000000         6.250994004063338E-073
   88.4450000000000         1.196156294846678E-072
   88.6350000000000         1.865599195537747E-072
   88.8250000000000         2.572629864690937E-072
   89.0150000000000         3.218269786031855E-072
   89.2050000000000         3.661737145121007E-072
   89.3950000000000         3.721752197256585E-072
   89.5850000000000         3.185086901775621E-072
   89.7750000000000         1.824695835766642E-072
   89.9650000000000        -5.705716839252950E-073
   90.1550000000000        -4.153499054207702E-072
   90.3450000000000        -8.963506656773545E-072
   90.5350000000000        -1.486145749650238E-071
   90.7250000000000        -2.145935551425268E-071
   90.9150000000000        -2.805338264057924E-071
   91.1050000000000        -3.357243747451721E-071
   91.2950000000000        -3.655802630345080E-071
   91.4850000000000        -3.519443953978818E-071
   91.6750000000000        -2.740985940581811E-071
   91.8650000000000        -1.106846087279259E-071
   92.0550000000000         1.573034157434386E-071
   92.2450000000000         5.423761025862918E-071
   92.4350000000000         1.045311564845714E-070
   92.6250000000000         1.649071791248083E-070
   92.8150000000000         2.312369398731691E-070
   93.0050000000000         2.963676803774252E-070
   93.1950000000000         3.496790857572444E-070
   93.3850000000000         3.769377785206677E-070
   93.5750000000000         3.606175930787707E-070
   93.7650000000000         2.808662493551516E-070
   93.9550000000000         1.172917797801775E-070
   94.1450000000000        -1.482937868875184E-070
   94.3350000000000        -5.281087165622154E-070
   94.5250000000000        -1.023665573865352E-069
   94.7150000000000        -1.620280807165227E-069
   94.9050000000000        -2.281256417011512E-069
   95.0950000000000        -2.942409148431771E-069
   95.2850000000000        -3.507892532036503E-069
   95.4750000000000        -3.848519686584244E-069
   95.6650000000000        -3.804009965033136E-069
   95.8550000000000        -3.190698486052249E-069
   96.0450000000000        -1.816202795359782E-069
   96.2350000000000         4.977318543721556E-070
   96.4250000000000         3.883553983942252E-069
   96.6150000000000         8.387656077923350E-069
   96.8050000000000         1.392311446378474E-068
   96.9950000000000         2.021865670040446E-068
   97.1850000000000         2.676909100914906E-068
   97.3750000000000         3.279462197327039E-068
   97.5650000000000         3.721865034637340E-068
   97.7550000000000         3.867551316035506E-068
   97.9450000000000         3.556077469308768E-068
   98.1350000000000         2.613666376170136E-068
   98.3250000000000         8.703554400345366E-069
   98.5150000000000        -1.815550998216093E-068
   98.7050000000000        -5.525679379899486E-068
   98.8950000000000        -1.024333818870126E-067
   99.0850000000000        -1.581097339679197E-067
   99.2750000000000        -2.188699094830136E-067
   99.4650000000000        -2.790730418155086E-067
   99.6550000000000        -3.305870102596098E-067
   99.8450000000000        -3.627269812102339E-067
   100.035000000000        -3.624968354389158E-067
   100.225000000000        -3.152351379632886E-067
   100.415000000000        -2.057594914959587E-067
   100.605000000000        -2.007997442469958E-068
   100.795000000000         2.522896482031245E-067
   100.985000000000         6.154577809786028E-067
   101.175000000000         1.063838838568252E-066
   101.365000000000         1.578623234970385E-066
   101.555000000000         2.124385501564739E-066
   101.745000000000         2.646314316071297E-066
   101.935000000000         3.068674897421941E-066
   102.125000000000         3.295217892084539E-066
   102.315000000000         3.212307193696479E-066
   102.505000000000         2.695526212722068E-066
   102.695000000000         1.620410281196949E-066
   102.885000000000        -1.222846237962694E-067
   103.075000000000        -2.606752047893423E-066
   103.265000000000        -5.848265762373479E-066
   103.455000000000        -9.776498965725728E-066
   103.645000000000        -1.420810513285145E-065
   103.835000000000        -1.882157147456074E-065
   104.025000000000        -2.313831053963107E-065
   104.215000000000        -2.651481872772388E-065
   104.405000000000        -2.815136235023744E-065
   104.595000000000        -2.712288460291597E-065
   104.785000000000        -2.243747403246189E-065
   104.975000000000        -1.312660674445305E-065
   105.165000000000         1.630701893032982E-066
   105.355000000000         2.235085290814411E-065
   105.545000000000         4.906102325812523E-065
   105.735000000000         8.109757057144186E-065
   105.925000000000         1.169043235777495E-064
   106.115000000000         1.538542598039578E-064
   106.305000000000         1.881245975844982E-064
   106.495000000000         2.146609076807211E-064
   106.685000000000         2.272694679948013E-064
   106.875000000000         2.188775698417593E-064
   107.065000000000         1.819975773865834E-064
   107.255000000000         1.094210118782484E-064
   107.445000000000        -4.847272850288403E-066
   107.635000000000        -1.644283223635729E-064
   107.825000000000        -3.692262468538623E-064
   108.015000000000        -6.139856233823953E-064
   108.205000000000        -8.868742226341752E-064
   108.395000000000        -1.168260971384012E-063
   108.585000000000        -1.429901622856870E-063
   108.775000000000        -1.634779258075836E-063
   108.965000000000        -1.737866631092068E-063
   109.155000000000        -1.688074773001057E-063
   109.345000000000        -1.431619127369002E-063
   109.535000000000        -9.169631978694889E-064
   109.725000000000        -1.013841071818314E-064
   109.915000000000         1.040958864416627E-063
   110.105000000000         2.509782192588028E-063