  -1.42500000000000         0.000000000000000E+000
  -1.23500000000000         0.000000000000000E+000
  -1.04500000000000         0.000000000000000E+000
 -0.855000000000000         0.000000000000000E+000
 -0.665000000000000         0.000000000000000E+000
 -0.475000000000000         0.000000000000000E+000
 -0.285000000000000         0.000000000000000E+000
 -9.499999999999975E-002    0.000000000000000E+000
  9.500000000000020E-002    0.000000000000000E+000
  0.285000000000000         0.000000000000000E+000
  0.475000000000000         0.000000000000000E+000
  0.665000000000000         0.000000000000000E+000
  0.855000000000000         0.000000000000000E+000
   1.04500000000000         0.000000000000000E+000
   1.23500000000000         0.000000000000000E+000
   1.42500000000000         0.000000000000000E+000
   1.61500000000000         0.000000000000000E+000
   1.80500000000000         0.000000000000000E+000
   1.99500000000000         0.000000000000000E+000
   2.18500000000000         0.000000000000000E+000
   2.37500000000000         0.000000000000000E+000
   2.56500000000000         0.000000000000000E+000
   2.75500000000000         0.000000000000000E+000
   2.94500000000000         0.000000000000000E+000
   3.13500000000000         0.000000000000000E+000
   3.32500000000000         0.000000000000000E+000
   3.51500000000000         0.000000000000000E+000
   3.70500000000000         0.000000000000000E+000
   3.89500000000000         0.000000000000000E+000
   4.08500000000000         0.000000000000000E+000
   4.27500000000000         0.000000000000000E+000
   4.46500000000000         0.000000000000000E+000
   4.65500000000000         0.000000000000000E+000
   4.84500000000000         0.000000000000000E+000
   5.03500000000000         0.000000000000000E+000
   5.22500000000000         0.000000000000000E+000
   5.41500000000000         0.000000000000000E+000
   5.60500000000000         0.000000000000000E+000
   5.79500000000000         0.000000000000000E+000
   5.98500000000000         0.000000000000000E+000
   6.17500000000000         1.747740109364878E-183
   6.36500000000000         1.112272282875327E-179
   6.55500000000000        -5.446635418956382E-175
   6.74500000000000         3.208063962614277E-171
   6.93500000000000         1.669234194763154E-169
   7.12500000000000         3.605576112790961E-168
   7.31500000000000         2.386313134146400E-167
   7.50500000000000        -6.160877395716815E-166
   7.69500000000000        -1.641026560922704E-164
   7.88500000000000        -7.439144682732891E-164
   8.07500000000000         5.629623602070194E-162
   8.26500000000000         2.258480038721660E-160
   8.45500000000000         5.505013298774991E-159
   8.64500000000000         1.024912734953480E-157
   8.83500000000000         1.544479562861303E-156
   9.02500000000000         1.934964253215888E-155
   9.21500000000000         2.051019332236581E-154
   9.40500000000000         1.862425205511487E-153
   9.59500000000000         1.460192553462854E-152
   9.78500000000000         9.908660426877080E-152
   9.97500000000000         5.787269822117915E-151
   10.1650000000000         2.849612422660107E-150
   10.3550000000000         1.113844495858030E-149
   10.5450000000000         2.737936818067372E-149
   10.7350000000000        -3.694326835735577E-149
   10.9250000000000        -9.941520137710980E-148
   11.1150000000000        -7.700064585069518E-147
   11.3050000000000        -4.267322087504864E-146
   11.4950000000000        -1.873720068319180E-145
   11.6850000000000        -6.390876020126394E-145
   11.8750000000000        -1.361745719124162E-144
   12.0650000000000         1.709063263287237E-144
   12.2550000000000         3.978285899963675E-143
   12.4450000000000         2.828382604478285E-142
   12.6350000000000         1.503162450008170E-141
   12.8250000000000         6.784569529393603E-141
   13.0150000000000         2.721298168376185E-140
   13.2050000000000         9.924280930915672E-140
   13.3950000000000         3.346625452968033E-139
   13.5850000000000         1.065179741526835E-138
   13.7750000000000         3.312624762666116E-138
   13.9650000000000         1.064925001574888E-137
   14.1550000000000         3.770363225716832E-137
   14.3450000000000         1.504928476274075E-136
   14.5350000000000         6.518110746175042E-136
   14.7250000000000         2.887398685838436E-135
   14.9150000000000         1.254826246465406E-134
   15.1050000000000         5.244683179454971E-134
   15.2950000000000         2.094044361325071E-133
   15.4850000000000         7.981829021982012E-133
   15.6750000000000         2.909580507259583E-132
   15.8650000000000         1.016839009696944E-131
   16.0550000000000         3.415643614921978E-131
   16.2450000000000         1.105366032928368E-130
   16.4350000000000         3.453379758791075E-130
   16.6250000000000         1.043407654957133E-129
   16.8150000000000         3.053425537122615E-129
   17.0050000000000         8.665519722682723E-129
   17.1950000000000         2.387460353108167E-128
   17.3850000000000         6.391335651172449E-128
   17.5750000000000         1.663666054695798E-127
   17.7650000000000         4.213015690211579E-127
   17.9550000000000         1.038322689679778E-126
   18.1450000000000         2.490944290780162E-126
   18.3350000000000         5.816680013574512E-126
   18.5250000000000         1.321714730722716E-125
   18.7150000000000         2.920603379173355E-125
   18.9050000000000         6.268911224948574E-125
   19.0950000000000         1.304686410165361E-124
   19.2850000000000         2.625196092012563E-124
   19.4750000000000         5.083404673382476E-124
   19.6650000000000         9.400818226959863E-124
   19.8550000000000         1.638069995602406E-123
   20.0450000000000         2.618893441217311E-123
   20.2350000000000         3.606185530223193E-123
   20.4250000000000         3.409379064840870E-123
   20.6150000000000        -1.615710347245099E-123
   20.8050000000000        -2.116016347024286E-122
   20.9950000000000        -7.898383062818408E-122
   21.1850000000000        -2.301947334489970E-121
   21.3750000000000        -5.973604313317429E-121
   21.5650000000000        -1.443994953390639E-120
   21.7550000000000        -3.320549038948755E-120
   21.9450000000000        -7.348046294305457E-120
   22.1350000000000        -1.575769271108825E-119
   22.3250000000000        -3.289705002397596E-119
   22.5150000000000        -6.707000113720707E-119
   22.7050000000000        -1.338377897440007E-118
   22.8950000000000        -2.618300870412314E-118
   23.0850000000000        -5.027814749414687E-118
   23.2750000000000        -9.485322319049461E-118
   23.4650000000000        -1.759252455413993E-117
   23.6550000000000        -3.209315336168948E-117
   23.8450000000000        -5.760170252758411E-117
   24.0350000000000        -1.017321081922872E-116
   24.2250000000000        -1.767958258896135E-116
   24.4150000000000        -3.022691104998521E-116
   24.6050000000000        -5.082225808836975E-116
   24.7950000000000        -8.398052461522880E-116
   24.9850000000000        -1.362571332701746E-115
   25.1750000000000        -2.167734253108428E-115
   25.3650000000000        -3.374983442774646E-115
   25.5550000000000        -5.127723263953721E-115
   25.7450000000000        -7.570526987209220E-115
   25.9350000000000        -1.078969482336957E-114
   26.1250000000000        -1.468262606399533E-114
   26.3150000000000        -1.869650740947522E-114
   26.5050000000000        -2.133592262012215E-114
   26.6950000000000        -1.927405745609204E-114
   26.8850000000000        -5.801193325469608E-115
   27.0750000000000         3.180969260637072E-114
   27.2650000000000         1.166700710080040E-113
   27.4550000000000         2.893610091086794E-113
   27.6450000000000         6.191999701904856E-113
   27.8350000000000         1.221817196907829E-112
   28.0250000000000         2.286063297841615E-112
   28.2150000000000         4.114425248943759E-112
   28.4050000000000         7.182544601703470E-112
   28.5950000000000         1.222503490813894E-111
   28.7850000000000         2.035637023595329E-111
   28.9750000000000         3.323669977372356E-111
   29.1650000000000         5.329215719436307E-111
   29.3550000000000         8.399603907884134E-111
   29.5450000000000         1.302085709833363E-110
   29.7350000000000         1.985548032424324E-110
   29.9250000000000         2.977862560115135E-110
   30.1150000000000         4.390130170493139E-110
   30.3050000000000         6.355957458598638E-110
   30.4950000000000         9.023327322119609E-110
   30.6850000000000         1.253340212124799E-109
   30.8750000000000         1.697670506522177E-109
   31.0650000000000         2.231198077672551E-109
   31.2550000000000         2.822572649531052E-109
   31.4450000000000         3.390023048803692E-109
   31.6350000000000         3.764415032352436E-109
   31.8250000000000         3.632130351745473E-109
   32.0150000000000         2.448946629240223E-109
   32.2050000000000        -6.869329119804169E-110
   32.3950000000000        -7.218292179091975E-109
   32.5850000000000        -1.938881547947149E-108
   32.7750000000000        -4.060465834154136E-108
   32.9650000000000        -7.592829090210284E-108
   33.1550000000000        -1.327404730878471E-107
   33.3450000000000        -2.216102151289553E-107
   33.5350000000000        -3.574135991851920E-107
   33.7250000000000        -5.607376925880683E-107
   33.9150000000000        -8.595914493054443E-107
   34.1050000000000        -1.291415713101757E-106
   34.2950000000000        -1.905331227702763E-106
   34.4850000000000        -2.764476171518920E-106
   34.6750000000000        -3.948148886905454E-106
   34.8650000000000        -5.553268192876709E-106
   35.0550000000000        -7.694367215217350E-106
   35.2450000000000        -1.050091069299543E-105
   35.4350000000000        -1.411011631866600E-105
   35.6250000000000        -1.865258443195005E-105
   35.8150000000000        -2.422676529481265E-105
   36.0050000000000        -3.085641046078788E-105
   36.1950000000000        -3.842234164662619E-105
   36.3850000000000        -4.655564804835089E-105
   36.5750000000000        -5.447312150521558E-105
   36.7650000000000        -6.072649785211282E-105
   36.9550000000000        -6.282392442852191E-105
   37.1450000000000        -5.666418914288982E-105
   37.3350000000000        -3.570146231962750E-105
   37.5250000000000         1.026791398561258E-105
   37.7150000000000         9.683001169231095E-105
   37.9050000000000         2.473360666592300E-104
   38.0950000000000         4.960726217567607E-104
   38.2850000000000         8.922671893108217E-104
   38.4750000000000         1.504782243222714E-103
   38.6650000000000         2.426967830533780E-103
   38.8550000000000         3.780476285649764E-103
   39.0450000000000         5.715774336064321E-103
   39.2350000000000         8.405496211647159E-103
   39.4250000000000         1.202457227427243E-102
   39.6150000000000         1.670823581134055E-102
   39.8050000000000         2.247573724477044E-102
   39.9950000000000         2.910439326089207E-102
   40.1850000000000         3.593651097596837E-102
   40.3750000000000         4.160257069823645E-102
   40.5650000000000         4.365067986942955E-102
   40.7550000000000         3.808884271135053E-102
   40.9450000000000         1.887847753279191E-102
   41.1350000000000        -2.252861673685058E-102
   41.3250000000000        -9.743525514485987E-102
   41.5150000000000        -2.196351139446957E-101
   41.7050000000000        -4.041994343690670E-101
   41.8950000000000        -6.646991102442974E-101
   42.0850000000000        -1.008075839182134E-100
   42.2750000000000        -1.426262229098024E-100
   42.4650000000000        -1.883687614436978E-100
   42.6550000000000        -2.300137386612912E-100
   42.8450000000000        -2.529260833076698E-100
   43.0350000000000        -2.334604593916056E-100
   43.2250000000000        -1.367680801437576E-100
   43.4150000000000         8.434612477271663E-101
   43.6050000000000         4.881244559754768E-100
   43.7950000000000         1.138043670404182E-099
   43.9850000000000         2.089668023984653E-099
   44.1750000000000         3.366686885631916E-099
   44.3650000000000         4.922369993294682E-099
   44.5550000000000         6.583225876520160E-099
   44.7450000000000         7.973714301436151E-099
   44.9350000000000         8.425335564075118E-099
   45.1250000000000         6.881358861311118E-099
   45.3150000000000         1.820932399252280E-099
   45.5050000000000        -8.755884718448871E-099
   45.6950000000000        -2.721756218356346E-098
   45.8850000000000        -5.597373186143375E-098
   46.0750000000000        -9.681382350713125E-098
   46.2650000000000        -1.497777391055340E-097
   46.4550000000000        -2.114307761719238E-097
   46.6450000000000        -2.724644942218505E-097
   46.8350000000000        -3.146652127875977E-097
   47.0250000000000        -3.075148956571282E-097
   47.2150000000000        -2.050487833034371E-097
   47.4050000000000         5.588426535239170E-098
   47.5950000000000         5.541267009949937E-097
   47.7850000000000         1.376842711535419E-096
   47.9750000000000         2.602822780672441E-096
   48.1650000000000         4.272424206487213E-096
   48.3550000000000         6.340123578003545E-096
   48.5450000000000         8.606824088863864E-096
   48.7350000000000         1.063211085160848E-095
   48.9250000000000         1.163244612426886E-095
   49.1150000000000         1.038071990511204E-095
   49.3050000000000         5.136270132558990E-096
   49.4950000000000        -6.347500785013319E-096
   49.6850000000000        -2.666959238840782E-095
   49.8750000000000        -5.839228953912803E-095
   50.0650000000000        -1.033110698438712E-094
   50.2550000000000        -1.612773639949831E-094
   50.4450000000000        -2.284956150078290E-094
   50.6350000000000        -2.952895639978786E-094
   50.8250000000000        -3.434722482275315E-094
   51.0150000000000        -3.436796497169306E-094
   51.2050000000000        -2.533529745146086E-094
   51.3950000000000        -1.647776646488370E-095
   51.5850000000000         4.333196036139624E-094
   51.7750000000000         1.164228595478897E-093
   51.9650000000000         2.229822733824319E-093
   52.1550000000000         3.642292920417910E-093
   52.3450000000000         5.333537612805836E-093
   52.5350000000000         7.103958501023513E-093
   52.7250000000000         8.561907593176900E-093
   52.9150000000000         9.061665682625427E-093
   53.1050000000000         7.654849000814460E-093
   53.2950000000000         3.079147995149933E-093
   53.4850000000000        -6.181385278151074E-093
   53.6750000000000        -2.172025150069513E-092
   53.8650000000000        -4.486542646016098E-092
   54.0550000000000        -7.611855033036699E-092
   54.2450000000000        -1.143394073097850E-091
   54.4350000000000        -1.556731069776100E-091
   54.6250000000000        -1.922803634413183E-091
   54.8150000000000        -2.110300011815547E-091
   55.0050000000000        -1.924511755034374E-091
   55.1950000000000        -1.104178236974053E-091
   55.3850000000000         6.676488208813271E-092
   55.5750000000000         3.730141852362415E-091
   55.7650000000000         8.378803505507977E-091
   55.9550000000000         1.475749006708415E-090
   56.1450000000000         2.270138891154717E-090
   56.3350000000000         3.153048606700514E-090
   56.5250000000000         3.980474922372592E-090
   56.7150000000000         4.507031320774225E-090
   56.9050000000000         4.365093927933391E-090
   57.0950000000000         3.057023078723037E-090
   57.2850000000000        -2.751930424840335E-092
   57.4750000000000        -5.553875456159121E-090
   57.6650000000000        -1.412692575061015E-089
   57.8550000000000        -2.610085758097295E-089
   58.0450000000000        -4.130189245844077E-089
   58.2350000000000        -5.866285425192903E-089
   58.4250000000000        -7.578826373345143E-089
   58.6150000000000        -8.849889963154430E-089
   58.8050000000000        -9.044618704259859E-089
   58.9950000000000        -7.293800707392639E-089
   59.1850000000000        -2.517395421821985E-089
   59.3750000000000         6.485947667828179E-089
   59.5650000000000         2.085497497203903E-088
   59.7550000000000         4.135979674593788E-088
   59.9450000000000         6.795349742248277E-088
   60.1350000000000         9.917864868243357E-088
   60.3250000000000         1.314567492797376E-087
   60.5150000000000         1.583352113286765E-087
   60.7050000000000         1.698297705085733E-087
   60.8950000000000         1.520777948321957E-087
   61.0850000000000         8.760272976586995E-088
   61.2750000000000        -4.343197655111801E-088
   61.4650000000000        -2.605517148148884E-087
   61.6550000000000        -5.784649360278271E-087
   61.8450000000000        -1.000415012005336E-086
   62.0350000000000        -1.509335937708948E-086
   62.2250000000000        -2.057200719762454E-086
   62.4150000000000        -2.553616208407157E-086
   62.6050000000000        -2.855613249485593E-086
   62.7950000000000        -2.761669367104495E-086
   62.9850000000000        -2.014178252762136E-086
   63.1750000000000        -3.156510469635108E-087
   63.3650000000000         2.635405895407652E-086
   63.5550000000000         7.083165447826543E-086
   63.7450000000000         1.312346863790327E-085
   63.9350000000000         2.058237266606691E-085
   64.1250000000000         2.886949752914385E-085
   64.3150000000000         3.682031879021351E-085
   64.5050000000000         4.255341676061001E-085
   64.6950000000000         4.338294368956824E-085
   64.8850000000000         3.584175374702316E-085
   65.0750000000000         1.588412923936858E-085
   65.2650000000000        -2.065517762358012E-085
   65.4550000000000        -7.727223062375475E-085
   65.6450000000000        -1.556233438855677E-084
   65.8350000000000        -2.539667447499168E-084
   66.0250000000000        -3.652885943169873E-084
   66.2150000000000        -4.752996822731431E-084
   66.4050000000000        -5.606389480215976E-084
   66.5950000000000        -5.877970611607504E-084
   66.7850000000000        -5.134579081267618E-084
   66.9750000000000        -2.871137413006105E-084
   67.1650000000000         1.431100336615584E-084
   67.3550000000000         8.205497807240594E-084
   67.5450000000000         1.765439824235780E-083
   67.7350000000000         2.955716951942664E-083
   67.9250000000000         4.304215494098004E-083
   68.1150000000000         5.634704090594616E-083
   68.3050000000000         6.661058643245144E-083
   68.4950000000000         6.976004914220872E-083
   68.6850000000000         6.058040194043442E-083
   68.8750000000000         3.306922063874057E-083
   69.0650000000000        -1.881139313692907E-083
   69.2550000000000        -9.988557873997570E-083
   69.4450000000000        -2.119563020151362E-082
   69.6350000000000        -3.514567347948447E-082
   69.8250000000000        -5.067023466937669E-082
   70.0150000000000        -6.550621033694158E-082
   70.2050000000000        -7.605917606062044E-082
   70.3950000000000        -7.729293624097949E-082
   70.5850000000000        -6.285103240705700E-082
   70.7750000000000        -2.553636880907383E-082
   70.9650000000000         4.171741910874861E-082
   71.1550000000000         1.442646060751957E-081
   71.3450000000000         2.834875502466820E-081
   71.5350000000000         4.538859841070817E-081
   71.7250000000000         6.396954399631393E-081
   71.9150000000000         8.114286724068373E-081
   72.1050000000000         9.230050261491306E-081
   72.2950000000000         9.104426539104143E-081
   72.4850000000000         6.933994935991943E-081
   72.6750000000000         1.810990292802871E-081
   72.8650000000000        -7.157227524839756E-081
   73.0550000000000        -2.065377081250898E-080
   73.2450000000000        -3.887380226763301E-080
   73.4350000000000        -6.116403709343597E-080
   73.6250000000000        -8.559974623382445E-080
   73.8150000000000        -1.085437516419753E-079
   74.0050000000000        -1.242637665898855E-079
   74.1950000000000        -1.247213565070497E-079
   74.3850000000000        -9.968374271568279E-080
   74.5750000000000        -3.734192206845890E-080
   74.7650000000000         7.436462368468613E-080
   74.9550000000000         2.455277709609695E-079
   75.1450000000000         4.810211016124582E-079
   75.3350000000000         7.762010741646921E-079
   75.5250000000000         1.111727958832653E-078
   75.7150000000000         1.447947921033329E-078
   75.9050000000000         1.719633497964199E-078
   76.0950000000000         1.832302711995664E-078
   76.2850000000000         1.661788649927824E-078
   76.4750000000000         1.059144612508387E-078
   76.6650000000000        -1.367547341099936E-079
   76.8550000000000        -2.076551730835138E-078
   77.0450000000000        -4.865748769125008E-078
   77.2350000000000        -8.517163194121832E-078
   77.4250000000000        -1.289142786772767E-077
   77.6150000000000        -1.762921284793348E-077
   77.8050000000000        -2.208254139622321E-077
   77.9950000000000        -2.525711995152900E-077
   78.1850000000000        -2.578267465474872E-077
   78.3750000000000        -2.193328394112668E-077
   78.5650000000000        -1.172368167526383E-077
   78.7550000000000         6.890815054914314E-078
   78.9450000000000         3.568535001870514E-077
   79.1350000000000         7.569017918830430E-077
   79.3250000000000         1.265672876517344E-076
   79.5150000000000         1.858623603995585E-076
   79.7050000000000         2.481907462283029E-076
   79.8950000000000         3.044611749527498E-076
   80.0850000000000         3.412937193733044E-076
   80.2750000000000         3.408439967493146E-076
   80.4650000000000         2.812958689243440E-076
   80.6550000000000         1.383183668165337E-076
   80.8450000000000        -1.122158461637081E-076
   81.0350000000000        -4.900014042016104E-076
   81.2250000000000        -1.004428932346735E-075
   81.4150000000000        -1.647144728797942E-075
   81.6050000000000        -2.383420345838999E-075
   81.7950000000000        -3.143121208007896E-075
   81.9850000000000        -3.812566348741506E-075
   82.1750000000000        -4.229133235356463E-075
   82.3650000000000        -4.181020652366658E-075
   82.5550000000000        -3.415044108018198E-075
   82.7450000000000        -1.655573048699446E-075
   82.9350000000000         1.362433395386604E-075
   83.1250000000000         5.844057776600758E-075
   83.3150000000000         1.186796620860717E-074
   83.5050000000000         1.930449724257652E-074
   83.6950000000000         2.772333725969395E-074
   83.8850000000000         3.630021450403476E-074
   84.0750000000000         4.373723389968072E-074
   84.2650000000000         4.821703997694011E-074
   84.4550000000000         4.741623202638233E-074
   84.6450000000000         3.860734700107700E-074
   84.8350000000000         1.887994302138937E-074
   85.0250000000000        -1.449172798946850E-074
   85.2150000000000        -6.351600132288300E-074
   85.4050000000000        -1.287842533429694E-073
   85.5950000000000        -2.086283613206816E-073
   85.7850000000000        -2.981940890108144E-073
   85.9750000000000        -3.885331851545662E-073
   86.1650000000000        -4.658671985796314E-073
   86.3550000000000        -5.112279110236594E-073
   86.5450000000000        -5.007255683664095E-073
   86.7350000000000        -4.067266435005240E-073
   86.9250000000000        -2.002249401502678E-073
   87.1150000000000         1.453512774310171E-073
   87.3050000000000         6.487531644143316E-073
   87.4950000000000         1.313975552528652E-072
   87.6850000000000         2.122055679337172E-072
   87.8750000000000         3.022229556485674E-072
   88.0650000000000         3.923482505079694E-072
   88.2550000000000         4.687991606202871E-072
   88.4450000000000         5.128420080140317E-072
   88.6350000000000         5.011416871589733E-072
   88.8250000000000         4.069904988216621E-072
   89.0150000000000         2.026694053752009E-072
   89.2050000000000        -1.368503593255166E-072
   89.3950000000000        -6.287569510149536E-072
   89.5850000000000        -1.275855398493191E-071
   89.7750000000000        -2.058926914428590E-071
   89.9650000000000        -2.928593796212137E-071
   90.1550000000000        -3.797664622951380E-071
   90.3450000000000        -4.535341002908256E-071
   90.5350000000000        -4.965066117661023E-071
   90.7250000000000        -4.868124003423613E-071
   90.9150000000000        -3.995274521266185E-071
   91.1050000000000        -2.088633057911955E-071
   91.2950000000000         1.084433358233693E-071
   91.4850000000000         5.684529313697090E-071
   91.6750000000000         1.174117859909680E-070
   91.8650000000000         1.908418514758303E-070
   92.0550000000000         2.727078439634655E-070
   92.2450000000000         3.551715090936737E-070
   92.4350000000000         4.264629370742341E-070
   92.6250000000000         4.706774489255528E-070
   92.8150000000000         4.680720284965234E-070
   93.0050000000000         3.960574476126245E-070
   93.1950000000000         2.310755873662664E-070
   93.3850000000000        -4.848528936822286E-071
   93.5750000000000        -4.582601943743508E-070
   93.7650000000000        -1.002806743065325E-069
   93.9550000000000        -1.669651199912019E-069
   94.1450000000000        -2.422920084785229E-069
   94.3350000000000        -3.197259200263846E-069
   94.5250000000000        -3.893028366615646E-069
   94.7150000000000        -4.374040842614806E-069
   94.9050000000000        -4.469349807385640E-069
   95.0950000000000        -3.980716570992718E-069
   95.2850000000000        -2.697362225137994E-069
   95.4750000000000        -4.193359417219989E-070
   95.6650000000000         3.009740508823129E-069
   95.8550000000000         7.660730291101956E-069
   96.0450000000000         1.346935730398670E-068
   96.2350000000000         2.018215211162891E-068
   96.4250000000000         2.730329603787313E-068
   96.6150000000000         3.404997976143964E-068
   96.8050000000000         3.932617970410387E-068
   96.9950000000000         4.172673388486081E-068
   97.1850000000000         3.958486791189811E-068
   97.3750000000000         3.107639964714099E-068
   97.5650000000000         1.439220389339922E-068
   97.7550000000000        -1.201339183312657E-068
   97.9450000000000        -4.909725588184629E-068
   98.1350000000000        -9.683382168789488E-068
   98.3250000000000        -1.537746642698530E-067
   98.5150000000000        -2.165983630846566E-067
   98.7050000000000        -2.797052745740408E-067
   98.8950000000000        -3.349298947278200E-067
   99.0850000000000        -3.714599420975130E-067
   99.2750000000000        -3.760633206150254E-067
   99.4650000000000        -3.337282895206054E-067
   99.6550000000000        -2.288145876182564E-067
   99.8450000000000        -4.678990606967978E-068
   100.035000000000         2.234167293242564E-067
   100.225000000000         5.864782052868475E-067
   100.415000000000         1.037271232774165E-066
   100.605000000000         1.557249494523221E-066
   100.795000000000         2.110948477287780E-066
   100.985000000000         2.643118828136696E-066
   101.175000000000         3.077116427957699E-066
   101.365000000000         3.315285178198535E-066
   101.555000000000         3.242129546614595E-066
   101.745000000000         2.731061293872867E-066
   101.935000000000         1.655389688153487E-066
   102.125000000000        -9.602101543017930E-068
   102.315000000000        -2.598402233530616E-066
   102.505000000000        -5.866581882635926E-066
   102.695000000000        -9.827610366153917E-066
   102.885000000000        -1.429266411737534E-065
   103.075000000000        -1.893135266836311E-065
   103.265000000000        -2.325254560260420E-065
   103.455000000000        -2.659672978327271E-065
   103.645000000000        -2.814555819591807E-065
   103.835000000000        -2.695448369952705E-065
   104.025000000000        -2.201398848544372E-065
   104.215000000000        -1.234372380825456E-065
   104.405000000000         2.878316244483258E-066
   104.595000000000         2.415278211404290E-065
   104.785000000000         5.146781153528719E-065
   104.975000000000         8.409103380010206E-065
   105.165000000000         1.203625408544853E-064
   105.355000000000         1.575135994877461E-064
   105.545000000000         1.915426821529153E-064
   105.735000000000         2.171861693994786E-064
   105.925000000000         2.280247491806897E-064
   106.115000000000         2.167668628232457E-064
   106.305000000000         1.757461905616264E-064
   106.495000000000         9.765982945008130E-065
   106.685000000000        -2.344361386955081E-065
   106.875000000000        -1.909420242183516E-064
   107.065000000000        -4.042329957284021E-064
   107.255000000000        -6.572315946979675E-064
   107.445000000000        -9.369073870222636E-064
   107.635000000000        -1.222042810548976E-063
   107.825000000000        -1.482439650680372E-063
   108.015000000000        -1.678836279069049E-063
   108.205000000000        -1.763818061055764E-063
   108.395000000000        -1.683998621679483E-063
   108.585000000000        -1.383711846062732E-063
   108.775000000000        -8.103754623793371E-064
   108.965000000000         7.843967465016796E-065
   109.155000000000         1.306378451823162E-063
   109.345000000000         2.868480686509437E-063
   109.535000000000         4.720814629909587E-063
   109.725000000000         6.770509913342373E-063
   109.915000000000         8.867442870995911E-063
   110.105000000000         1.079911000460751E-062