  -1.42500000000000         0.000000000000000E+000
  -1.23500000000000         0.000000000000000E+000
  -1.04500000000000         0.000000000000000E+000
 -0.855000000000000         0.000000000000000E+000
 -0.665000000000000         0.000000000000000E+000
 -0.475000000000000         0.000000000000000E+000
 -0.285000000000000         0.000000000000000E+000
 -9.499999999999975E-002    0.000000000000000E+000
  9.500000000000020E-002    0.000000000000000E+000
  0.285000000000000         0.000000000000000E+000
  0.475000000000000         0.000000000000000E+000
  0.665000000000000         0.000000000000000E+000
  0.855000000000000         0.000000000000000E+000
   1.04500000000000         0.000000000000000E+000
   1.23500000000000         0.000000000000000E+000
   1.42500000000000         0.000000000000000E+000
   1.61500000000000         0.000000000000000E+000
   1.80500000000000         0.000000000000000E+000
   1.99500000000000         0.000000000000000E+000
   2.18500000000000         0.000000000000000E+000
   2.37500000000000         0.000000000000000E+000
   2.56500000000000         0.000000000000000E+000
   2.75500000000000         0.000000000000000E+000
   2.94500000000000         0.000000000000000E+000
   3.13500000000000         0.000000000000000E+000
   3.32500000000000         0.000000000000000E+000
   3.51500000000000         0.000000000000000E+000
   3.70500000000000         0.000000000000000E+000
   3.89500000000000         0.000000000000000E+000
   4.08500000000000         0.000000000000000E+000
   4.27500000000000         0.000000000000000E+000
   4.46500000000000         0.000000000000000E+000
   4.65500000000000         0.000000000000000E+000
   4.84500000000000         0.000000000000000E+000
   5.03500000000000         0.000000000000000E+000
   5.22500000000000         0.000000000000000E+000
   5.41500000000000         0.000000000000000E+000
   5.60500000000000         0.000000000000000E+000
   5.79500000000000         0.000000000000000E+000
   5.98500000000000         0.000000000000000E+000
   6.17500000000000         0.000000000000000E+000
   6.36500000000000         0.000000000000000E+000
   6.55500000000000         0.000000000000000E+000
   6.74500000000000        -3.353771374182030E-177
   6.93500000000000         5.040202086812887E-171
   7.12500000000000         1.732613061237599E-169
   7.31500000000000         1.901896604884320E-168
   7.50500000000000         6.461345860240317E-167
   7.69500000000000         5.437694177414531E-165
   7.88500000000000         2.333789306117122E-163
   8.07500000000000         6.435396467769080E-162
   8.26500000000000         1.315908694943391E-160
   8.45500000000000         2.151792551121904E-159
   8.64500000000000         2.943517507626061E-158
   8.83500000000000         3.469742492694858E-157
   9.02500000000000         3.598808079790586E-156
   9.21500000000000         3.335407888490559E-155
   9.40500000000000         2.795014824384832E-154
   9.59500000000000         2.137273168846857E-153
   9.78500000000000         1.502232562416368E-152
   9.97500000000000         9.761599909395819E-152
   10.1650000000000         5.890810592346179E-151
   10.3550000000000         3.312722213196637E-150
   10.5450000000000         1.740124137189485E-149
   10.7350000000000         8.548855275903202E-149
   10.9250000000000         3.927717616080042E-148
   11.1150000000000         1.684468382724899E-147
   11.3050000000000         6.711565754120305E-147
   11.4950000000000         2.459903783003196E-146
   11.6850000000000         8.120971486489199E-146
   11.8750000000000         2.295107174541064E-145
   12.0650000000000         4.683783960093131E-145
   12.2550000000000        -2.756816273648684E-146
   12.4450000000000        -7.498683399629179E-144
   12.6350000000000        -5.680540273939255E-143
   12.8250000000000        -3.190914991566920E-142
   13.0150000000000        -1.575999818832260E-141
   13.2050000000000        -7.235886831851431E-141
   13.3950000000000        -3.167344049732832E-140
   13.5850000000000        -1.338759530827748E-139
   13.7750000000000        -5.497991532217027E-139
   13.9650000000000        -2.199092977220429E-138
   14.1550000000000        -8.568969418904476E-138
   14.3450000000000        -3.250088228776770E-137
   14.5350000000000        -1.198405704018245E-136
   14.7250000000000        -4.290498957330402E-136
   14.9150000000000        -1.489805712142514E-135
   15.1050000000000        -5.012810450590697E-135
   15.2950000000000        -1.633244256584401E-134
   15.4850000000000        -5.149619719166542E-134
   15.6750000000000        -1.570363543623508E-133
   15.8650000000000        -4.628522563374364E-133
   16.0550000000000        -1.317464030022812E-132
   16.2450000000000        -3.617318583487002E-132
   16.4350000000000        -9.564448844908837E-132
   16.6250000000000        -2.429288152308557E-131
   16.8150000000000        -5.904661250652822E-131
   17.0050000000000        -1.365180720974795E-130
   17.1950000000000        -2.972106283242327E-130
   17.3850000000000        -5.980483653538312E-130
   17.5750000000000        -1.069194309510586E-129
   17.7650000000000        -1.522086209479446E-129
   17.9550000000000        -9.085967860078330E-130
   18.1450000000000         4.547788290755768E-129
   18.3350000000000         2.635501136356828E-128
   18.5250000000000         9.633028433605619E-128
   18.7150000000000         2.966650588078249E-127
   18.9050000000000         8.287711395062845E-127
   19.0950000000000         2.165064585948567E-126
   19.2850000000000         5.372262110843265E-126
   19.4750000000000         1.277829276669829E-125
   19.6650000000000         2.930691611500811E-125
   19.8550000000000         6.507121290958143E-125
   20.0450000000000         1.402681003690244E-124
   20.2350000000000         2.941401478991875E-124
   20.4250000000000         6.008516203153835E-124
   20.6150000000000         1.196543837981420E-123
   20.8050000000000         2.323191382955033E-123
   20.9950000000000         4.394683056840623E-123
   21.1850000000000         8.084512905812279E-123
   21.3750000000000         1.441166271721880E-122
   21.5650000000000         2.473584707204522E-122
   21.7550000000000         4.040744037557867E-122
   21.9450000000000         6.142751904889761E-122
   22.1350000000000         8.260622050245061E-122
   22.3250000000000         8.386420258924476E-122
   22.5150000000000         7.558474468876815E-123
   22.7050000000000        -2.916831043542979E-121
   22.8950000000000        -1.153137523542922E-120
   23.0850000000000        -3.326198314514959E-120
   23.2750000000000        -8.395230716748815E-120
   23.4650000000000        -1.958606467260584E-119
   23.6550000000000        -4.324453919719965E-119
   23.8450000000000        -9.144994013760004E-119
   24.0350000000000        -1.864536843190465E-118
   24.2250000000000        -3.678798177542897E-118
   24.4150000000000        -7.037656129892078E-118
   24.6050000000000        -1.306252556740344E-117
   24.7950000000000        -2.351405092084055E-117
   24.9850000000000        -4.098953416133432E-117
   25.1750000000000        -6.899386531826517E-117
   25.3650000000000        -1.115875144267935E-116
   25.5550000000000        -1.719928241999344E-116
   25.7450000000000        -2.489686562508383E-116
   25.9350000000000        -3.288088788868688E-116
   26.1250000000000        -3.693178902200084E-116
   26.3150000000000        -2.699082576742434E-116
   26.5050000000000         1.810058741192179E-116
   26.6950000000000         1.393636505791521E-115
   26.8850000000000         4.114869542846337E-115
   27.0750000000000         9.632528192552262E-115
   27.2650000000000         2.005465527137788E-114
   27.4550000000000         3.864948481578643E-114
   27.6450000000000         7.017746146732641E-114
   27.8350000000000         1.210370930443408E-113
   28.0250000000000         1.988456824498956E-113
   28.2150000000000         3.107347988613095E-113
   28.4050000000000         4.590982827818030E-113
   28.5950000000000         6.327266585797398E-113
   28.7850000000000         7.901611113220988E-113
   28.9750000000000         8.307478348013603E-113
   29.1650000000000         5.474923958661446E-113
   29.3550000000000        -4.450347596383294E-113
   29.5450000000000        -2.813661044213443E-112
   29.7350000000000        -7.641781251827486E-112
   29.9250000000000        -1.658630256698099E-111
   30.1150000000000        -3.202169715816809E-111
   30.3050000000000        -5.709229674276026E-111
   30.4950000000000        -9.552009839485705E-111
   30.6850000000000        -1.509007843745744E-110
   30.8750000000000        -2.250555911863071E-110
   31.0650000000000        -3.147879379569986E-110
   31.2550000000000        -4.061346443394343E-110
   31.4450000000000        -4.649479656755405E-110
   31.6350000000000        -4.224990311098247E-110
   31.8250000000000        -1.549479162745295E-110
   32.0150000000000         5.436961134141076E-110
   32.2050000000000         1.993600346804666E-109
   32.3950000000000         4.660866818776744E-109
   32.5850000000000         9.177293713346292E-109
   32.7750000000000         1.632613740394362E-108
   32.9650000000000         2.695682522150019E-108
   33.1550000000000         4.177127943030728E-108
   33.3450000000000         6.089978546037266E-108
   33.5350000000000         8.315846732619524E-108
   33.7250000000000         1.048609834091851E-107
   33.9150000000000         1.180582314020989E-107
   34.1050000000000         1.081253493224268E-107
   34.2950000000000         5.074121946121392E-108
   34.4850000000000        -9.143740867738159E-108
   34.6750000000000        -3.716525447830658E-107
   34.8650000000000        -8.599964708178657E-107
   35.0550000000000        -1.639905362832099E-106
   35.2450000000000        -2.796237871362874E-106
   35.4350000000000        -4.389243182550484E-106
   35.6250000000000        -6.406887763215435E-106
   35.8150000000000        -8.686570233674229E-106
   36.0050000000000        -1.079712507741639E-105
   36.1950000000000        -1.187471035407328E-105
   36.3850000000000        -1.041397430878645E-105
   36.5750000000000        -4.031968542685601E-106
   36.7650000000000         1.074936817298366E-105
   36.9550000000000         3.861120134047023E-105
   37.1450000000000         8.527936168784724E-105
   37.3350000000000         1.568539879753783E-104
   37.5250000000000         2.582740420137513E-104
   37.7150000000000         3.904501355245104E-104
   37.9050000000000         5.455103493914070E-104
   38.0950000000000         6.995951376420039E-104
   38.2850000000000         8.027998963033419E-104
   38.4750000000000         7.663330793877099E-104
   38.6650000000000         4.479199136422677E-104
   38.8550000000000        -3.618315150583400E-104
   39.0450000000000        -1.946720793552112E-103
   39.2350000000000        -4.656662768120156E-103
   39.4250000000000        -8.869446869272161E-103
   39.6150000000000        -1.490203852942539E-102
   39.8050000000000        -2.284458579871160E-102
   39.9950000000000        -3.228556958940241E-102
   40.1850000000000        -4.189659794243228E-102
   40.3750000000000        -4.885526046339030E-102
   40.5650000000000        -4.811158605460285E-102
   40.7550000000000        -3.155775719783869E-102
   40.9450000000000         1.274647404878845E-102
   41.1350000000000         1.009967003646655E-101
   41.3250000000000         2.532157744696626E-101
   41.5150000000000         4.912117774471070E-101
   41.7050000000000         8.338524312460616E-101
   41.8950000000000         1.288284162403908E-100
   42.0850000000000         1.835520483427729E-100
   42.2750000000000         2.408879118967865E-100
   42.4650000000000         2.864303821167140E-100
   42.6550000000000         2.943004313775696E-100
   42.8450000000000         2.229517364393850E-100
   43.0350000000000         1.127227114384085E-101
   43.2250000000000        -4.235996137533131E-100
   43.4150000000000        -1.184408929110491E-099
   43.6050000000000        -2.384378679807816E-099
   43.7950000000000        -4.125481074353151E-099
   43.9850000000000        -6.458386969604373E-099
   44.1750000000000        -9.317375144266002E-099
   44.3650000000000        -1.242392262258027E-098
   44.5550000000000        -1.515527032150827E-098
   44.7450000000000        -1.638026924676918E-098
   44.9350000000000        -1.427585224838993E-098
   45.1250000000000        -6.155262662866856E-099
   45.3150000000000         1.163478776053513E-098
   45.5050000000000         4.365584683000844E-098
   45.6950000000000         9.502313733693322E-098
   45.8850000000000         1.705723575376387E-097
   46.0750000000000         2.733228294167578E-097
   46.2650000000000         4.019884635847711E-097
   46.4550000000000         5.473069162261247E-097
   46.6450000000000         6.870514975286936E-097
   46.8350000000000         7.798026996944607E-097
   47.0250000000000         7.579374768465282E-097
   47.2150000000000         5.208978101118163E-097
   47.4050000000000        -6.932982176876770E-098
   47.5950000000000        -1.187437918073503E-096
   47.7850000000000        -3.034235278400498E-096
   47.9750000000000        -5.810284168464693E-096
   48.1650000000000        -9.666339117530906E-096
   48.3550000000000        -1.462239589247827E-095
   48.5450000000000        -2.044764466302191E-095
   48.7350000000000        -2.649634620446514E-095
   48.9250000000000        -3.150084894947964E-095
   49.1150000000000        -3.333408598713128E-095
   49.3050000000000        -2.877143806755390E-095
   49.4950000000000        -1.330708227163833E-095
   49.6850000000000         1.888659536972046E-095
   49.8750000000000         7.472714513523147E-095
   50.0650000000000         1.615434793130480E-094
   50.2550000000000         2.857340535302370E-094
   50.4450000000000         4.505172273079431E-094
   50.6350000000000         6.525329489573771E-094
   50.8250000000000         8.771149177730784E-094
   51.0150000000000         1.092200237851502E-093
   51.2050000000000         1.241116633975516E-093
   51.3950000000000         1.234925208576451E-093
   51.5850000000000         9.456349102624716E-094
   51.7750000000000         2.024639796924811E-094
   51.9650000000000        -1.205606014348018E-093
   52.1550000000000        -3.516517102721200E-093
   52.3450000000000        -6.965362956628911E-093
   52.5350000000000        -1.173145720476219E-092
   52.7250000000000        -1.785515556916091E-092
   52.9150000000000        -2.511812263043859E-092
   53.1050000000000        -3.288340060759314E-092
   53.2950000000000        -3.989708922051797E-092
   53.4850000000000        -4.406269906033073E-092
   53.6750000000000        -4.221332640581431E-092
   53.8650000000000        -2.992657211044211E-092
   54.0550000000000        -1.452982716184923E-093
   54.2450000000000         5.013976442268143E-092
   54.4350000000000         1.324696185616685E-091
   54.6250000000000         2.528178995787228E-091
   54.8150000000000         4.163829691735760E-091
   55.0050000000000         6.236021893154615E-091
   55.1950000000000         8.663601962071102E-091
   55.3850000000000         1.122982496057890E-090
   55.5750000000000         1.352076099262679E-090
   55.7650000000000         1.485554143027368E-090
   55.9550000000000         1.421601740986169E-090
   56.1450000000000         1.018934866359664E-090
   56.3350000000000         9.449043485684946E-092
   56.5250000000000        -1.572343061439402E-090
   56.7150000000000        -4.224738490517485E-090
   56.9050000000000        -8.097344677912660E-090
   57.0950000000000        -1.336282675529137E-089
   57.2850000000000        -2.004935465939285E-089
   57.4750000000000        -2.792299447236604E-089
   57.6650000000000        -3.633131137298652E-089
   57.8550000000000        -4.400944758665221E-089
   58.0450000000000        -4.885853094523142E-089
   58.2350000000000        -4.771960116141785E-089
   58.4250000000000        -3.618529389498209E-089
   58.6150000000000        -8.516852665196538E-090
   58.8050000000000         4.223468759047840E-089
   58.9950000000000         1.237689452116469E-088
   59.1850000000000         2.435688315355187E-088
   59.3750000000000         4.072283467554178E-088
   59.5650000000000         6.158703068019106E-088
   59.7550000000000         8.624769214700295E-088
   59.9450000000000         1.127043021844218E-087
   60.1350000000000         1.370634695742073E-087
   60.3250000000000         1.528725398744882E-087
   60.5150000000000         1.504616207117890E-087
   60.7050000000000         1.164347176181303E-087
   60.8950000000000         3.352737602380734E-088
   61.0850000000000        -1.188617450748301E-087
   61.2750000000000        -3.630632515034955E-087
   61.4650000000000        -7.199680540281952E-087
   61.6550000000000        -1.203766015189965E-086
   61.8450000000000        -1.814090191369792E-086
   62.0350000000000        -2.525218104813776E-086
   62.2250000000000        -3.272319757859790E-086
   62.4150000000000        -3.935331858550340E-086
   62.6050000000000        -4.321942581477068E-086
   62.7950000000000        -4.152436445553984E-086
   62.9850000000000        -3.050779091560618E-086
   63.1750000000000        -5.482505857844260E-087
   63.3650000000000         3.892010681377276E-086
   63.5550000000000         1.081933615386138E-085
   63.7450000000000         2.069736391270822E-085
   63.9350000000000         3.375231239316573E-085
   64.1250000000000         4.975930054087660E-085
   64.3150000000000         6.776453514255351E-085
   64.5050000000000         8.575216024489881E-085
   64.6950000000000         1.002814468524564E-084
   64.8850000000000         1.061435688312897E-084
   65.0750000000000         9.611746537851711E-085
   65.2650000000000         6.093993966034558E-085
   65.4550000000000        -1.035701556704995E-085
   65.6450000000000        -1.295544114677791E-084
   65.8350000000000        -3.075909695374312E-084
   66.0250000000000        -5.519385683231357E-084
   66.2150000000000        -8.628468487753450E-084
   66.4050000000000        -1.228399272559383E-083
   66.5950000000000        -1.618506236518095E-083
   66.7850000000000        -1.978241313604858E-083
   66.9750000000000        -2.221315412917839E-083
   67.1650000000000        -2.224978799853901E-083
   67.3550000000000        -1.828219855177745E-083
   67.5450000000000        -8.357397362958363E-084
   67.7350000000000         9.692676675318072E-084
   67.9250000000000         3.800149015030618E-083
   68.1150000000000         7.826291432400204E-083
   68.3050000000000         1.311440114227571E-082
   68.4950000000000         1.955042720427320E-082
   68.6850000000000         2.674372649545599E-082
   68.8750000000000         3.391921366134448E-082
   69.0650000000000         3.980894479082926E-082
   69.2550000000000         4.256179568945018E-082
   69.4450000000000         3.969826923588348E-082
   69.6350000000000         2.814624420592210E-082
   69.8250000000000         4.401378114083706E-083
   70.0150000000000        -3.513899642699049E-082
   70.2050000000000        -9.361983189593111E-082
   70.3950000000000        -1.729101725959723E-081
   70.5850000000000        -2.725034207514812E-081
   70.7750000000000        -3.881528409791907E-081
   70.9650000000000        -5.103137915943298E-081
   71.1550000000000        -6.225390331452212E-081
   71.3450000000000        -7.000676296791774E-081
   71.5350000000000        -7.089568589033822E-081
   71.7250000000000        -6.062205495543252E-081
   71.9150000000000        -3.415404064753834E-081
   72.1050000000000         1.388140390130940E-081
   72.2950000000000         8.852168830712072E-081
   72.4850000000000         1.934526432453686E-080
   72.6750000000000         3.296233825998132E-080
   72.8650000000000         4.935044481433874E-080
   73.0550000000000         6.750661866259072E-080
   73.2450000000000         8.556424361215601E-080
   73.4350000000000         1.005955336202728E-079
   73.6250000000000         1.084705206609737E-079
   73.8150000000000         1.038264154919330E-079
   74.0050000000000         8.021356995062484E-080
   74.1950000000000         3.049298111603882E-080
   74.3850000000000        -5.243798936284868E-080
   74.5750000000000        -1.745242620639773E-079
   74.7650000000000        -3.389933002140563E-079
   74.9550000000000        -5.443586807290639E-079
   75.1450000000000        -7.820565244990030E-079
   75.3350000000000        -1.033877510492009E-078
   75.5250000000000        -1.269474758210075E-078
   75.7150000000000        -1.444364682449047E-078
   75.9050000000000        -1.498983339261453E-078
   76.0950000000000        -1.359497388625279E-078
   76.2850000000000        -9.411716649139462E-079
   76.4750000000000        -1.551319529585602E-079
   76.6650000000000         1.080707144483235E-078
   76.8550000000000         2.825996470030702E-078
   77.0450000000000         5.097444176109387E-078
   77.2350000000000         7.843936041308847E-078
   77.4250000000000         1.091865830154310E-077
   77.6150000000000         1.405072307685930E-077
   77.8050000000000         1.682012283634974E-077
   77.9950000000000         1.864127524252827E-077
   78.1850000000000         1.876181151266191E-077
   78.3750000000000         1.628439173865129E-077
   78.5650000000000         1.021991357726606E-077
   78.7550000000000        -4.198284644645616E-079
   78.9450000000000        -1.648356041170091E-077
   79.1350000000000        -3.849279586705557E-077
   79.3250000000000        -6.640696925663694E-077
   79.5150000000000        -9.935091123480932E-077
   79.7050000000000        -1.353238329070093E-076
   79.8950000000000        -1.709206258680674E-076
   80.0850000000000        -2.011092000208308E-076
   80.2750000000000        -2.191206162899350E-076
   80.4650000000000        -2.165202329830751E-076
   80.6550000000000        -1.835357255709800E-076
   80.8450000000000        -1.097189125847515E-076
   81.0350000000000         1.499028063151622E-077
   81.2250000000000         1.987508772459926E-076
   81.4150000000000         4.458494067790920E-076
   81.6050000000000         7.543158036024841E-076
   81.7950000000000         1.113246689289505E-075
   81.9850000000000         1.500047901477237E-075
   82.1750000000000         1.877913554621814E-075
   82.3650000000000         2.193970492123694E-075
   82.5550000000000         2.378623312548084E-075
   82.7450000000000         2.346720644706415E-075
   82.9350000000000         2.001208443459274E-075
   83.1250000000000         1.239917994491653E-075
   83.3150000000000        -3.396949667344529E-077
   83.5050000000000        -1.897457455406841E-075
   83.6950000000000        -4.389293212111289E-075
   83.8850000000000        -7.488072710024699E-075
   84.0750000000000        -1.108805276059259E-074
   84.2650000000000        -1.497460476215047E-074
   84.4550000000000        -1.880210839715304E-074
   84.6450000000000        -2.207797769625419E-074
   84.8350000000000        -2.415734269218619E-074
   85.0250000000000        -2.425355586754647E-074
   85.2150000000000        -2.147000471085896E-074
   85.4050000000000        -1.485851987905467E-074
   85.5950000000000        -3.508792391664892E-075
   85.7850000000000         1.332852177770968E-074
   85.9750000000000         3.608507337521835E-074
   86.1650000000000         6.468837558713429E-074
   86.3550000000000         9.835450989987445E-074
   86.5450000000000         1.353748171849998E-073
   86.7350000000000         1.729181370010465E-073
   86.9250000000000         2.068772154233817E-073
   87.1150000000000         2.317946588609157E-073
   87.3050000000000         2.409094280775148E-073
   87.4950000000000         2.263682985739562E-073
   87.6850000000000         1.796467407573901E-073
   87.8750000000000         9.221895715423535E-074
   88.0650000000000        -4.349401450246905E-074
   88.2550000000000        -2.328874381355566E-073
   88.4450000000000        -4.776631793973046E-073
   88.6350000000000        -7.740986721532140E-073
   88.8250000000000        -1.111190468131071E-072
   89.0150000000000        -1.468820461064156E-072
   89.2050000000000        -1.816150532105975E-072
   89.3950000000000        -2.110510760734625E-072
   89.5850000000000        -2.297102077509042E-072
   89.7750000000000        -2.309879095246471E-072
   89.9650000000000        -2.074003830638745E-072
   90.1550000000000        -1.510255470322756E-072
   90.3450000000000        -5.417333652344714E-073
   90.5350000000000         8.969123524719845E-073
   90.7250000000000         2.847657626696228E-072
   90.9150000000000         5.314870005971251E-072
   91.1050000000000         8.249172818170226E-072
   91.2950000000000         1.153032938387802E-071
   91.4850000000000         1.495055397939579E-071
   91.6750000000000         1.820019524854767E-071
   91.8650000000000         2.085829593894526E-071
   92.0550000000000         2.239105906527775E-071
   92.2450000000000         2.216167546050433E-071
   92.4350000000000         1.945520315212067E-071
   92.6250000000000         1.352213010073481E-071
   92.8150000000000         3.643780791954304E-072
   93.0050000000000        -1.077827911495984E-071
   93.1950000000000        -3.010834456763078E-071
   93.3850000000000        -5.434009070362255E-071
   93.5750000000000        -8.294263149379052E-071
   93.7650000000000        -1.146982419944105E-070
   93.9550000000000        -1.475455653847040E-070
   94.1450000000000        -1.784472984221905E-070
   94.3350000000000        -2.033066371220892E-070
   94.5250000000000        -2.169616458620530E-070
   94.7150000000000        -2.132904928482938E-070
   94.9050000000000        -1.854623105654584E-070
   95.0950000000000        -1.263672867895347E-070
   95.2850000000000        -2.925437390629771E-071
   95.4750000000000         1.114053845629728E-070
   95.6650000000000         2.988284728262049E-070
   95.8550000000000         5.326235120312991E-070
   96.0450000000000         8.073436222566716E-070
   96.2350000000000         1.110976927470963E-069
   96.4250000000000         1.423508949903990E-069
   96.6150000000000         1.715737473493983E-069
   96.8050000000000         1.948567260824294E-069
   96.9950000000000         2.073053898560802E-069
   97.1850000000000         2.031496722453501E-069
   97.3750000000000         1.759892613812344E-069
   97.5650000000000         1.192046785351351E-069
   97.7550000000000         2.655842104350312E-070
   97.9450000000000        -1.069993078862516E-069
   98.1350000000000        -2.843210121933156E-069
   98.3250000000000        -5.048704385596866E-069
   98.5150000000000        -7.633986827221759E-069
   98.7050000000000        -1.048570691557589E-068
   98.8950000000000        -1.341663257581435E-068
   99.0850000000000        -1.615496877080191E-068
   99.2750000000000        -1.833805193084214E-068
   99.4650000000000        -1.951283083679365E-068
   99.6550000000000        -1.914582477645634E-068
   99.8450000000000        -1.664537181599636E-068
   100.035000000000        -1.139886838457614E-068
   100.225000000000        -2.827273195879135E-069
   100.415000000000         9.541681423404353E-069
   100.605000000000         2.598143978826903E-068
   100.795000000000         4.645746337421742E-068
   100.985000000000         7.050513569670002E-068
   101.175000000000         9.710193211730569E-068
   101.365000000000         1.245445975192573E-067
   101.555000000000         1.503459881080825E-067
   101.745000000000         1.711702733539368E-067
   101.935000000000         1.828289981911810E-067
   102.125000000000         1.803635805253448E-067
   102.315000000000         1.582415340950197E-067
   102.505000000000         1.106933001875851E-067
   102.695000000000         3.221317504171913E-068
   102.885000000000        -8.175949568573563E-068
   103.075000000000        -2.339748316867054E-067
   103.265000000000        -4.243363878901481E-067
   103.455000000000        -6.487322383076399E-067
   103.645000000000        -8.978009618829997E-067
   103.835000000000        -1.155736076976319E-066
   104.025000000000        -1.399272381192801E-066
   104.215000000000        -1.597039113638820E-066
   104.405000000000        -1.709503937160728E-066
   104.595000000000        -1.689763038132876E-066
   104.785000000000        -1.485449259891134E-066
   104.975000000000        -1.042023857511805E-066
   105.165000000000        -3.076789177077990E-067
   105.355000000000         7.600028993748884E-067
   105.545000000000         2.185615880654376E-066
   105.735000000000         3.965899781134565E-066
   105.925000000000         6.058533567121693E-066
   106.115000000000         8.370488193725896E-066
   106.305000000000         1.074703087479044E-065
   106.495000000000         1.296286092444316E-065
   106.685000000000         1.471724179035315E-065
   106.875000000000         1.563532998791312E-065
   107.065000000000         1.527813027831624E-065
   107.255000000000         1.316355616300773E-065
   107.445000000000         8.800864879789751E-066
   107.635000000000         1.740182235850737E-066
   107.825000000000        -8.362144758477147E-066
   108.015000000000        -2.166309380128788E-065
   108.205000000000        -3.804012249469805E-065
   108.395000000000        -5.699113456409868E-065
   108.585000000000        -7.753537885239584E-065
   108.775000000000        -9.812659310841011E-065
   108.965000000000        -1.165929108627996E-064
   109.155000000000        -1.301209133705693E-064
   109.345000000000        -1.353032666378433E-064
   109.535000000000        -1.282700805111481E-064
   109.725000000000        -1.049228425752216E-064
   109.915000000000        -6.128587551897472E-065
   110.105000000000         6.016848165811265E-066