  -1.42500000000000         0.000000000000000E+000
  -1.23500000000000         0.000000000000000E+000
  -1.04500000000000         0.000000000000000E+000
 -0.855000000000000         0.000000000000000E+000
 -0.665000000000000         0.000000000000000E+000
 -0.475000000000000         0.000000000000000E+000
 -0.285000000000000         0.000000000000000E+000
 -9.499999999999975E-002    0.000000000000000E+000
  9.500000000000020E-002    0.000000000000000E+000
  0.285000000000000         0.000000000000000E+000
  0.475000000000000         0.000000000000000E+000
  0.665000000000000         0.000000000000000E+000
  0.855000000000000         0.000000000000000E+000
   1.04500000000000         0.000000000000000E+000
   1.23500000000000         0.000000000000000E+000
   1.42500000000000         0.000000000000000E+000
   1.61500000000000         0.000000000000000E+000
   1.80500000000000         0.000000000000000E+000
   1.99500000000000         0.000000000000000E+000
   2.18500000000000         0.000000000000000E+000
   2.37500000000000         0.000000000000000E+000
   2.56500000000000         0.000000000000000E+000
   2.75500000000000         0.000000000000000E+000
   2.94500000000000         0.000000000000000E+000
   3.13500000000000         0.000000000000000E+000
   3.32500000000000         0.000000000000000E+000
   3.51500000000000         0.000000000000000E+000
   3.70500000000000         0.000000000000000E+000
   3.89500000000000         0.000000000000000E+000
   4.08500000000000         0.000000000000000E+000
   4.27500000000000         0.000000000000000E+000
   4.46500000000000         0.000000000000000E+000
   4.65500000000000         0.000000000000000E+000
   4.84500000000000         0.000000000000000E+000
   5.03500000000000         0.000000000000000E+000
   5.22500000000000         0.000000000000000E+000
   5.41500000000000         0.000000000000000E+000
   5.60500000000000         0.000000000000000E+000
   5.79500000000000         0.000000000000000E+000
   5.98500000000000         0.000000000000000E+000
   6.17500000000000         0.000000000000000E+000
   6.36500000000000         0.000000000000000E+000
   6.55500000000000         0.000000000000000E+000
   6.74500000000000        -6.570570522457393E-178
   6.93500000000000         1.298503377718866E-171
   7.12500000000000         4.647568477570040E-170
   7.31500000000000         5.301041175940387E-169
   7.50500000000000         1.629375990519934E-167
   7.69500000000000         1.427080410742376E-165
   7.88500000000000         6.378365525781549E-164
   8.07500000000000         1.819336456175188E-162
   8.26500000000000         3.836974693182854E-161
   8.45500000000000         6.463065521517224E-160
   8.64500000000000         9.102540532827108E-159
   8.83500000000000         1.104630334959660E-157
   9.02500000000000         1.179741700855239E-156
   9.21500000000000         1.126320400943790E-155
   9.40500000000000         9.728371206756586E-155
   9.59500000000000         7.673625481039777E-154
   9.78500000000000         5.569239293993051E-153
   9.97500000000000         3.741439772816342E-152
   10.1650000000000         2.337876756713401E-151
   10.3550000000000         1.363914831834803E-150
   10.5450000000000         7.450035032482525E-150
   10.7350000000000         3.816996599526906E-149
   10.9250000000000         1.835486611934781E-148
   11.1150000000000         8.276066038151632E-148
   11.3050000000000         3.486833427697448E-147
   11.4950000000000         1.361831291468176E-146
   11.6850000000000         4.846524616851972E-146
   11.8750000000000         1.509224691468365E-145
   12.0650000000000         3.637629453378497E-145
   12.2550000000000         2.776245062803122E-145
   12.4450000000000        -4.189028329724976E-144
   12.6350000000000        -3.910046053889084E-143
   12.8250000000000        -2.456247410049527E-142
   13.0150000000000        -1.321306364180128E-141
   13.2050000000000        -6.505759678527525E-141
   13.3950000000000        -3.014894420329132E-140
   13.5850000000000        -1.333483777427797E-139
   13.7750000000000        -5.672149989363726E-139
   13.9650000000000        -2.330366586346716E-138
   14.1550000000000        -9.270408307883424E-138
   14.3450000000000        -3.576083389669062E-137
   14.5350000000000        -1.338872822123373E-136
   14.7250000000000        -4.868009186422058E-136
   14.9150000000000        -1.719638912312454E-135
   15.1050000000000        -5.904240415242752E-135
   15.2950000000000        -1.971025505773868E-134
   15.4850000000000        -6.400077695506648E-134
   15.6750000000000        -2.022146699773714E-133
   15.8650000000000        -6.219432923274857E-133
   16.0550000000000        -1.862866196558643E-132
   16.2450000000000        -5.436152559519781E-132
   16.4350000000000        -1.546215711346278E-131
   16.6250000000000        -4.288529523500044E-131
   16.8150000000000        -1.160378016840441E-130
   17.0050000000000        -3.064344721160029E-130
   17.1950000000000        -7.901667605862663E-130
   17.3850000000000        -1.990404056677734E-129
   17.5750000000000        -4.900120380109724E-129
   17.7650000000000        -1.179563464647373E-128
   17.9550000000000        -2.777771090413682E-128
   18.1450000000000        -6.402505739538322E-128
   18.3350000000000        -1.445127749857805E-127
   18.5250000000000        -3.195916805678602E-127
   18.7150000000000        -6.928696308096785E-127
   18.9050000000000        -1.473355542079502E-126
   19.0950000000000        -3.074599587916659E-126
   19.2850000000000        -6.299411868801686E-126
   19.4750000000000        -1.267685088956130E-125
   19.6650000000000        -2.506302803840971E-125
   19.8550000000000        -4.868423008217907E-125
   20.0450000000000        -9.288991627790429E-125
   20.2350000000000        -1.739745241307069E-124
   20.4250000000000        -3.194463966955271E-124
   20.6150000000000        -5.738638790184244E-124
   20.8050000000000        -1.005327557090952E-123
   20.9950000000000        -1.708822257884163E-123
   21.1850000000000        -2.795593179313916E-123
   21.3750000000000        -4.342238331306100E-123
   21.5650000000000        -6.241117004811610E-123
   21.7550000000000        -7.830823502532923E-123
   21.9450000000000        -7.068249745036309E-123
   22.1350000000000         1.204926638496168E-123
   22.3250000000000         2.870315191006959E-122
   22.5150000000000         1.002214319260363E-121
   22.7050000000000         2.655016226429474E-121
   22.8950000000000         6.199739461613907E-121
   23.0850000000000         1.339615033861286E-120
   23.2750000000000         2.737220970975665E-120
   23.4650000000000         5.349462905958793E-120
   23.6550000000000         1.006539352452070E-119
   23.8450000000000         1.830614343579892E-119
   24.0350000000000         3.226000465329155E-119
   24.2250000000000         5.516351109082345E-119
   24.4150000000000         9.159319084882288E-119
   24.6050000000000         1.476899851055506E-118
   24.7950000000000         2.311760721553635E-118
   24.9850000000000         3.509433031415927E-118
   25.1750000000000         5.159016331716025E-118
   25.3650000000000         7.326887011114813E-118
   25.5550000000000         1.001765120675882E-117
   25.7450000000000         1.311310389203760E-117
   25.9350000000000         1.627982888737216E-117
   26.1250000000000         1.882381584992022E-117
   26.3150000000000         1.943353374493147E-117
   26.5050000000000         1.565534832907139E-117
   26.6950000000000         2.712043066912690E-118
   26.8850000000000        -2.924047598655611E-117
   27.0750000000000        -1.013946704005931E-116
   27.2650000000000        -2.601982412633086E-116
   27.4550000000000        -6.069389839362875E-116
   27.6450000000000        -1.358185890522875E-115
   27.8350000000000        -2.964522367689970E-115
   28.0250000000000        -6.335161956389806E-115
   28.2150000000000        -1.324757233955311E-114
   28.4050000000000        -2.706776737180786E-114
   28.5950000000000        -5.397054658309307E-114
   28.7850000000000        -1.049265160882886E-113
   28.9750000000000        -1.987985474120781E-113
   29.1650000000000        -3.669231537152343E-113
   29.3550000000000        -6.594533292010565E-113
   29.5450000000000        -1.153338264439411E-112
   29.7350000000000        -1.960810236517343E-112
   29.9250000000000        -3.235140866716977E-112
   30.1150000000000        -5.166444999885709E-112
   30.3050000000000        -7.953335489686786E-112
   30.4950000000000        -1.172479132797822E-111
   30.6850000000000        -1.636897841413247E-111
   30.8750000000000        -2.120039959296036E-111
   31.0650000000000        -2.436317090182288E-111
   31.2550000000000        -2.182881872518298E-111
   31.4450000000000        -5.810175923721039E-112
   31.6350000000000         3.760178630104942E-111
   31.8250000000000         1.317258852444315E-110
   32.0150000000000         3.134782729669207E-110
   32.2050000000000         6.380253149269694E-110
   32.3950000000000         1.182658082233700E-109
   32.5850000000000         2.047207088495124E-109
   32.7750000000000         3.345962756624393E-109
   32.9650000000000         5.182486103657474E-109
   33.1550000000000         7.593637026648565E-109
   33.3450000000000         1.044261066743372E-108
   33.5350000000000         1.323331563118366E-108
   33.7250000000000         1.481168682531034E-108
   33.9150000000000         1.291696398024230E-108
   34.1050000000000         3.553886525024947E-109
   34.2950000000000        -1.981449459834115E-108
   34.4850000000000        -6.718851088895024E-108
   34.6750000000000        -1.528800130497818E-107
   34.8650000000000        -2.958906823944646E-107
   35.0550000000000        -5.191017960373766E-107
   35.2450000000000        -8.460964573302228E-107
   35.4350000000000        -1.293834570122011E-106
   35.6250000000000        -1.858703798525395E-106
   35.8150000000000        -2.492807198942908E-106
   36.0050000000000        -3.066993455532346E-106
   36.1950000000000        -3.317575573642197E-106
   36.3850000000000        -2.775697712618278E-106
   36.5750000000000        -6.830371558985549E-107
   36.7650000000000         4.093509522684480E-106
   36.9550000000000         1.312049348665691E-105
   37.1450000000000         2.837938056006697E-105
   37.3350000000000         5.208827911997564E-105
   37.5250000000000         8.624081059488743E-105
   37.7150000000000         1.316938384378021E-104
   37.9050000000000         1.865961558613424E-104
   38.0950000000000         2.439359477920571E-104
   38.2850000000000         2.880295428194037E-104
   38.4750000000000         2.899295140938129E-104
   38.6650000000000         2.020697271981197E-104
   38.8550000000000        -4.691765180793890E-105
   39.0450000000000        -5.552764232365769E-104
   39.2350000000000        -1.445671516611308E-103
   39.4250000000000        -2.851773320543472E-103
   39.6150000000000        -4.885989630755560E-103
   39.8050000000000        -7.577864112965269E-103
   39.9950000000000        -1.077066204539642E-102
   40.1850000000000        -1.396359288509201E-102
   40.3750000000000        -1.609117000339456E-102
   40.5650000000000        -1.524267001398809E-102
   40.7550000000000        -8.348044640864326E-103
   40.9450000000000         9.102421948512399E-103
   41.1350000000000         4.317283178628586E-102
   41.3250000000000         1.012055736651301E-101
   41.5150000000000         1.908059021476292E-101
   41.7050000000000         3.175926107421951E-101
   41.8950000000000         4.810741123509199E-101
   42.0850000000000         6.679111069264561E-101
   42.2750000000000         8.418622211382816E-101
   42.4650000000000         9.300135239115429E-101
   42.6550000000000         8.056644307495260E-101
   42.8450000000000         2.697440695018413E-101
   43.0350000000000        -9.648226219201105E-101
   43.2250000000000        -3.277472559541864E-100
   43.4150000000000        -7.119264357359516E-100
   43.6050000000000        -1.294617463039019E-099
   43.7950000000000        -2.107754626069490E-099
   43.9850000000000        -3.144330956892398E-099
   44.1750000000000        -4.317955748178570E-099
   44.3650000000000        -5.403642265198760E-099
   44.5550000000000        -5.958252520419957E-099
   44.7450000000000        -5.223703813257934E-099
   44.9350000000000        -2.024693241636040E-099
   45.1250000000000         5.313195495547402E-099
   45.3150000000000         1.897823164485265E-098
   45.5050000000000         4.154499842508352E-098
   45.6950000000000         7.559460310623232E-098
   45.8850000000000         1.229352095101816E-097
   46.0750000000000         1.832440208755496E-097
   46.2650000000000         2.519419180238635E-097
   46.4550000000000         3.171482445315180E-097
   46.6450000000000         3.556814003978722E-097
   46.8350000000000         3.283179816511970E-097
   47.0250000000000         1.749549599987187E-097
   47.2150000000000        -1.890073121019068E-097
   47.4050000000000        -8.727861392168738E-097
   47.5950000000000        -2.003322982171549E-096
   47.7850000000000        -3.706405325997471E-096
   47.9750000000000        -6.069386999588719E-096
   48.1650000000000        -9.078063678104677E-096
   48.3550000000000        -1.252034893556630E-095
   48.5450000000000        -1.585164183645229E-095
   48.7350000000000        -1.802260531107807E-095
   48.9250000000000        -1.728125810198367E-095
   49.1150000000000        -1.097977495078103E-095
   49.3050000000000         4.556046879389734E-096
   49.4950000000000         3.399914740531703E-095
   49.6850000000000         8.269331406255239E-095
   49.8750000000000         1.558316883962162E-094
   50.0650000000000         2.569018722746147E-094
   50.2550000000000         3.851331974189451E-094
   50.4450000000000         5.317054620298141E-094
   50.6350000000000         6.745883130457549E-094
   50.8250000000000         7.721254116800112E-094
   51.0150000000000         7.559147708950448E-094
   51.2050000000000         5.242239444161726E-094
   51.3950000000000        -6.184031502274780E-095
   51.5850000000000        -1.175908170954872E-093
   51.7750000000000        -3.012656969850476E-093
   51.9650000000000        -5.756287549769479E-093
   52.1550000000000        -9.523360344844711E-093
   52.3450000000000        -1.427186383553412E-092
   52.5350000000000        -1.966986873558617E-092
   52.7250000000000        -2.492159737020864E-092
   52.9150000000000        -2.855767182161166E-092
   53.1050000000000        -2.821128952557186E-092
   53.2950000000000        -2.042454300045430E-092
   53.4850000000000        -5.598249592850013E-094
   53.6750000000000         3.707039506211221E-092
   53.8650000000000         9.869924879015719E-092
   54.0550000000000         1.900298040046725E-091
   54.2450000000000         3.143648683194115E-091
   54.4350000000000         4.697254088173952E-091
   54.6250000000000         6.448056711572719E-091
   54.8150000000000         8.137696613431242E-091
   55.0050000000000         9.301799195158272E-091
   55.1950000000000         9.208033724386296E-091
   55.3850000000000         6.806889703157417E-091
   55.5750000000000         7.176227783877129E-092
   55.7650000000000        -1.071806837863239E-090
   55.9550000000000        -2.927146732591912E-090
   56.1450000000000        -5.649922320830536E-090
   56.3350000000000        -9.319664654492819E-090
   56.5250000000000        -1.385820556280318E-089
   56.7150000000000        -1.891852146377697E-089
   56.9050000000000        -2.374605105799488E-089
   57.0950000000000        -2.702263561831005E-089
   57.2850000000000        -2.671538991895016E-089
   57.4750000000000        -1.996944366602044E-089
   57.6650000000000        -3.104272082296254E-090
   57.8550000000000         2.820327324794443E-089
   58.0450000000000         7.844343758201033E-089
   58.2350000000000         1.513834930379735E-088
   58.4250000000000         2.486399252288855E-088
   58.6150000000000         3.676155044851674E-088
   58.8050000000000         4.987715374114810E-088
   58.9950000000000         6.223318441252581E-088
   59.1850000000000         7.047161320533474E-088
   59.3750000000000         6.952883143673067E-088
   59.5650000000000         5.243814723953725E-088
   59.7550000000000         1.040087264023264E-088
   59.9450000000000        -6.668568695610853E-088
   60.1350000000000        -1.890134469959084E-087
   60.3250000000000        -3.647096700170784E-087
   60.5150000000000        -5.965075331208144E-087
   60.7050000000000        -8.770833763112034E-087
   60.8950000000000        -1.183073532178357E-086
   61.0850000000000        -1.468076614058290E-086
   61.2750000000000        -1.655388531794426E-086
   61.4650000000000        -1.631820522661568E-086
   61.6550000000000        -1.244703462742020E-086
   61.8450000000000        -3.050329380564594E-087
   62.0350000000000         1.399450160878509E-086
   62.2250000000000         4.076803487441995E-086
   62.4150000000000         7.884434208630979E-086
   62.6050000000000         1.285969743190490E-085
   62.7950000000000         1.882552510320288E-085
   62.9850000000000         2.527279370077766E-085
   63.1750000000000         3.122712238085891E-085
   63.3650000000000         3.511637493832576E-085
   63.5550000000000         3.466636247830818E-085
   63.7450000000000         2.686564464284832E-085
   63.9350000000000         8.054683237176302E-086
   64.1250000000000        -2.579233191877281E-085
   64.3150000000000        -7.851639269487509E-085
   64.5050000000000        -1.528781492232799E-084
   64.6950000000000        -2.492601588595017E-084
   64.8850000000000        -3.639496987304742E-084
   65.0750000000000        -4.870562230073336E-084
   65.2650000000000        -6.002259376626225E-084
   65.4550000000000        -6.744647824103000E-084
   65.6450000000000        -6.685679395965520E-084
   65.8350000000000        -5.288674197866259E-084
   66.0250000000000        -1.912252705177077E-084
   66.2150000000000         4.136216305692909E-084
   66.4050000000000         1.350177285686629E-083
   66.5950000000000         2.662667680071732E-083
   66.7850000000000         4.353154803717415E-083
   66.9750000000000         6.353287958372298E-083
   67.1650000000000         8.490907441491215E-083
   67.3550000000000         1.045447339907756E-082
   67.5450000000000         1.176061326341049E-082
   67.7350000000000         1.173288471362820E-082
   67.9250000000000         9.502916606657464E-083
   68.1150000000000         4.048009718588830E-083
   68.3050000000000        -5.718582798584941E-083
   68.4950000000000        -2.078800309196754E-082
   68.6850000000000        -4.181238911066930E-082
   68.8750000000000        -6.876975963034498E-082
   69.0650000000000        -1.005410606109821E-081
   69.2550000000000        -1.344217091306427E-081
   69.4450000000000        -1.656157300732346E-081
   69.6350000000000        -1.867934117800560E-081
   69.8250000000000        -1.878316617109841E-081
   70.0150000000000        -1.558962983357949E-081
   70.2050000000000        -7.606124499620190E-082
   70.3950000000000         6.731802272468199E-082
   70.5850000000000         2.882623935091953E-081
   70.7750000000000         5.956869706852253E-081
   70.9650000000000         9.887065482761490E-081
   71.1550000000000         1.450827479027904E-080
   71.3450000000000         1.943380081229501E-080
   71.5350000000000         2.398890159726378E-080
   71.7250000000000         2.715513563031790E-080
   71.9150000000000         2.754136923190772E-080
   72.1050000000000         2.340228677556465E-080
   72.2950000000000         1.272924513174140E-080
   72.4850000000000        -6.559657731255314E-081
   72.6750000000000        -3.630486379364219E-080
   72.8650000000000        -7.764719308463247E-080
   73.0550000000000        -1.304211501886922E-079
   73.2450000000000        -1.924170691563180E-079
   73.4350000000000        -2.585618406914307E-079
   73.6250000000000        -3.201103831313826E-079
   73.8150000000000        -3.639909759955821E-079
   74.0050000000000        -3.725032766546952E-079
   74.1950000000000        -3.236215645917754E-079
   74.3850000000000        -1.921973588930039E-079
   74.5750000000000         4.762872822532885E-080
   74.7650000000000         4.185232789118205E-079
   74.9550000000000         9.343714336569763E-079
   75.1450000000000         1.592981832260368E-078
   75.3350000000000         2.367334135902634E-078
   75.5250000000000         3.195997453525305E-078
   75.7150000000000         3.973833491752063E-078
   75.9050000000000         4.544668418154009E-078
   76.0950000000000         4.698225234306821E-078
   76.2850000000000         4.174175242517960E-078
   76.4750000000000         2.676578498415655E-078
   76.6650000000000        -9.791190949057535E-080
   76.8550000000000        -4.415090684958176E-078
   77.0450000000000        -1.043956890811372E-077
   77.2350000000000        -1.815251450610395E-077
   77.4250000000000        -2.725381887681183E-077
   77.6150000000000        -3.705588165701731E-077
   77.8050000000000        -4.638141222257787E-077
   77.9950000000000        -5.348366280896144E-077
   78.1850000000000        -5.601381073859486E-077
   78.3750000000000        -5.106595325659783E-077
   78.5650000000000        -3.533417191419534E-077
   78.7550000000000        -5.416819425821603E-078
   78.9450000000000         4.170125254859179E-077
   79.1350000000000         1.079693558025858E-076
   79.3250000000000         1.933959205744786E-076
   79.5150000000000         2.950102330795824E-076
   79.7050000000000         4.057356913912950E-076
   79.8950000000000         5.133019772945390E-076
   80.0850000000000         5.993839039668563E-076
   80.2750000000000         6.392174890757272E-076
   80.4650000000000         6.020007008242819E-076
   80.6550000000000         4.524256921089062E-076
   80.8450000000000         1.536963086190814E-076
   81.0350000000000        -3.276582436722029E-076
   81.2250000000000        -1.014974221388959E-075
   81.4150000000000        -1.912647370201704E-075
   81.6050000000000        -2.995627389266399E-075
   81.7950000000000        -4.197914988553606E-075
   81.9850000000000        -5.401268152658273E-075
   82.1750000000000        -6.425903277182020E-075
   82.3650000000000        -7.025582261978160E-075
   82.5550000000000        -6.890032593926073E-075
   82.7450000000000        -5.658048088799004E-075
   82.9350000000000        -2.944728233682800E-075
   83.1250000000000         1.614024890728478E-075
   83.3150000000000         8.297592596051577E-075
   83.5050000000000         1.721689396285728E-074
   83.6950000000000         2.821305672854505E-074
   83.8850000000000         4.074439765169752E-074
   84.0750000000000         5.377218788383265E-074
   84.2650000000000         6.566099993105242E-074
   84.4550000000000         7.411509289631066E-074
   84.6450000000000         7.617765353475580E-074
   84.8350000000000         6.832387160843586E-074
   85.0250000000000         4.668062843137618E-074
   85.2150000000000         7.403636156724970E-075
   85.4050000000000        -5.276433093696952E-074
   85.5950000000000        -1.357444204395216E-073
   85.7850000000000        -2.411941761071667E-073
   85.9750000000000        -3.654445190851168E-073
   86.1650000000000        -5.003836683340035E-073
   86.3550000000000        -6.324171849174210E-073
   86.5450000000000        -7.416844481122309E-073
   86.7350000000000        -8.017624219786851E-073
   86.9250000000000        -7.801303860169931E-073
   87.1150000000000        -6.396949474312324E-073
   87.3050000000000        -3.416716462076160E-073
   87.4950000000000         1.499251083075356E-073
   87.6850000000000         8.620314475475254E-073
   87.8750000000000         1.804536769952889E-072
   88.0650000000000         2.960795525998485E-072
   88.2550000000000         4.277223544119821E-072
   88.4450000000000         5.652945333698804E-072
   88.6350000000000         6.930901689546853E-072
   88.8250000000000         7.892286809454708E-072
   89.0150000000000         8.256607958630131E-072
   89.2050000000000         7.689976072992159E-072
   89.3950000000000         5.824351632922488E-072
   89.5850000000000         2.290280700396726E-072
   89.7750000000000        -3.234952681552123E-072
   89.9650000000000        -1.096296999410098E-071
   90.1550000000000        -2.091470945038724E-071
   90.3450000000000        -3.282900893561451E-071
   90.5350000000000        -4.606585723855076E-071
   90.7250000000000        -5.951445956767349E-071
   90.9150000000000        -7.152024812996818E-071
   91.1050000000000        -7.984892495169112E-071
   91.2950000000000        -8.170902983440541E-071
   91.4850000000000        -7.385669718206027E-071
   91.6750000000000        -5.280637128400731E-071
   91.8650000000000        -1.516835605233952E-071
   92.0550000000000         4.187278332242552E-071
   92.2450000000000         1.199366599766066E-070
   92.4350000000000         2.186972634718402E-070
   92.6250000000000         3.350428230130690E-070
   92.8150000000000         4.622116277744646E-070
   93.0050000000000         5.890026611013767E-070
   93.1950000000000         6.991943685816713E-070
   93.3850000000000         7.713377189430420E-070
   93.5750000000000         7.791160694561588E-070
   93.7650000000000         6.924780420610944E-070
   93.9550000000000         4.797433784304080E-070
   94.1450000000000         1.108476318277502E-070
   94.3350000000000        -4.381783237265854E-070
   94.5250000000000        -1.179510467221722E-069
   94.7150000000000        -2.106791531441650E-069
   94.9050000000000        -3.187731775276142E-069
   95.0950000000000        -4.356683179216943E-069
   95.2850000000000        -5.508098514939812E-069
   95.4750000000000        -6.492073096090660E-069
   95.6650000000000        -7.113428364906095E-069
   95.8550000000000        -7.135989490634795E-069
   96.0450000000000        -6.293780440124628E-069
   96.2350000000000        -4.310748371632154E-069
   96.4250000000000        -9.302701165105272E-070
   96.6150000000000         4.044974470486105E-069
   96.8050000000000         1.070320365180693E-068
   96.9950000000000         1.896566088978306E-068
   97.1850000000000         2.852430253107843E-068
   97.3750000000000         3.878077544525253E-068
   97.5650000000000         4.879469389319006E-068
   97.7550000000000         5.725148758006064E-068
   97.9450000000000         6.246205258719518E-068
   98.1350000000000         6.240772517494062E-068
   98.3250000000000         5.484427486230808E-068
   98.5150000000000         3.747718967748274E-068
   98.7050000000000         8.217007784789696E-069
   98.8950000000000        -3.448260854595450E-068
   99.0850000000000        -9.121027605089505E-068
   99.2750000000000        -1.611238617942685E-067
   99.4650000000000        -2.414517200567332E-067
   99.6550000000000        -3.270175849370908E-067
   99.8450000000000        -4.098561181643255E-067
   100.035000000000        -4.790028745163527E-067
   100.225000000000        -5.205559806546110E-067
   100.415000000000        -5.181141621667678E-067
   100.605000000000        -4.536934763608994E-067
   100.795000000000        -3.092095680145729E-067
   100.985000000000        -6.857994313267495E-068
   101.175000000000         2.795512586383230E-067
   101.365000000000         7.385369219533838E-067
   101.555000000000         1.300064581036993E-066
   101.745000000000         1.940386520166441E-066
   101.935000000000         2.616846005144934E-066
   102.125000000000         3.265230500781184E-066
   102.315000000000         3.798597569982827E-066
   102.505000000000         4.108302975361686E-066
   102.695000000000         4.067990977460845E-066
   102.885000000000         3.541259162195594E-066
   103.075000000000         2.393559119337028E-066
   103.265000000000         5.086171420765022E-067
   103.455000000000        -2.190760866568911E-066
   103.645000000000        -5.718205126265631E-066
   103.835000000000        -9.997032194881022E-066
   104.025000000000        -1.483346324916159E-065
   104.215000000000        -1.989292080208832E-065
   104.405000000000        -2.468336686497871E-065
   104.595000000000        -2.855036437986216E-065
   104.785000000000        -3.068899269590118E-065
   104.975000000000        -3.017777051371136E-065
   105.165000000000        -2.603916996994721E-065
   105.355000000000        -1.732998350982633E-065
   105.545000000000        -3.262598436288681E-066
   105.735000000000         1.664493659822043E-065
   105.925000000000         4.239629980400809E-065
   106.115000000000         7.333296010175892E-065
   106.305000000000         1.079556961612838E-064
   106.495000000000         1.437740691844928E-064
   106.685000000000         1.772116264634883E-064
   106.875000000000         2.035986771186210E-064
   107.065000000000         2.172864113367391E-064
   107.255000000000         2.119149152815663E-064
   107.445000000000         1.808622394814085E-064
   107.635000000000         1.178911854441318E-064
   107.825000000000         1.799420665195592E-065
   108.015000000000        -1.215854866131003E-064
   108.205000000000        -3.002065416696466E-064
   108.395000000000        -5.126383340321981E-064
   108.585000000000        -7.479438176920750E-064
   108.775000000000        -9.885887835861088E-064
   108.965000000000        -1.209960079096815E-063
   109.155000000000        -1.380495833434887E-063
   109.345000000000        -1.462635823110936E-063
   109.535000000000        -1.414783707672890E-063
   109.725000000000        -1.194429132257418E-063
   109.915000000000        -7.625017967035234E-064
   110.105000000000        -8.891859686510869E-065