  -1.42500000000000         0.000000000000000E+000
  -1.23500000000000         0.000000000000000E+000
  -1.04500000000000         0.000000000000000E+000
 -0.855000000000000         0.000000000000000E+000
 -0.665000000000000         0.000000000000000E+000
 -0.475000000000000         0.000000000000000E+000
 -0.285000000000000         0.000000000000000E+000
 -9.499999999999975E-002    0.000000000000000E+000
  9.500000000000020E-002    0.000000000000000E+000
  0.285000000000000         0.000000000000000E+000
  0.475000000000000         0.000000000000000E+000
  0.665000000000000         0.000000000000000E+000
  0.855000000000000         0.000000000000000E+000
   1.04500000000000         0.000000000000000E+000
   1.23500000000000         0.000000000000000E+000
   1.42500000000000         0.000000000000000E+000
   1.61500000000000         0.000000000000000E+000
   1.80500000000000         0.000000000000000E+000
   1.99500000000000         0.000000000000000E+000
   2.18500000000000         0.000000000000000E+000
   2.37500000000000         0.000000000000000E+000
   2.56500000000000         0.000000000000000E+000
   2.75500000000000         0.000000000000000E+000
   2.94500000000000         0.000000000000000E+000
   3.13500000000000         0.000000000000000E+000
   3.32500000000000         0.000000000000000E+000
   3.51500000000000         0.000000000000000E+000
   3.70500000000000         0.000000000000000E+000
   3.89500000000000         0.000000000000000E+000
   4.08500000000000         0.000000000000000E+000
   4.27500000000000         0.000000000000000E+000
   4.46500000000000         0.000000000000000E+000
   4.65500000000000         0.000000000000000E+000
   4.84500000000000         0.000000000000000E+000
   5.03500000000000         0.000000000000000E+000
   5.22500000000000         0.000000000000000E+000
   5.41500000000000         0.000000000000000E+000
   5.60500000000000         0.000000000000000E+000
   5.79500000000000         0.000000000000000E+000
   5.98500000000000         0.000000000000000E+000
   6.17500000000000         0.000000000000000E+000
   6.36500000000000         0.000000000000000E+000
   6.55500000000000         0.000000000000000E+000
   6.74500000000000        -3.186082805472929E-178
   6.93500000000000         4.788185610306635E-172
   7.12500000000000         1.741746184103507E-170
   7.31500000000000         2.145574633868026E-169
   7.50500000000000         6.533516208079112E-168
   7.69500000000000         5.292527416296876E-166
   7.88500000000000         2.321683209659673E-164
   8.07500000000000         6.567504949427717E-163
   8.26500000000000         1.376924576134306E-161
   8.45500000000000         2.306906707198862E-160
   8.64500000000000         3.231452595321225E-159
   8.83500000000000         3.899034790816714E-158
   9.02500000000000         4.138396691688739E-157
   9.21500000000000         3.924363930815011E-156
   9.40500000000000         3.364564225653696E-155
   9.59500000000000         2.632392341286443E-154
   9.78500000000000         1.893401119464645E-153
   9.97500000000000         1.259404196768622E-152
   10.1650000000000         7.783026250890100E-152
   10.3550000000000         4.485015733898703E-151
   10.5450000000000         2.416328113973562E-150
   10.7350000000000         1.219085855641161E-149
   10.9250000000000         5.762558842128006E-149
   11.1150000000000         2.549634021329058E-148
   11.3050000000000         1.052586645133200E-147
   11.4950000000000         4.027093985627668E-147
   11.6850000000000         1.407892549164545E-146
   11.8750000000000         4.359736656195027E-146
   12.0650000000000         1.098968323409751E-145
   12.2550000000000         1.517738045018936E-145
   12.4450000000000        -5.632200939228447E-145
   12.6350000000000        -6.672108277129912E-144
   12.8250000000000        -4.238231395725795E-143
   13.0150000000000        -2.224159891662083E-142
   13.2050000000000        -1.059545220981159E-141
   13.3950000000000        -4.755931317253237E-141
   13.5850000000000        -2.048312370736304E-140
   13.7750000000000        -8.543225880628841E-140
   13.9650000000000        -3.465770111982910E-139
   14.1550000000000        -1.369542938830157E-138
   14.3450000000000        -5.271178850964011E-138
   14.5350000000000        -1.974361685647529E-137
   14.7250000000000        -7.188821113928742E-137
   14.9150000000000        -2.541794938874652E-136
   15.1050000000000        -8.719280293471203E-136
   15.2950000000000        -2.899727065908418E-135
   15.4850000000000        -9.343447842871818E-135
   15.6750000000000        -2.915404024050335E-134
   15.8650000000000        -8.804345825698322E-134
   16.0550000000000        -2.571735054612069E-133
   16.2450000000000        -7.259778537446390E-133
   16.4350000000000        -1.978245759442243E-132
   16.6250000000000        -5.194692144401712E-132
   16.8150000000000        -1.311194407721502E-131
   17.0050000000000        -3.169058911459576E-131
   17.1950000000000        -7.289481565465843E-131
   17.3850000000000        -1.579444200540742E-130
   17.5750000000000        -3.163324741661942E-130
   17.7650000000000        -5.625041234702468E-130
   17.9550000000000        -7.934190080415392E-130
   18.1450000000000        -4.476958150904847E-130
   18.3350000000000         2.488070152070300E-129
   18.5250000000000         1.414317324353463E-128
   18.7150000000000         5.147773084220333E-128
   18.9050000000000         1.583941696820437E-127
   19.0950000000000         4.428085636002546E-127
   19.2850000000000         1.158854599795479E-126
   19.4750000000000         2.883157313161926E-126
   19.6650000000000         6.881252156924033E-126
   19.8550000000000         1.584717441426004E-125
   20.0450000000000         3.535440917572760E-125
   20.2350000000000         7.662319276120769E-125
   20.4250000000000         1.616474107415919E-124
   20.6150000000000         3.323999792797882E-124
   20.8050000000000         6.667748252687513E-124
   20.9950000000000         1.304972897049339E-123
   21.1850000000000         2.490496513501364E-123
   21.3750000000000         4.627633197689317E-123
   21.5650000000000         8.346646627669399E-123
   21.7550000000000         1.453525893519367E-122
   21.9450000000000         2.420958008051892E-122
   22.1350000000000         3.789278533789700E-122
   22.3250000000000         5.370747553160804E-122
   22.5150000000000         6.239262985212961E-122
   22.7050000000000         3.540079001301458E-122
   22.8950000000000        -1.018571696372213E-121
   23.0850000000000        -5.273940742527203E-121
   23.2750000000000        -1.640929832222779E-120
   23.4650000000000        -4.299152894211472E-120
   23.6550000000000        -1.026806026184299E-119
   23.8450000000000        -2.306403579864897E-119
   24.0350000000000        -4.946488012203040E-119
   24.2250000000000        -1.021265628189973E-118
   24.4150000000000        -2.039328787396295E-118
   24.6050000000000        -3.948846048639371E-118
   24.7950000000000        -7.423620815022546E-118
   24.9850000000000        -1.355146139782916E-117
   25.1750000000000        -2.399988434839111E-117
   25.3650000000000        -4.115511542417169E-117
   25.5550000000000        -6.809524759371083E-117
   25.7450000000000        -1.080865882365342E-116
   25.9350000000000        -1.629754540746164E-116
   26.1250000000000        -2.292974971397697E-116
   26.3150000000000        -2.900239811897236E-116
   26.5050000000000        -2.984697076274510E-116
   26.6950000000000        -1.488786815359306E-116
   26.8850000000000         3.744293930846655E-116
   27.0750000000000         1.680432177947532E-115
   27.2650000000000         4.500714607020896E-115
   27.4550000000000         1.007760791530151E-114
   27.6450000000000         2.041616781219723E-114
   27.8350000000000         3.858155049080561E-114
   28.0250000000000         6.897041416275806E-114
   28.2150000000000         1.173805598873225E-113
   28.4050000000000         1.905147026434182E-113
   28.5950000000000         2.942380720727648E-113
   28.7850000000000         4.294124102134395E-113
   28.9750000000000         5.833987600951681E-113
   29.1650000000000         7.143315820085811E-113
   29.3550000000000         7.240650574502237E-113
   29.5450000000000         4.144889560843053E-113
   29.7350000000000        -5.787780620395834E-113
   29.9250000000000        -2.880446024826388E-112
   30.1150000000000        -7.498205998715551E-112
   30.3050000000000        -1.596403541930374E-111
   30.4950000000000        -3.046221295737739E-111
   30.6850000000000        -5.387219682047338E-111
   30.8750000000000        -8.958805249875713E-111
   31.0650000000000        -1.408731877673712E-110
   31.2550000000000        -2.093608330855323E-110
   31.4450000000000        -2.921136810369549E-110
   31.6350000000000        -3.764211457315646E-110
   31.8250000000000        -4.312786057330782E-110
   32.0150000000000        -3.943475270048183E-110
   32.2050000000000        -1.533043632840349E-110
   32.3950000000000         4.788700174461990E-110
   32.5850000000000         1.793495267997887E-109
   32.7750000000000         4.216321224140429E-109
   32.9650000000000         8.328202673557593E-109
   33.1550000000000         1.485737261547930E-108
   33.3450000000000         2.461112378009390E-108
   33.5350000000000         3.829665779481784E-108
   33.7250000000000         5.615850561467897E-108
   33.9150000000000         7.733583102175096E-108
   34.1050000000000         9.882327119058091E-108
   34.2950000000000         1.139155952250268E-107
   34.4850000000000         1.100494572494908E-107
   34.6750000000000         6.605591167074834E-108
   34.8650000000000        -5.095074481134016E-108
   35.0550000000000        -2.884414190080869E-107
   35.2450000000000        -7.098750262566094E-107
   35.4350000000000        -1.392495726378378E-106
   35.6250000000000        -2.418128166226141E-106
   35.8150000000000        -3.852006675930658E-106
   36.0050000000000        -5.702957730484268E-106
   36.1950000000000        -7.856782096475786E-106
   36.3850000000000        -9.974207139447459E-106
   36.5750000000000        -1.134657171033730E-105
   36.7650000000000        -1.070841874545899E-105
   36.9550000000000        -6.019164641680869E-106
   37.1450000000000         5.750438846009294E-106
   37.3350000000000         2.875310706401573E-105
   37.5250000000000         6.819026991298306E-105
   37.7150000000000         1.298190667791179E-104
   37.9050000000000         2.187353128461301E-104
   38.0950000000000         3.370203341143041E-104
   38.2850000000000         4.797478623391120E-104
   38.4750000000000         6.288154950297618E-104
   38.6650000000000         7.441695293676096E-104
   38.8550000000000         7.523479272330828E-104
   39.0450000000000         5.330354579150898E-104
   39.2350000000000        -9.428598044377602E-105
   39.4250000000000        -1.379266395996046E-103
   39.6150000000000        -3.637557508872315E-103
   39.8050000000000        -7.223486820045329E-103
   39.9950000000000        -1.246085158191616E-102
   40.1850000000000        -1.950815749744045E-102
   40.3750000000000        -2.812958404599360E-102
   40.5650000000000        -3.734143446520294E-102
   40.7550000000000        -4.491002207418490E-102
   40.9450000000000        -4.669709397334467E-102
   41.1350000000000        -3.589149240406656E-102
   41.3250000000000        -2.241307294805396E-103
   41.5150000000000         6.847931013728770E-102
   41.7050000000000         1.943604099631387E-101
   41.8950000000000         3.959633863598858E-101
   42.0850000000000         6.927248277138915E-101
   42.2750000000000         1.095942789941473E-100
   42.4650000000000         1.596895169254299E-100
   42.6550000000000         2.148589442073868E-100
   42.8450000000000         2.639979001499975E-100
   43.0350000000000         2.862491808704039E-100
   43.2250000000000         2.470780833225040E-100
   43.4150000000000         9.431727175044259E-101
   43.6050000000000        -2.447175510967968E-100
   43.7950000000000        -8.631542277420890E-100
   43.9850000000000        -1.868621691918053E-099
   44.1750000000000        -3.367319092735739E-099
   44.3650000000000        -5.432742380586134E-099
   44.5550000000000        -8.052765710274546E-099
   44.7450000000000        -1.104864196926090E-098
   44.9350000000000        -1.396097351130102E-098
   45.1250000000000        -1.590192942787041E-098
   45.3150000000000        -1.538137454359192E-098
   45.5050000000000        -1.012876425749029E-098
   45.6950000000000         3.045739238369177E-099
   45.8850000000000         2.827731125145352E-098
   46.0750000000000         7.044735401212116E-098
   46.2650000000000         1.346019268472664E-097
   46.4550000000000         2.247849879293016E-097
   46.6450000000000         3.420490372360092E-097
   46.8350000000000         4.814001859722088E-097
   47.0250000000000         6.274855027436030E-097
   47.2150000000000         7.489748550046457E-097
   47.4050000000000         7.918738138972353E-097
   47.5950000000000         6.724808786122195E-097
   47.7850000000000         2.714219249471891E-097
   47.9750000000000        -5.688074225050035E-097
   48.1650000000000        -2.039086634674586E-096
   48.3550000000000        -4.346516460625455E-096
   48.5450000000000        -7.678170313397976E-096
   48.7350000000000        -1.213784944580925E-095
   48.9250000000000        -1.764758298543400E-095
   49.1150000000000        -2.380690180441203E-095
   49.3050000000000        -2.970692658960713E-095
   49.4950000000000        -3.370438602183039E-095
   49.6850000000000        -3.317433227751259E-095
   49.8750000000000        -2.428102692954215E-095
   50.0650000000000        -1.835317606955582E-096
   50.2550000000000         4.065604801315650E-095
   50.4450000000000         1.105999196927836E-094
   50.6350000000000         2.153896864379890E-094
   50.8250000000000         3.607062337773823E-094
   51.0150000000000         5.477911735617173E-094
   51.2050000000000         7.694562763852842E-094
   51.3950000000000         1.004680251427721E-093
   51.5850000000000         1.211833462717418E-093
   51.7750000000000         1.320902857263139E-093
   51.9650000000000         1.225604363970863E-093
   52.1550000000000         7.770026678492877E-094
   52.3450000000000        -2.187759377889743E-094
   52.5350000000000        -1.994973853121129E-093
   52.7250000000000        -4.805702066643825E-093
   52.9150000000000        -8.888163495605776E-093
   53.1050000000000        -1.439830820321879E-092
   53.2950000000000        -2.131245473688934E-092
   53.4850000000000        -2.928863462356997E-092
   53.6750000000000        -3.748485704285375E-092
   53.8650000000000        -4.433814740189812E-092
   54.0550000000000        -4.731920511042769E-092
   54.2450000000000        -4.269396084831052E-092
   54.4350000000000        -2.534606946479725E-092
   54.6250000000000         1.125624475853990E-092
   54.8150000000000         7.483032729000836E-092
   55.0050000000000         1.736289173464669E-091
   55.1950000000000         3.151753439711112E-091
   55.3850000000000         5.041628997362861E-091
   55.5750000000000         7.392934662917401E-091
   55.7650000000000         1.008868339309294E-090
   55.9550000000000         1.285048148290580E-090
   56.1450000000000         1.516899125988434E-090
   56.3350000000000         1.622674529604002E-090
   56.5250000000000         1.482278530078660E-090
   56.7150000000000         9.315557826427561E-091
   56.9050000000000        -2.390421183581070E-091
   57.0950000000000        -2.277758404512489E-090
   57.2850000000000        -5.451915638907489E-090
   57.4750000000000        -1.000928880642458E-089
   57.6650000000000        -1.611344786173307E-089
   57.8550000000000        -2.374581996289875E-089
   58.0450000000000        -3.256827792342770E-089
   58.2350000000000        -4.174320047355938E-089
   58.4250000000000        -4.971416550391737E-089
   58.6150000000000        -5.396086942713435E-089
   58.8050000000000        -5.075767510923257E-089
   58.9950000000000        -3.498732999303064E-089
   59.1850000000000        -9.024120204988970E-092
   59.3750000000000         6.173549073558907E-089
   59.5650000000000         1.589298628235353E-088
   59.7550000000000         2.993728495093697E-088
   59.9450000000000         4.883772441242230E-088
   60.1350000000000         7.256566272949204E-088
   60.3250000000000         1.001095836271181E-087
   60.5150000000000         1.289263288828145E-087
   60.7050000000000         1.542814810241567E-087
   60.8950000000000         1.685278799201408E-087
   61.0850000000000         1.604211148602937E-087
   61.2750000000000         1.146382401853528E-087
   61.4650000000000         1.175026615984207E-088
   61.6550000000000        -1.710044704158831E-087
   61.8450000000000        -4.577008100390601E-087
   62.0350000000000        -8.699350981764990E-087
   62.2250000000000        -1.420701195130488E-086
   62.4150000000000        -2.105428098689450E-086
   62.6050000000000        -2.889869170492054E-086
   62.7950000000000        -3.694935178060005E-086
   62.9850000000000        -4.379240654085891E-086
   63.1750000000000        -4.721148473433671E-086
   63.3650000000000        -4.403491264352348E-086
   63.5550000000000        -3.005913315004677E-086
   63.7450000000000        -1.182680868056507E-088
   63.9350000000000         5.160892440377460E-086
   64.1250000000000         1.309449566911148E-085
   64.3150000000000         2.425926005903735E-085
   64.5050000000000         3.884334612084532E-085
   64.6950000000000         5.651653879509404E-085
   64.8850000000000         7.612691528504991E-085
   65.0750000000000         9.534171353498158E-085
   65.2650000000000         1.102621670136735E-084
   65.4550000000000         1.150675448025366E-084
   65.6450000000000         1.017759592342278E-084
   65.8350000000000         6.024714803873289E-085
   66.0250000000000        -2.140815805802095E-085
   66.2150000000000        -1.558127726823766E-084
   66.4050000000000        -3.544811542091758E-084
   66.5950000000000        -6.249371775715364E-084
   66.7850000000000        -9.666281948332168E-084
   66.9750000000000        -1.365586083852873E-083
   67.1650000000000        -1.787984034066189E-083
   67.3550000000000        -2.173037906294195E-083
   67.5450000000000        -2.426114067484186E-083
   67.7350000000000        -2.413428914016769E-083
   67.9250000000000        -1.960334329173337E-083
   68.1150000000000        -8.558224866674085E-084
   68.3050000000000         1.133543307926802E-083
   68.4950000000000         4.236702000848948E-083
   68.6850000000000         8.634646602323221E-083
   68.8750000000000         1.439762591721926E-082
   69.0650000000000         2.140180097017577E-082
   69.2550000000000         2.922702131580232E-082
   69.4450000000000         3.704172748370901E-082
   69.6350000000000         4.348695626068054E-082
   69.8250000000000         4.657898038108110E-082
   70.0150000000000         4.365890664135495E-082
   70.2050000000000         3.142681795067739E-082
   70.3950000000000         6.106467523946561E-083
   70.5850000000000        -3.620782384406152E-082
   70.7750000000000        -9.897016870847535E-082
   70.9650000000000        -1.843244988029598E-081
   71.1550000000000        -2.919455171532171E-081
   71.3450000000000        -4.175931501215350E-081
   71.5350000000000        -5.514504765368781E-081
   71.7250000000000        -6.763923303403603E-081
   71.9150000000000        -7.664296211631827E-081
   72.1050000000000        -7.856886260721002E-081
   72.2950000000000        -6.884056884740918E-081
   72.4850000000000        -4.205300734992268E-081
   72.6750000000000         7.639215105369570E-082
   72.8650000000000         8.583635902597365E-081
   73.0550000000000         1.968505693290566E-080
   73.2450000000000         3.422678884900660E-080
   73.4350000000000         5.191196768608735E-080
   73.6250000000000         7.177324284280576E-080
   73.8150000000000         9.194145177733187E-080
   74.0050000000000         1.094252503943749E-079
   74.1950000000000         1.199423727457079E-079
   74.3850000000000         1.178575969622610E-079
   74.5750000000000         9.629618307671249E-080
   74.7650000000000         4.751201466029932E-080
   74.9550000000000        -3.640642352929708E-080
   75.1450000000000        -1.624158680259634E-079
   75.3350000000000        -3.349296013501096E-079
   75.5250000000000        -5.537480668768075E-079
   75.7150000000000        -8.115628137394242E-079
   75.9050000000000        -1.091180875801922E-078
   76.0950000000000        -1.362736544951161E-078
   76.2850000000000        -1.581300105037388E-078
   76.4750000000000        -1.685448948735276E-078
   76.6650000000000        -1.597519305540432E-078
   76.8550000000000        -1.226382462161608E-078
   77.0450000000000        -4.736556007782995E-079
   77.2350000000000         7.557755198764331E-079
   77.4250000000000         2.538221982447368E-078
   77.6150000000000         4.910313213395597E-078
   77.8050000000000         7.843043575150455E-078
   77.9950000000000         1.121187639264386E-077
   78.1850000000000         1.476516963438693E-077
   78.3750000000000         1.809455894326169E-077
   78.5650000000000         2.061246794827383E-077
   78.7550000000000         2.154347603398998E-077
   78.9450000000000         1.993765409075426E-077
   79.1350000000000         1.471490024427239E-077
   79.3250000000000         4.749422557521609E-078
   79.5150000000000        -1.099757608916578E-077
   79.7050000000000        -3.329167678263854E-077
   79.8950000000000        -6.238490036627085E-077
   80.0850000000000        -9.772773382571618E-077
   80.2750000000000        -1.376495663752389E-076
   80.4650000000000        -1.790354470561749E-076
   80.6550000000000        -2.170407631188101E-076
   80.8450000000000        -2.448999537436046E-076
   81.0350000000000        -2.538991737791619E-076
   81.2250000000000        -2.335937637807986E-076
   81.4150000000000        -1.723567367984155E-076
   81.6050000000000        -5.834104181216582E-077
   81.7950000000000         1.190773950125733E-076
   81.9850000000000         3.673403811354141E-076
   82.1750000000000         6.882467194648240E-076
   82.3650000000000         1.075075703905647E-075
   82.5550000000000         1.509472115349466E-075
   82.7450000000000         1.958379791288643E-075
   82.9350000000000         2.371433054664383E-075
   83.1250000000000         2.679340066269722E-075
   83.3150000000000         2.793905173562452E-075
   83.5050000000000         2.610419613114825E-075
   83.6950000000000         2.013178299700603E-075
   83.8850000000000         8.848285370976818E-076
   84.0750000000000        -8.799033826109573E-076
   84.2650000000000        -3.355855847271550E-075
   84.4550000000000        -6.564643597405382E-075
   84.6450000000000        -1.044825177627907E-074
   84.8350000000000        -1.484060721318091E-074
   85.0250000000000        -1.943964257635551E-074
   85.2150000000000        -2.378338083130402E-074
   85.4050000000000        -2.723459066734581E-074
   85.5950000000000        -2.897948533306417E-074
   85.7850000000000        -2.804661104138990E-074
   85.9750000000000        -2.335231950186176E-074
   86.1650000000000        -1.377884185043828E-074
   86.3550000000000         1.710232270827570E-075
   86.5450000000000         2.391451834389067E-074
   86.7350000000000         5.320234899156507E-074
   86.9250000000000         8.928290747188572E-074
   87.1150000000000         1.309567355288940E-073
   87.3050000000000         1.758636237880449E-073
   87.4950000000000         2.202550078199347E-073
   87.6850000000000         2.588264365564126E-073
   87.8750000000000         2.846536778580170E-073
   88.0650000000000         2.892825474099345E-073
   88.2550000000000         2.630263094093223E-073
   88.4450000000000         1.955240007437003E-073
   88.6350000000000         7.660662484640071E-074
   88.8250000000000        -1.024958434806062E-073
   89.0150000000000        -3.475968817541527E-073
   89.2050000000000        -6.596691261053148E-073
   89.3950000000000        -1.032701948925172E-072
   89.5850000000000        -1.451425168558320E-072
   89.7750000000000        -1.889088379970094E-072
   89.9650000000000        -2.305557257929190E-072
   90.1550000000000        -2.646061891520531E-072
   90.3450000000000        -2.841000830898469E-072
   90.5350000000000        -2.807258827110907E-072
   90.7250000000000        -2.451524679089926E-072
   90.9150000000000        -1.676084553986518E-072
   91.1050000000000        -3.875004856930749E-073
   91.2950000000000         1.491552223501508E-072
   91.4850000000000         4.007236143012520E-072
   91.6750000000000         7.156557319667152E-072
   91.8650000000000         1.086711398247897E-071
   92.0550000000000         1.497580270788017E-071
   92.2450000000000         1.920831248782947E-071
   92.4350000000000         2.316191595602884E-071
   92.6250000000000         2.629476261505012E-071
   92.8150000000000         2.792552414985557E-071
   93.0050000000000         2.724774680917003E-071
   93.1950000000000         2.336351755932394E-071
   93.3850000000000         1.534091620855487E-071
   93.5750000000000         2.299057599800612E-072
   93.7650000000000        -1.647682538157849E-071
   93.9550000000000        -4.138998708259436E-071
   94.1450000000000        -7.235930914424934E-071
   94.3350000000000        -1.086259330209560E-070
   94.5250000000000        -1.485514199044495E-070
   94.7150000000000        -1.894253730819325E-070
   94.9050000000000        -2.273068894062390E-070
   95.0950000000000        -2.569307011549632E-070
   95.2850000000000        -2.717147589210678E-070
   95.4750000000000        -2.639104129086835E-070
   95.6650000000000        -2.249381964567116E-070
   95.8550000000000        -1.459502578952490E-070
   96.0450000000000        -1.865338013789157E-071
   96.2350000000000         1.635870720862334E-070
   96.4250000000000         4.043632304368539E-070
   96.6150000000000         7.025916406596616E-070
   96.8050000000000         1.050700590419897E-069
   96.9950000000000         1.432754600561482E-069
   97.1850000000000         1.822686909557839E-069
   97.3750000000000         2.182868896503094E-069
   97.5650000000000         2.463303139423643E-069
   97.7550000000000         2.601778084023350E-069
   97.9450000000000         2.525359241522741E-069
   98.1350000000000         2.153604937447151E-069
   98.3250000000000         1.403873059231801E-069
   98.5150000000000         1.990173940140317E-070
   98.7050000000000        -1.522353511551748E-069
   98.8950000000000        -3.793075763233823E-069
   99.0850000000000        -6.602377891162360E-069
   99.2750000000000        -9.879214857818543E-069
   99.4650000000000        -1.347504872074395E-068
   99.6550000000000        -1.714762100400270E-068
   99.8450000000000        -2.054778468028573E-068
   100.035000000000        -2.321198749934008E-068
   100.225000000000        -2.456347094948335E-068
   100.415000000000        -2.392560216786843E-068
   100.605000000000        -2.055090565275944E-068
   100.795000000000        -1.366920985232324E-068
   100.985000000000        -2.557762940586058E-069
   101.175000000000         1.336490850174446E-068
   101.365000000000         3.442132881721797E-068
   101.555000000000         6.053593445181523E-068
   101.745000000000         9.107997929070709E-068
   101.935000000000         1.247099100874933E-067
   102.125000000000         1.592132050655632E-067
   102.315000000000         1.913806909544977E-067
   102.505000000000         2.169295002113451E-067
   102.695000000000         2.305056153581289E-067
   102.885000000000         2.257987148969473E-067
   103.075000000000         1.958039537965655E-067
   103.265000000000         1.332643879367643E-067
   103.455000000000         3.132286844797441E-068
   103.645000000000        -1.155977855701363E-067
   103.835000000000        -3.106838042617714E-067
   104.025000000000        -5.534096077878378E-067
   104.215000000000        -8.380591997968417E-067
   104.405000000000        -1.152180789622798E-066
   104.595000000000        -1.475111152275691E-066
   104.785000000000        -1.776756320587972E-066
   104.975000000000        -2.016866266741250E-066
   105.165000000000        -2.145088030387111E-066
   105.355000000000        -2.102117252128738E-066
   105.545000000000        -1.822283468025958E-066
   105.735000000000        -1.237889480156008E-066
   105.925000000000        -2.855683120716628E-067
   106.115000000000         1.085188755208861E-066
   106.305000000000         2.901353066717911E-066
   106.495000000000         5.153792787645107E-066
   106.685000000000         7.783402545550749E-066
   106.875000000000         1.066689686448605E-065
   107.065000000000         1.360367558977783E-065
   107.255000000000         1.630563580170361E-065
   107.445000000000         1.839225580076938E-065
   107.635000000000         1.939365527675522E-065
   107.825000000000         1.876456883710571E-065
   108.015000000000         1.591217117392803E-065
   108.205000000000         1.024036562580937E-065
   108.395000000000         1.212396205223671E-066
   108.585000000000        -1.156762256934332E-065
   108.775000000000        -2.825550990561990E-065
   108.965000000000        -4.865386278288481E-065
   109.155000000000        -7.209167608505492E-065
   109.345000000000        -9.730697318585400E-065
   109.535000000000        -1.223464411650082E-064
   109.725000000000        -1.444997688582134E-064
   109.915000000000        -1.602895970771620E-064
   110.105000000000        -1.655401546757126E-064