  -1.42500000000000         0.000000000000000E+000
  -1.23500000000000         0.000000000000000E+000
  -1.04500000000000         0.000000000000000E+000
 -0.855000000000000         0.000000000000000E+000
 -0.665000000000000         0.000000000000000E+000
 -0.475000000000000         0.000000000000000E+000
 -0.285000000000000         0.000000000000000E+000
 -9.499999999999975E-002    0.000000000000000E+000
  9.500000000000020E-002    0.000000000000000E+000
  0.285000000000000         0.000000000000000E+000
  0.475000000000000         0.000000000000000E+000
  0.665000000000000         0.000000000000000E+000
  0.855000000000000         0.000000000000000E+000
   1.04500000000000         0.000000000000000E+000
   1.23500000000000         0.000000000000000E+000
   1.42500000000000         0.000000000000000E+000
   1.61500000000000         0.000000000000000E+000
   1.80500000000000         0.000000000000000E+000
   1.99500000000000         0.000000000000000E+000
   2.18500000000000         0.000000000000000E+000
   2.37500000000000         0.000000000000000E+000
   2.56500000000000         0.000000000000000E+000
   2.75500000000000         0.000000000000000E+000
   2.94500000000000         0.000000000000000E+000
   3.13500000000000         0.000000000000000E+000
   3.32500000000000         0.000000000000000E+000
   3.51500000000000         0.000000000000000E+000
   3.70500000000000         0.000000000000000E+000
   3.89500000000000         0.000000000000000E+000
   4.08500000000000         0.000000000000000E+000
   4.27500000000000         0.000000000000000E+000
   4.46500000000000         0.000000000000000E+000
   4.65500000000000         0.000000000000000E+000
   4.84500000000000         0.000000000000000E+000
   5.03500000000000         0.000000000000000E+000
   5.22500000000000         0.000000000000000E+000
   5.41500000000000         0.000000000000000E+000
   5.60500000000000         0.000000000000000E+000
   5.79500000000000         0.000000000000000E+000
   5.98500000000000         0.000000000000000E+000
   6.17500000000000         0.000000000000000E+000
   6.36500000000000         0.000000000000000E+000
   6.55500000000000         0.000000000000000E+000
   6.74500000000000         5.704142944243545E-178
   6.93500000000000         2.292665732511554E-173
   7.12500000000000        -1.038340971353531E-170
   7.31500000000000        -6.600196200799097E-169
   7.50500000000000        -2.013513765986885E-167
   7.69500000000000        -4.555007078668038E-166
   7.88500000000000        -1.015070108102533E-164
   8.07500000000000        -2.390231486452143E-163
   8.26500000000000        -5.294682347745340E-162
   8.45500000000000        -1.011894507303197E-160
   8.64500000000000        -1.637991723491542E-159
   8.83500000000000        -2.267954601555733E-158
   9.02500000000000        -2.729551716154410E-157
   9.21500000000000        -2.899832033648681E-156
   9.40500000000000        -2.755363955415560E-155
   9.59500000000000        -2.366958046585891E-154
   9.78500000000000        -1.854307840437745E-153
   9.97500000000000        -1.333883916148601E-152
   10.1650000000000        -8.854927718421982E-152
   10.3550000000000        -5.441466486099682E-151
   10.5450000000000        -3.097115324599213E-150
   10.7350000000000        -1.627564382889868E-149
   10.9250000000000        -7.821135158981283E-149
   11.1150000000000        -3.357982879203557E-148
   11.3050000000000        -1.213439087990842E-147
   11.4950000000000        -2.968036366242903E-147
   11.6850000000000         3.072250947340880E-147
   11.8750000000000         1.080131932396200E-145
   12.0650000000000         9.716260162516483E-145
   12.2550000000000         6.646920593381878E-144
   12.4450000000000         3.956477126927302E-143
   12.6350000000000         2.144920559430288E-142
   12.8250000000000         1.081620056183336E-141
   13.0150000000000         5.131707015010827E-141
   13.2050000000000         2.306510463678886E-140
   13.3950000000000         9.864420024685689E-140
   13.5850000000000         4.026122834809369E-139
   13.7750000000000         1.571277219259036E-138
   13.9650000000000         5.870837157693415E-138
   14.1550000000000         2.101275499820808E-137
   14.3450000000000         7.204053014138893E-137
   14.5350000000000         2.363910747831063E-136
   14.7250000000000         7.410765405008883E-136
   14.9150000000000         2.212348051120563E-135
   15.1050000000000         6.253825669639028E-135
   15.2950000000000         1.657328765597067E-134
   15.4850000000000         4.040650298510521E-134
   15.6750000000000         8.699762282074619E-134
   15.8650000000000         1.472302509300133E-133
   16.0550000000000         9.295833958239411E-134
   16.2450000000000        -7.138792567249815E-133
   16.4350000000000        -4.763484206173111E-132
   16.6250000000000        -2.065032870421723E-131
   16.8150000000000        -7.575466978730720E-131
   17.0050000000000        -2.522543109034872E-130
   17.1950000000000        -7.851859252285979E-130
   17.3850000000000        -2.319720405754156E-129
   17.5750000000000        -6.563722344136159E-129
   17.7650000000000        -1.789197663696340E-128
   17.9550000000000        -4.717612305046699E-128
   18.1450000000000        -1.206783859354673E-127
   18.3350000000000        -3.001660395315960E-127
   18.5250000000000        -7.272659113263747E-127
   18.7150000000000        -1.718912786127151E-126
   18.9050000000000        -3.967948693764739E-126
   19.0950000000000        -8.955102718578670E-126
   19.2850000000000        -1.977613108065389E-125
   19.4750000000000        -4.276548907559440E-125
   19.6650000000000        -9.061191249095370E-125
   19.8550000000000        -1.881980598779584E-124
   20.0450000000000        -3.832762832914419E-124
   20.2350000000000        -7.654550806177363E-124
   20.4250000000000        -1.498903171178960E-123
   20.6150000000000        -2.876502842490323E-123
   20.8050000000000        -5.404919959400309E-123
   20.9950000000000        -9.928179230295962E-123
   21.1850000000000        -1.778409902282838E-122
   21.3750000000000        -3.094544976042673E-122
   21.5650000000000        -5.198733413692579E-122
   21.7550000000000        -8.346519298674085E-122
   21.9450000000000        -1.257306494658589E-121
   22.1350000000000        -1.710703425486460E-121
   22.3250000000000        -1.898217397822074E-121
   22.5150000000000        -9.995219760614663E-122
   22.7050000000000         2.958556631489692E-121
   22.8950000000000         1.434238060466712E-120
   23.0850000000000         4.225331717515565E-120
   23.2750000000000         1.047677572500502E-119
   23.4650000000000         2.362887349058692E-119
   23.6550000000000         4.996983613217280E-119
   23.8450000000000         1.005337275745261E-118
   24.0350000000000         1.938519944991199E-118
   24.2250000000000         3.595180714250737E-118
   24.4150000000000         6.419039934768701E-118
   24.6050000000000         1.101909192351478E-117
   24.7950000000000         1.811570186189183E-117
   24.9850000000000         2.830462780607317E-117
   25.1750000000000         4.142124849080225E-117
   25.3650000000000         5.510349884913892E-117
   25.5550000000000         6.185305094605424E-117
   25.7450000000000         4.343502742361106E-117
   25.9350000000000        -3.920319835710349E-117
   26.1250000000000        -2.631810682087173E-116
   26.3150000000000        -7.717813052739766E-116
   26.5050000000000        -1.817913534166400E-115
   26.6950000000000        -3.827503207904583E-115
   26.8850000000000        -7.485299979907793E-115
   27.0750000000000        -1.383907351113941E-114
   27.2650000000000        -2.440321117663821E-114
   27.4550000000000        -4.121313317369287E-114
   27.6450000000000        -6.672861265011205E-114
   27.8350000000000        -1.033948191540585E-113
   28.0250000000000        -1.525300472346801E-113
   28.2150000000000        -2.120042861102902E-113
   28.4050000000000        -2.718953817625947E-113
   28.5950000000000        -3.069712335864098E-113
   28.7850000000000        -2.645004676483944E-113
   28.9750000000000        -4.567080415814544E-114
   29.1650000000000         5.209451423409045E-113
   29.3550000000000         1.714428081691051E-112
   29.5450000000000         3.962990020342690E-112
   29.7350000000000         7.884456636554998E-112
   29.9250000000000         1.430858260676959E-111
   30.1150000000000         2.424786759318375E-111
   30.3050000000000         3.875863877727682E-111
   30.4950000000000         5.859848279949790E-111
   30.6850000000000         8.353897808955325E-111
   30.8750000000000         1.111367573464260E-110
   31.0650000000000         1.347103587245624E-110
   31.2550000000000         1.402353917073882E-110
   31.4450000000000         1.018940311254195E-110
   31.6350000000000        -2.384019663323767E-111
   31.8250000000000        -3.053385023118262E-110
   32.0150000000000        -8.432131744674943E-110
   32.2050000000000        -1.775767645017000E-109
   32.3950000000000        -3.278318604044811E-109
   32.5850000000000        -5.549318303091633E-109
   32.7750000000000        -8.772308091384069E-109
   32.9650000000000        -1.303797114927002E-108
   33.1550000000000        -1.820551572174627E-108
   33.3450000000000        -2.367866928086142E-108
   33.5350000000000        -2.807124173109336E-108
   33.7250000000000        -2.874474171278541E-108
   33.9150000000000        -2.122229713251131E-108
   34.1050000000000         1.471950814205374E-109
   34.2950000000000         4.941939615413133E-108
   34.4850000000000         1.361041200992987E-107
   34.6750000000000         2.779592838726369E-107
   34.8650000000000         4.924698092618422E-107
   35.0550000000000         7.938285666529592E-107
   35.2450000000000         1.184808502060595E-106
   35.4350000000000         1.643230056197758E-106
   35.6250000000000         2.101314670396219E-106
   35.8150000000000         2.416556915423518E-106
   36.0050000000000         2.333875872321325E-106
   36.1950000000000         1.441217534302320E-106
   36.3850000000000        -8.748880073531298E-107
   36.5750000000000        -5.460319007467557E-106
   36.7650000000000        -1.338702712345502E-105
   36.9550000000000        -2.587122803790064E-105
   37.1450000000000        -4.405992792878236E-105
   37.3350000000000        -6.860911664931428E-105
   37.5250000000000        -9.895748015571608E-105
   37.7150000000000        -1.321877421510098E-104
   37.9050000000000        -1.613752613323681E-104
   38.0950000000000        -1.733682684596690E-104
   38.2850000000000        -1.460521232168818E-104
   38.4750000000000        -4.535608080338141E-105
   38.6650000000000         1.773917676557550E-104
   38.8550000000000         5.866204716509231E-104
   39.0450000000000         1.260277286385450E-103
   39.2350000000000         2.281275109313501E-103
   39.4250000000000         3.718481749195620E-103
   39.6150000000000         5.591802204174464E-103
   39.8050000000000         7.814821771730282E-103
   39.9950000000000         1.010816551706009E-102
   40.1850000000000         1.187809106603345E-102
   40.3750000000000         1.205922606731881E-102
   40.5650000000000         8.929681501289060E-103
   40.7550000000000        -7.655949128658856E-105
   40.9450000000000        -1.850827180134688E-102
   41.1350000000000        -5.089528420355648E-102
   41.3250000000000        -1.024608716667815E-101
   41.5150000000000        -1.783346810831480E-101
   41.7050000000000        -2.819765439912427E-101
   41.8950000000000        -4.124513329384901E-101
   42.0850000000000        -5.601573891891645E-101
   42.2750000000000        -7.006505604767637E-101
   42.4650000000000        -7.863901953846864E-101
   42.6550000000000        -7.366569657989776E-101
   42.8450000000000        -4.266758595970032E-101
   43.0350000000000         3.217404708153763E-101
   43.2250000000000         1.743798899450680E-100
   43.4150000000000         4.122722965405060E-100
   43.6050000000000         7.757965909589332E-100
   43.7950000000000         1.289673715260666E-099
   43.9850000000000         1.961144786827002E-099
   44.1750000000000         2.760365573238155E-099
   44.3650000000000         3.591655732506750E-099
   44.5550000000000         4.254607259971988E-099
   44.7450000000000         4.395925555852320E-099
   44.9350000000000         3.456337929332799E-099
   45.1250000000000         6.225444264664445E-100
   45.3150000000000        -5.197448423512764E-099
   45.5050000000000        -1.534586116606629E-098
   45.6950000000000        -3.128955910583501E-098
   45.8850000000000        -5.433752303639751E-098
   46.0750000000000        -8.512689151793177E-098
   46.2650000000000        -1.227948068362547E-097
   46.4550000000000        -1.637597151409128E-097
   46.6450000000000        -2.000691360539196E-097
   46.8350000000000        -2.173477212507376E-097
   47.0250000000000        -1.925199371074049E-097
   47.2150000000000        -9.170805206116910E-098
   47.4050000000000         1.309619762095727E-097
   47.5950000000000         5.324667829172808E-097
   47.7850000000000         1.176173197125536E-096
   47.9750000000000         2.120972234712563E-096
   48.1650000000000         3.401378512018885E-096
   48.3550000000000         4.995424427793543E-096
   48.5450000000000         6.777458071927120E-096
   48.7350000000000         8.454252519270893E-096
   48.9250000000000         9.485745183493194E-096
   49.1150000000000         8.996960888083569E-096
   49.3050000000000         5.695982928868456E-096
   49.4950000000000        -2.175144830252241E-096
   49.6850000000000        -1.681373224858967E-095
   49.8750000000000        -4.069175952351356E-095
   50.0650000000000        -7.617016010571346E-095
   50.2550000000000        -1.247907809145205E-094
   50.4450000000000        -1.861360041491893E-094
   50.6350000000000        -2.561575145273632E-094
   50.8250000000000        -3.249224444948230E-094
   51.0150000000000        -3.738264690400263E-094
   51.2050000000000        -3.725019151156271E-094
   51.3950000000000        -2.759275308899346E-094
   51.5850000000000        -2.264311479273537E-095
   51.7750000000000         4.645092457943044E-094
   51.9650000000000         1.273077836059378E-093
   52.1550000000000         2.488438503552428E-093
   52.3450000000000         4.170737655154811E-093
   52.5350000000000         6.317875277286259E-093
   52.7250000000000         8.811489796109037E-093
   52.9150000000000         1.134444463706883E-092
   53.1050000000000         1.333153755912274E-092
   53.2950000000000         1.381070771663050E-092
   53.4850000000000         1.135053578664334E-092
   53.6750000000000         3.991771794909147E-093
   53.8650000000000        -1.073400588074777E-092
   54.0550000000000        -3.564750037571153E-092
   54.2450000000000        -7.354694949322055E-092
   54.4350000000000        -1.265208121278986E-091
   54.6250000000000        -1.948479820004761E-091
   54.8150000000000        -2.753997559740858E-091
   55.0050000000000        -3.595039140550871E-091
   55.1950000000000        -4.303249542409082E-091
   55.3850000000000        -4.599729342741231E-091
   55.5750000000000        -4.067925729777413E-091
   55.7650000000000        -2.136145880223787E-091
   55.9550000000000         1.918297625879218E-091
   56.1450000000000         8.926473233505534E-091
   56.3350000000000         1.972504915481448E-090
   56.5250000000000         3.496783608174836E-090
   56.7150000000000         5.482511796272715E-090
   56.9050000000000         7.854846167692742E-090
   57.0950000000000         1.038914257033510E-089
   57.2850000000000         1.264017175595499E-089
   57.4750000000000         1.386420548159945E-089
   57.6650000000000         1.294589879015959E-089
   57.8550000000000         8.350331701723225E-090
   58.0450000000000        -1.868886204467582E-090
   58.2350000000000        -1.996261448938989E-089
   58.4250000000000        -4.822571216398493E-089
   58.6150000000000        -8.851975731617203E-089
   58.8050000000000        -1.415140819435651E-088
   58.9950000000000        -2.055919291072730E-088
   59.1850000000000        -2.754010959441765E-088
   59.3750000000000        -3.400908074976635E-088
   59.5650000000000        -3.813780200111733E-088
   59.7550000000000        -3.717346145002262E-088
   59.9450000000000        -2.731853907743517E-088
   60.1350000000000        -3.745038907878482E-089
   60.3250000000000         3.915648127208414E-088
   60.5150000000000         1.071669069842113E-087
   60.7050000000000         2.051232958949535E-087
   60.8950000000000         3.351533134034424E-087
   61.0850000000000         4.941442136724699E-087
   61.2750000000000         6.704081387114582E-087
   61.4650000000000         8.396481529795010E-087
   61.6550000000000         9.605562088432094E-087
   61.8450000000000         9.706992750605270E-087
   62.0350000000000         7.837768521685265E-087
   62.2250000000000         2.898469345359324E-087
   62.4150000000000        -6.393262228278901E-087
   62.6050000000000        -2.137135914147829E-086
   62.7950000000000        -4.318209881923075E-086
   62.9850000000000        -7.240751637832791E-086
   63.1750000000000        -1.085289397113057E-085
   63.3650000000000        -1.492247620020073E-085
   63.5550000000000        -1.895263789077200E-085
   63.7450000000000        -2.209024837027548E-085
   63.9350000000000        -2.304068687984229E-085
   64.1250000000000        -2.001085255913585E-085
   64.3150000000000        -1.071213692289369E-085
   64.5050000000000         7.534512606937084E-086
   64.6950000000000         3.754008670737191E-085
   64.8850000000000         8.177883469387176E-085
   65.0750000000000         1.416548906167280E-084
   65.2650000000000         2.164642954431054E-084
   65.4550000000000         3.020451658907025E-084
   65.6450000000000         3.891653994760167E-084
   65.8350000000000         4.617831572355965E-084
   66.0250000000000         4.954334672029092E-084
   66.2150000000000         4.561434096931367E-084
   66.4050000000000         3.004503568774309E-084
   66.5950000000000        -2.272538365938318E-085
   66.7850000000000        -5.674514469846594E-084
   66.9750000000000        -1.382417777949276E-083
   67.1650000000000        -2.497912780887439E-083
   67.3550000000000        -3.907493492771968E-083
   67.5450000000000        -5.544281927136828E-083
   67.7350000000000        -7.252796895592671E-083
   67.9250000000000        -8.758680556472949E-083
   68.1150000000000        -9.640636926689062E-083
   68.3050000000000        -9.311327980379536E-083
   68.4950000000000        -7.016721406702363E-083
   68.6850000000000        -1.866145541683289E-083
   68.8750000000000         7.092425091285768E-083
   69.0650000000000         2.073629440702924E-082
   69.2550000000000         3.965679755100807E-082
   69.4450000000000         6.386308512004422E-082
   69.6350000000000         9.240045935583466E-082
   69.8250000000000         1.228981232386121E-081
   70.0150000000000         1.510835686721281E-081
   70.2050000000000         1.703305702303111E-081
   70.3950000000000         1.713440971914373E-081
   70.5850000000000         1.421259681819073E-081
   70.7750000000000         6.840504798127637E-082
   70.9650000000000        -6.525228106854121E-082
   71.1550000000000        -2.734224320824465E-081
   71.3450000000000        -5.666861749785063E-081
   71.5350000000000        -9.472305044219074E-081
   71.7250000000000        -1.403185611655416E-080
   71.9150000000000        -1.901911640230437E-080
   72.1050000000000        -2.382766413490500E-080
   72.2950000000000        -2.750301528340236E-080
   72.4850000000000        -2.869337632925491E-080
   72.6750000000000        -2.563925229356914E-080
   72.8650000000000        -1.622739892845857E-080
   73.0550000000000         1.861111063547570E-081
   73.2450000000000         3.087722001859436E-080
   73.4350000000000         7.257578854445827E-080
   73.6250000000000         1.276134171532753E-079
   73.8150000000000         1.947704967570613E-079
   74.0050000000000         2.700246638462518E-079
   74.1950000000000         3.455441018101781E-079
   74.3850000000000         4.087230724746173E-079
   74.5750000000000         4.414469882238727E-079
   74.7650000000000         4.198457368084937E-079
   74.9550000000000         3.148636699458938E-079
   75.1450000000000         9.403008625523062E-080
   75.3350000000000        -2.751622077817961E-079
   75.5250000000000        -8.198926334572524E-079
   75.7150000000000        -1.554394618068766E-078
   75.9050000000000        -2.470031143946792E-078
   76.0950000000000        -3.523359477522567E-078
   76.2850000000000        -4.622977584407627E-078
   76.4750000000000        -5.616594621398604E-078
   76.6650000000000        -6.280551102446681E-078
   76.8550000000000        -6.314879075943000E-078
   77.0450000000000        -5.347845337606367E-078
   77.2350000000000        -2.954617982957791E-078
   77.4250000000000         1.304959008371114E-078
   77.6150000000000         7.824756712792730E-078
   77.8050000000000         1.686334302419359E-077
   77.9950000000000         2.842633409045279E-077
   78.1850000000000         4.212273637184153E-077
   78.3750000000000         5.700343941823357E-077
   78.5650000000000         7.139731142902703E-077
   78.7550000000000         8.276920701300059E-077
   78.9450000000000         8.763408805212566E-077
   79.1350000000000         8.157140847037050E-077
   79.3250000000000         5.939241664347549E-077
   79.5150000000000         1.551800156407296E-077
   79.7050000000000        -5.537649662539293E-077
   79.8950000000000        -1.574035775132625E-076
   80.0850000000000        -2.921701309548653E-076
   80.2750000000000        -4.571642630687466E-076
   80.4650000000000        -6.438954650575513E-076
   80.6550000000000        -8.359373916920793E-076
   80.8450000000000        -1.007116436250840E-075
   81.0350000000000        -1.120196105665103E-075
   81.2250000000000        -1.126517667191055E-075
   81.4150000000000        -9.671570940503788E-076
   81.6050000000000        -5.762265455528250E-076
   81.7950000000000         1.130408083783839E-076
   81.9850000000000         1.158862102937062E-075
   82.1750000000000         2.597772989207584E-075
   82.3650000000000         4.427791176109748E-075
   82.5550000000000         6.588415379020232E-075
   82.7450000000000         8.938740038690873E-075
   82.9350000000000         1.123589837227116E-074
   83.1250000000000         1.311713252453212E-074
   83.3150000000000         1.408995067174014E-074
   83.5050000000000         1.353593742129190E-074
   83.6950000000000         1.073464954066944E-074
   83.8850000000000         4.914409565715534E-075
   84.0750000000000        -4.663591213562670E-075
   84.2650000000000        -1.858298339155668E-074
   84.4550000000000        -3.710977241154955E-074
   84.6450000000000        -5.999253824278953E-074
   84.8350000000000        -8.623473056078206E-074
   85.0250000000000        -1.138571434457739E-073
   85.2150000000000        -1.396790163404548E-073
   85.4050000000000        -1.591576950485659E-073
   85.5950000000000        -1.663383451881493E-073
   85.7850000000000        -1.539752683100207E-073
   85.9750000000000        -1.138928040285411E-073
   86.1650000000000        -3.765396414155947E-074
   86.3550000000000         8.240421576245026E-074
   86.5450000000000         2.517313388435576E-073
   86.7350000000000         4.717203861842549E-073
   86.9250000000000         7.375159183463589E-073
   87.1150000000000         1.035603495396206E-072
   87.3050000000000         1.341402450948643E-072
   87.4950000000000         1.617190569219781E-072
   87.6850000000000         1.810801907642233E-072
   87.8750000000000         1.855645725514530E-072
   88.0650000000000         1.672678011083214E-072
   88.2550000000000         1.174995284337342E-072
   88.4450000000000         2.756867492399868E-073
   88.6350000000000        -1.100553690864737E-072
   88.8250000000000        -3.001818817044137E-072
   89.0150000000000        -5.429566623995604E-072
   89.2050000000000        -8.316162525436255E-072
   89.3950000000000        -1.150092824667826E-071
   89.5850000000000        -1.470715962469273E-071
   89.7750000000000        -1.752359667278610E-071
   89.9650000000000        -1.939486476103865E-071
   90.1550000000000        -1.962632603931413E-071
   90.3450000000000        -1.740941162383240E-071
   90.5350000000000        -1.187363259740514E-071
   90.7250000000000        -2.170844667494889E-072
   90.9150000000000         1.240429351385465E-071
   91.1050000000000         3.225662204987688E-071
   91.2950000000000         5.729884289189955E-071
   91.4850000000000         8.673514174785846E-071
   91.6750000000000         1.188366467523916E-070
   91.8650000000000         1.507338822314614E-070
   92.0550000000000         1.782605891297224E-070
   92.2450000000000         1.958922278073013E-070
   92.4350000000000         1.968298845534487E-070
   92.6250000000000         1.732845339333258E-070
   92.8150000000000         1.170157095739277E-070
   93.0050000000000         2.017044181035742E-071
   93.1950000000000        -1.235493564494536E-070
   93.3850000000000        -3.173919768844540E-070
   93.5750000000000        -5.597762667732641E-070
   93.7650000000000        -8.423249775228045E-070
   93.9550000000000        -1.147875640786274E-069
   94.1450000000000        -1.448708897189813E-069
   94.3350000000000        -1.705312434545808E-069
   94.5250000000000        -1.866071136524146E-069
   94.7150000000000        -1.868329064317002E-069
   94.9050000000000        -1.641292019023381E-069
   95.0950000000000        -1.111213951930954E-069
   95.2850000000000        -2.092186031834788E-070
   95.4750000000000         1.118067663720960E-069
   95.6650000000000         2.895168802841505E-069
   95.8550000000000         5.102173029680931E-069
   96.0450000000000         7.657864537889714E-069
   96.2350000000000         1.040309881637995E-068
   96.4250000000000         1.308657061075292E-068
   96.6150000000000         1.535574673569741E-068
   96.8050000000000         1.675628194944584E-068
   96.9950000000000         1.674360491421733E-068
   97.1850000000000         1.471043273157171E-068
   97.3750000000000         1.003361285894723E-068
   97.5650000000000         2.142763811189847E-069
   97.7550000000000        -9.388432687526493E-069
   97.9450000000000        -2.472983553368297E-068
   98.1350000000000        -4.366610437075288E-068
   98.3250000000000        -6.546034675107607E-068
   98.5150000000000        -8.872344021827935E-068
   98.7050000000000        -1.113071481355352E-067
   98.8950000000000        -1.302437778989591E-067
   99.0850000000000        -1.417589138488936E-067
   99.2750000000000        -1.413858890884561E-067
   99.4650000000000        -1.242102072691256E-067
   99.6550000000000        -8.526808825196817E-068
   99.8450000000000        -2.011472072499278E-068
   100.035000000000         7.443615043152976E-068
   100.225000000000         1.994194836013355E-067
   100.415000000000         3.527168719767259E-067
   100.605000000000         5.280197199606140E-067
   100.795000000000         7.138664517243181E-067
   100.985000000000         8.928975144144354E-067
   101.175000000000         1.041503799720497E-066
   101.365000000000         1.130067815178738E-066
   101.555000000000         1.124006431247447E-066
   101.745000000000         9.858125572749679E-067
   101.935000000000         6.782537447155800E-067
   102.125000000000         1.688121689650055E-067
   102.315000000000        -5.646620158972486E-067
   102.505000000000        -1.527265265850908E-066
   102.695000000000        -2.699696520772605E-066
   102.885000000000        -4.030850896706172E-066
   103.075000000000        -5.431187938006513E-066
   103.265000000000        -6.767946776534241E-066
   103.455000000000        -7.863482149142675E-066
   103.645000000000        -8.498126137864679E-066
   103.835000000000        -8.418998279783486E-066
   104.025000000000        -7.356045957835459E-066
   104.215000000000        -5.046253603997173E-066
   104.405000000000        -1.266376008017229E-066
   104.595000000000         4.126295413227231E-066
   104.785000000000         1.114673569168387E-065
   104.975000000000         1.963150826374209E-065
   105.165000000000         2.918907185226128E-065
   105.355000000000         3.915711275250356E-065
   105.545000000000         4.857441574821089E-065
   105.735000000000         5.617595072279525E-065
   105.925000000000         6.042045846277516E-065
   106.115000000000         5.955959188713970E-065
   106.305000000000         5.175632551951078E-065
   106.495000000000         3.525762805121472E-065
   106.685000000000         8.622104436403808E-066
   106.875000000000        -2.900263304888641E-065
   107.065000000000        -7.756564221686706E-065
   107.255000000000        -1.357830064081989E-064
   107.445000000000        -2.008241415023998E-064
   107.635000000000        -2.680549616866872E-064
   107.825000000000        -3.308873446592775E-064
   108.015000000000        -3.807904134865051E-064
   108.205000000000        -4.075212065442777E-064
   108.395000000000        -3.996286675063125E-064
   108.585000000000        -3.452739277268800E-064
   108.775000000000        -2.333901908316590E-064
   108.965000000000        -5.517626584515388E-065
   109.155000000000         1.941212117833313E-064
   109.345000000000         5.132296890976441E-064
   109.535000000000         8.928240692041350E-064
   109.725000000000         1.313656365762570E-063
   109.915000000000         1.745101590941122E-063
   110.105000000000         2.144425726482866E-063