  -1.42500000000000         0.000000000000000E+000
  -1.23500000000000         0.000000000000000E+000
  -1.04500000000000         0.000000000000000E+000
 -0.855000000000000         0.000000000000000E+000
 -0.665000000000000         0.000000000000000E+000
 -0.475000000000000         0.000000000000000E+000
 -0.285000000000000         0.000000000000000E+000
 -9.499999999999975E-002    0.000000000000000E+000
  9.500000000000020E-002    0.000000000000000E+000
  0.285000000000000         0.000000000000000E+000
  0.475000000000000         0.000000000000000E+000
  0.665000000000000         0.000000000000000E+000
  0.855000000000000         0.000000000000000E+000
   1.04500000000000         0.000000000000000E+000
   1.23500000000000         0.000000000000000E+000
   1.42500000000000         0.000000000000000E+000
   1.61500000000000         0.000000000000000E+000
   1.80500000000000         0.000000000000000E+000
   1.99500000000000         0.000000000000000E+000
   2.18500000000000         0.000000000000000E+000
   2.37500000000000         0.000000000000000E+000
   2.56500000000000         0.000000000000000E+000
   2.75500000000000         0.000000000000000E+000
   2.94500000000000         0.000000000000000E+000
   3.13500000000000         0.000000000000000E+000
   3.32500000000000         0.000000000000000E+000
   3.51500000000000         0.000000000000000E+000
   3.70500000000000         0.000000000000000E+000
   3.89500000000000         0.000000000000000E+000
   4.08500000000000         0.000000000000000E+000
   4.27500000000000         0.000000000000000E+000
   4.46500000000000         0.000000000000000E+000
   4.65500000000000         0.000000000000000E+000
   4.84500000000000         0.000000000000000E+000
   5.03500000000000         0.000000000000000E+000
   5.22500000000000         0.000000000000000E+000
   5.41500000000000         0.000000000000000E+000
   5.60500000000000         0.000000000000000E+000
   5.79500000000000         0.000000000000000E+000
   5.98500000000000         0.000000000000000E+000
   6.17500000000000         0.000000000000000E+000
   6.36500000000000         0.000000000000000E+000
   6.55500000000000         0.000000000000000E+000
   6.74500000000000         0.000000000000000E+000
   6.93500000000000        -2.496816798533810E-178
   7.12500000000000         4.934312835331694E-172
   7.31500000000000         1.766075996508447E-170
   7.50500000000000         2.019329959692679E-169
   7.69500000000000         6.209289523940834E-168
   7.88500000000000         5.424924890780722E-166
   8.07500000000000         2.424399828749382E-164
   8.26500000000000         6.918903458356493E-163
   8.45500000000000         1.460474783238234E-161
   8.64500000000000         2.462883801634901E-160
   8.83500000000000         3.473570150306684E-159
   9.02500000000000         4.222224110863055E-158
   9.21500000000000         4.517754164752977E-157
   9.40500000000000         4.322239764695031E-156
   9.59500000000000         3.741958600215032E-155
   9.78500000000000         2.959200080442065E-154
   9.97500000000000         2.153730517719510E-153
   10.1650000000000         1.451339114474631E-152
   10.3550000000000         9.099304727282875E-152
   10.5450000000000         5.328010272419715E-151
   10.7350000000000         2.922006359616188E-150
   10.9250000000000         1.503738810544422E-149
   11.1150000000000         7.267049761313783E-149
   11.3050000000000         3.295278975552061E-148
   11.4950000000000         1.397667200138168E-147
   11.6850000000000         5.504486805134272E-147
   11.8750000000000         1.981446074417566E-146
   12.0650000000000         6.285502508093216E-146
   12.2550000000000         1.580443799725586E-145
   12.4450000000000         1.683523374674508E-145
   12.6350000000000        -1.433786385322932E-144
   12.8250000000000        -1.468982266731107E-143
   13.0150000000000        -9.477118796720497E-143
   13.2050000000000        -5.167862410557600E-142
   13.3950000000000        -2.566959865807664E-141
   13.5850000000000        -1.197338503830646E-140
   13.7750000000000        -5.323934340806394E-140
   13.9650000000000        -2.275150846341280E-139
   14.1550000000000        -9.387786462198161E-139
   14.3450000000000        -3.750270241629829E-138
   14.5350000000000        -1.452789552696225E-137
   14.7250000000000        -5.462743748231798E-137
   14.9150000000000        -1.995122446110005E-136
   15.1050000000000        -7.080902241610505E-136
   15.2950000000000        -2.443123602403246E-135
   15.4850000000000        -8.197987146101746E-135
   15.6750000000000        -2.676341884532851E-134
   15.8650000000000        -8.503956173750288E-134
   16.0550000000000        -2.631018699297731E-133
   16.2450000000000        -7.929287164297874E-133
   16.4350000000000        -2.328839842547290E-132
   16.6250000000000        -6.668548419545642E-132
   16.8150000000000        -1.862525203184746E-131
   17.0050000000000        -5.076291305948241E-131
   17.1950000000000        -1.350703514359286E-130
   17.3850000000000        -3.510262820822636E-130
   17.5750000000000        -8.914238929734674E-130
   17.7650000000000        -2.213072026523959E-129
   17.9550000000000        -5.373765058633485E-129
   18.1450000000000        -1.276860217009594E-128
   18.3350000000000        -2.970328686887910E-128
   18.5250000000000        -6.768345666469252E-128
   18.7150000000000        -1.511481254846660E-127
   18.9050000000000        -3.309739163723703E-127
   19.0950000000000        -7.110232314748769E-127
   19.2850000000000        -1.499321759780700E-126
   19.4750000000000        -3.104799741619519E-126
   19.6650000000000        -6.316525097813992E-126
   19.8550000000000        -1.262875039621520E-125
   20.0450000000000        -2.481653252904204E-125
   20.2350000000000        -4.792691858181883E-125
   20.4250000000000        -9.092685169871066E-125
   20.6150000000000        -1.693165493261191E-124
   20.8050000000000        -3.089951257257120E-124
   20.9950000000000        -5.513410210206808E-124
   21.1850000000000        -9.583475837216941E-124
   21.3750000000000        -1.613666429159968E-123
   21.5650000000000        -2.608398149618012E-123
   21.7550000000000        -3.985290890988382E-123
   21.9450000000000        -5.584111080580524E-123
   22.1350000000000        -6.671225794102178E-123
   22.3250000000000        -5.126238957951979E-123
   22.5150000000000         4.235971931724264E-123
   22.7050000000000         3.295790517394182E-122
   22.8950000000000         1.051265885360443E-121
   23.0850000000000         2.685480047152703E-121
   23.2750000000000         6.141803014033329E-121
   23.4650000000000         1.308691973686023E-120
   23.6550000000000         2.646976205667674E-120
   23.8450000000000         5.133541513003889E-120
   24.0350000000000         9.603310711271264E-120
   24.2250000000000         1.739234328125468E-119
   24.4150000000000         3.056544492578419E-119
   24.6050000000000         5.219775580380737E-119
   24.7950000000000         8.668763926589341E-119
   24.9850000000000         1.400446632228455E-118
   25.1750000000000         2.200460944596986E-118
   25.3650000000000         3.360872838280545E-118
   25.5550000000000         4.984678008820615E-118
   25.7450000000000         7.167580296848894E-118
   25.9350000000000         9.967657487794902E-118
   26.1250000000000         1.335391527405032E-117
   26.3150000000000         1.712070751076459E-117
   26.5050000000000         2.073865809712427E-117
   26.6950000000000         2.306973987581169E-117
   26.8850000000000         2.176923446255109E-117
   27.0750000000000         1.195835900092036E-117
   27.2650000000000        -1.676074028967425E-117
   27.4550000000000        -8.691697267913683E-117
   27.6450000000000        -2.473975541854632E-116
   27.8350000000000        -6.030276110778295E-116
   28.0250000000000        -1.373916053907653E-115
   28.2150000000000        -3.010389154505956E-115
   28.4050000000000        -6.407993542937832E-115
   28.5950000000000        -1.329614075579294E-114
   28.7850000000000        -2.691680124451318E-114
   28.9750000000000        -5.316821686934262E-114
   29.1650000000000        -1.024602492611028E-113
   29.3550000000000        -1.925990152811315E-113
   29.5450000000000        -3.530525143575043E-113
   29.7350000000000        -6.308675557681076E-113
   29.9250000000000        -1.098160404234094E-112
   30.1150000000000        -1.860221085120559E-112
   30.3050000000000        -3.061409504190664E-112
   30.4950000000000        -4.882488571201539E-112
   30.6850000000000        -7.516830208822388E-112
   30.8750000000000        -1.110270036857188E-111
   31.0650000000000        -1.557298205414733E-111
   31.2550000000000        -2.036070531126458E-111
   31.4450000000000        -2.386793316971685E-111
   31.6350000000000        -2.256857216227856E-111
   31.8250000000000        -9.579254375318080E-112
   32.0150000000000         2.748726423060538E-111
   32.2050000000000         1.095424893521117E-110
   32.3950000000000         2.699368839028538E-110
   32.5850000000000         5.589525606009175E-110
   32.7750000000000         1.047875577531001E-109
   32.9650000000000         1.830418408118187E-109
   33.1550000000000         3.017220296920842E-109
   33.3450000000000         4.716000478244642E-109
   33.5350000000000         6.985412350545656E-109
   33.7250000000000         9.744660418094432E-109
   33.9150000000000         1.261385334416358E-108
   34.1050000000000         1.465310673058651E-108
   34.2950000000000         1.396433022367306E-108
   34.4850000000000         7.123598783216866E-109
   34.6750000000000        -1.156730391412804E-108
   34.8650000000000        -5.097080617570023E-108
   35.0550000000000        -1.240057632240245E-107
   35.2450000000000        -2.482294886699033E-107
   35.4350000000000        -4.455224170095092E-107
   35.6250000000000        -7.398866253162676E-107
   35.8150000000000        -1.151829860449159E-106
   36.0050000000000        -1.687153360914572E-106
   36.1950000000000        -2.317287373551451E-106
   36.3850000000000        -2.947832078898607E-106
   36.5750000000000        -3.372052504346397E-106
   36.7650000000000        -3.207386198140059E-106
   36.9550000000000        -1.816518885726294E-106
   37.1450000000000         1.778401326789570E-106
   37.3350000000000         8.967645727099151E-106
   37.5250000000000         2.157194739238031E-105
   37.7150000000000         4.173915375315637E-105
   37.9050000000000         7.161560599874508E-105
   38.0950000000000         1.126456929804665E-104
   38.2850000000000         1.643112661597268E-104
   38.4750000000000         2.220969192518399E-104
   38.6650000000000         2.744844815153757E-104
   38.8550000000000         2.988834155871254E-104
   39.0450000000000         2.566557738283589E-104
   39.2350000000000         8.787837475722607E-105
   39.4250000000000        -2.926994024839380E-104
   39.6150000000000        -9.957954870492935E-104
   39.8050000000000        -2.149375462171051E-103
   39.9950000000000        -3.875383849976095E-103
   40.1850000000000        -6.242227039421691E-103
   40.3750000000000        -9.181549146311056E-103
   40.5650000000000        -1.235687164071162E-102
   40.7550000000000        -1.497376375162653E-102
   40.9450000000000        -1.552912860424007E-102
   41.1350000000000        -1.151484341119182E-102
   41.3250000000000         8.765474745485699E-104
   41.5150000000000         2.694327458155763E-102
   41.7050000000000         7.338279029064764E-102
   41.8950000000000         1.476284666635918E-101
   42.0850000000000         2.561909529839972E-101
   42.2750000000000         4.014346872956451E-101
   42.4650000000000         5.760985970165442E-101
   42.6550000000000         7.548398263820313E-101
   42.8450000000000         8.822510807013640E-101
   43.0350000000000         8.573425727927311E-101
   43.2250000000000         5.156184843717221E-101
   43.4150000000000        -3.880969998331776E-101
   43.6050000000000        -2.189701971424894E-100
   43.7950000000000        -5.307643359381450E-100
   43.9850000000000        -1.019916955048895E-099
   44.1750000000000        -1.725610099557256E-099
   44.3650000000000        -2.660740139356751E-099
   44.5550000000000        -3.778994160332786E-099
   44.7450000000000        -4.924876097116336E-099
   44.9350000000000        -5.764001609370801E-099
   45.1250000000000        -5.694259528938031E-099
   45.3150000000000        -3.744987321062790E-099
   45.5050000000000         1.517468496105975E-099
   45.6950000000000         1.204211208046894E-098
   45.8850000000000         3.024341767647425E-098
   46.0750000000000         5.875749169433795E-098
   46.2650000000000         9.987614560918308E-098
   46.4550000000000         1.544954205434060E-097
   46.6450000000000         2.203924785311600E-097
   46.8350000000000         2.896543526945975E-097
   47.0250000000000         3.451533115586148E-097
   47.2150000000000         3.561372374941106E-097
   47.4050000000000         2.733305329598901E-097
   47.5950000000000         2.447850459169853E-098
   47.7850000000000        -4.879322002652982E-097
   47.9750000000000        -1.383955519287340E-096
   48.1650000000000        -2.794299260109011E-096
   48.3550000000000        -4.833619716967117E-096
   48.5450000000000        -7.552031855624203E-096
   48.7350000000000        -1.085724361481898E-095
   48.9250000000000        -1.440062187383387E-095
   49.1150000000000        -1.742412169357278E-095
   49.3050000000000        -1.857293635513066E-095
   49.4950000000000        -1.569282387940468E-095
   49.6850000000000        -5.653260341110182E-096
   49.8750000000000         1.573063546436522E-095
   50.0650000000000         5.356278124945197E-095
   50.2550000000000         1.133533469287188E-094
   50.4450000000000         1.999133962686512E-094
   50.6350000000000         3.154014225000483E-094
   50.8250000000000         4.562569552260381E-094
   51.0150000000000         6.088090789384523E-094
   51.2050000000000         7.435045681661551E-094
   51.3950000000000         8.080141778165981E-094
   51.5850000000000         7.200052484575110E-094
   51.7750000000000         3.611690728537473E-094
   51.9650000000000        -4.248044000856698E-094
   52.1550000000000        -1.826220196058654E-093
   52.3450000000000        -4.043681331126659E-093
   52.5350000000000        -7.249528453561619E-093
   52.7250000000000        -1.151823145064940E-092
   52.9150000000000        -1.671973545424090E-092
   53.1050000000000        -2.237014674286183E-092
   53.2950000000000        -2.744002547395821E-092
   53.4850000000000        -3.013147308303447E-092
   53.6750000000000        -2.765275895848651E-092
   53.8650000000000        -1.604472295943182E-092
   54.0550000000000         9.852955581773232E-093
   54.2450000000000         5.616660256234374E-092
   54.4350000000000         1.293116055431496E-091
   54.6250000000000         2.346622579129539E-091
   54.8150000000000         3.743377605829129E-091
   55.0050000000000         5.438947292233410E-091
   55.1950000000000         7.278061299989273E-091
   55.3850000000000         8.938000107500200E-091
   55.5750000000000         9.864679387189088E-091
   55.7650000000000         9.210696763287534E-091
   55.9550000000000         5.791813403308783E-091
   56.1450000000000        -1.912460820561730E-091
   56.3350000000000        -1.567789141584726E-090
   56.5250000000000        -3.732718650763444E-090
   56.7150000000000        -6.833907255449935E-090
   56.9050000000000        -1.092175680699869E-089
   57.0950000000000        -1.585740665748799E-089
   57.2850000000000        -2.119035834195651E-089
   57.4750000000000        -2.600925482668905E-089
   57.6650000000000        -2.877874693504428E-089
   57.8550000000000        -2.718887821796163E-089
   58.0450000000000        -1.806150310082541E-089
   58.2350000000000         2.619628063202271E-090
   58.4250000000000         3.946422425360455E-089
   58.6150000000000         9.710279965017878E-089
   58.8050000000000         1.791581159579681E-088
   58.9950000000000         2.866359838665416E-088
   59.1850000000000         4.156442167255664E-088
   59.3750000000000         5.544281140468136E-088
   59.5650000000000         6.798537761851428E-088
   59.7550000000000         7.536930735570552E-088
   59.9450000000000         7.193770922180269E-088
   60.1350000000000         5.002874631238431E-088
   60.3250000000000         1.125993633574984E-090
   60.5150000000000        -8.856092829410548E-088
   60.7050000000000        -2.265602632225519E-087
   60.8950000000000        -4.218526112923627E-087
   61.0850000000000        -6.761282054503275E-087
   61.2750000000000        -9.797217246345129E-087
   61.4650000000000        -1.305175847532209E-086
   61.6550000000000        -1.599813523245909E-086
   61.8450000000000        -1.778163163374177E-086
   62.0350000000000        -1.715726039707364E-086
   62.2250000000000        -1.246372102240345E-086
   62.4150000000000        -1.665407144794056E-087
   62.6050000000000         1.749712897039428E-086
   62.7950000000000         4.720144309644456E-086
   62.9850000000000         8.903412436256519E-086
   63.1750000000000         1.432380591593996E-085
   63.3650000000000         2.076971894098290E-085
   63.5550000000000         2.766802839250376E-085
   63.7450000000000         3.394293668274001E-085
   63.9350000000000         3.787697335678612E-085
   64.1250000000000         3.700371631286700E-085
   64.3150000000000         2.807588722765246E-085
   64.5050000000000         7.167487088814465E-086
   64.6950000000000        -3.001780947719393E-085
   64.8850000000000        -8.755137327779616E-085
   65.0750000000000        -1.683186949947741E-084
   65.2650000000000        -2.726327380205829E-084
   65.4550000000000        -3.964045513065706E-084
   65.6450000000000        -5.289293553364969E-084
   65.8350000000000        -6.504603683532603E-084
   66.0250000000000        -7.298989748554147E-084
   66.2150000000000        -7.231259711499895E-084
   66.4050000000000        -5.727227552390843E-084
   66.5950000000000        -2.100586025890705E-084
   66.7850000000000         4.390909631881735E-084
   66.9750000000000         1.444140222823548E-083
   67.1650000000000         2.853340387369647E-083
   67.3550000000000         4.670685050590209E-083
   67.5450000000000         6.826040279019119E-083
   67.7350000000000         9.139718090686196E-083
   67.9250000000000         1.128453647019783E-082
   68.1150000000000         1.275082640121603E-082
   68.3050000000000         1.282278016326159E-082
   68.4950000000000         1.057776493775375E-082
   68.6850000000000         4.923338988313925E-083
   68.8750000000000        -5.310942924300579E-083
   69.0650000000000        -2.120916967121716E-082
   69.2550000000000        -4.351654595647378E-082
   69.4450000000000        -7.228941914086137E-082
   69.6350000000000        -1.064505233843030E-081
   69.8250000000000        -1.432709156172827E-081
   70.0150000000000        -1.778265548344769E-081
   70.2050000000000        -2.025115089848847E-081
   70.3950000000000        -2.067298279330336E-081
   70.5850000000000        -1.769306603495055E-081
   70.7750000000000        -9.719011839953937E-082
   70.9650000000000         4.943038851088007E-082
   71.1550000000000         2.785183699453972E-081
   71.3450000000000         6.007448305414835E-081
   71.5350000000000         1.017002800812607E-080
   71.7250000000000         1.512323091237507E-080
   71.9150000000000         2.048897954764687E-080
   72.1050000000000         2.558895122050000E-080
   72.2950000000000         2.938184852236144E-080
   72.4850000000000         3.042606437056173E-080
   72.6750000000000         2.688917858448442E-080
   72.8650000000000         1.663021612897770E-080
   73.0550000000000        -2.616754787675910E-081
   73.2450000000000        -3.292982094272531E-080
   73.4350000000000        -7.573524106707673E-080
   73.6250000000000        -1.311833204054690E-079
   73.8150000000000        -1.973771866570021E-079
   74.0050000000000        -2.694998912837902E-079
   74.1950000000000        -3.389284317857863E-079
   74.3850000000000        -3.924760858286649E-079
   74.5750000000000        -4.119634281651278E-079
   74.7650000000000        -3.743771691030399E-079
   74.9550000000000        -2.529245821786360E-079
   75.1450000000000        -1.931602431338879E-080
   75.3350000000000         3.524085140803039E-079
   75.5250000000000         8.802709473296125E-079
   75.7150000000000         1.566887546419920E-078
   75.9050000000000         2.390327674195396E-078
   76.0950000000000         3.293861545318442E-078
   76.2850000000000         4.175653263231989E-078
   76.4750000000000         4.880048137475266E-078
   76.6650000000000         5.192753092629938E-078
   76.8550000000000         4.842841611868848E-078
   77.0450000000000         3.515018632345831E-078
   77.2350000000000         8.758054267856355E-079
   77.4250000000000        -3.382936879973668E-078
   77.6150000000000        -9.480645746402857E-078
   77.8050000000000        -1.746417190964025E-077
   77.9950000000000        -2.710558239098245E-077
   78.1850000000000        -3.778796377704559E-077
   78.3750000000000        -4.839083047164849E-077
   78.5650000000000        -5.719302601455279E-077
   78.7550000000000        -6.181781579904272E-077
   78.9450000000000        -5.925141739636497E-077
   79.1350000000000        -4.597133983057784E-077
   79.3250000000000        -1.822306219138239E-077
   79.5150000000000         2.751910998772402E-077
   79.7050000000000         9.388082637885895E-077
   79.8950000000000         1.816986727164161E-076
   80.0850000000000         2.889355777507838E-076
   80.2750000000000         4.094645562238215E-076
   80.4650000000000         5.318382235995601E-076
   80.6550000000000         6.382248225370485E-076
   80.8450000000000         7.037599866009445E-076
   81.0350000000000         6.966294198122996E-076
   81.2250000000000         5.792498540055073E-076
   81.4150000000000         3.109392156844952E-076
   81.6050000000000        -1.475561466711398E-076
   81.7950000000000        -8.273991922367363E-076
   81.9850000000000        -1.742763842321510E-075
   82.1750000000000        -2.879881090246879E-075
   82.3650000000000        -4.184607087650678E-075
   82.5550000000000        -5.549602349798580E-075
   82.7450000000000        -6.802819473342583E-075
   82.9350000000000        -7.699660623542201E-075
   83.1250000000000        -7.921816202142048E-075
   83.3150000000000        -7.086331165065380E-075
   83.5050000000000        -4.768731015642451E-075
   83.6950000000000        -5.439114591796135E-076
   83.8850000000000         5.952230541204668E-075
   84.0750000000000         1.493895964846544E-074
   84.2650000000000         2.638566193706107E-074
   84.4550000000000         3.989013962226535E-074
   84.6450000000000         5.454939723765913E-074
   84.8350000000000         6.883764796547256E-074
   85.0250000000000         8.051246844886473E-074
   85.2150000000000         8.657628676939550E-074
   85.4050000000000         8.332585018842022E-074
   85.5950000000000         6.652584101334709E-074
   85.7850000000000         3.174297042140203E-074
   85.9750000000000        -2.512794590737622E-074
   86.1650000000000        -1.071259468309424E-073
   86.3550000000000        -2.152737398742975E-073
   86.5450000000000        -3.474444770995623E-073
   86.7350000000000        -4.971138301569452E-073
   86.9250000000000        -6.521141974514627E-073
   87.1150000000000        -7.935633768434026E-073
   87.3050000000000        -8.951982774753311E-073
   87.4950000000000        -9.233986024022967E-073
   87.6850000000000        -8.382267363184673E-073
   87.8750000000000        -5.958266523342372E-073
   88.0650000000000        -1.525027637363697E-073
   88.2550000000000         5.292756475451867E-073
   88.4450000000000         1.472842183029162E-072
   88.6350000000000         2.677394874350733E-072
   88.8250000000000         4.106584825056967E-072
   89.0150000000000         5.676463861943521E-072
   89.2050000000000         7.244095849336415E-072
   89.3950000000000         8.598654769680541E-072
   89.5850000000000         9.457349469846962E-072
   89.7750000000000         9.468961435831297E-072
   89.9650000000000         8.228067450857153E-072
   90.1550000000000         5.303032838072924E-072
   90.3450000000000         2.804778597100000E-073
   90.5350000000000        -7.171990557460591E-072
   90.7250000000000        -1.722454789093929E-071
   90.9150000000000        -2.978748519317652E-071
   91.1050000000000        -4.440224218032718E-071
   91.2950000000000        -6.013007667481913E-071
   91.4850000000000        -7.545167351740123E-071
   91.6750000000000        -8.819562160400202E-071
   91.8650000000000        -9.551809460532400E-071
   92.0550000000000        -9.395959690389105E-071
   92.2450000000000        -7.960643694280231E-071
   92.4350000000000        -4.838366611278057E-071
   92.6250000000000         3.498523176496960E-072
   92.8150000000000         7.893260663218564E-071
   93.0050000000000         1.791389417307934E-070
   93.1950000000000         3.027536178507088E-070
   93.3850000000000         4.448328017918286E-070
   93.5750000000000         5.958619510490648E-070
   93.7650000000000         7.408969081851689E-070
   93.9550000000000         8.590036070322808E-070
   94.1450000000000         9.231993919887241E-070
   94.3350000000000         9.011257071268256E-070
   94.5250000000000         7.566916289726212E-070
   94.7150000000000         4.529117295825714E-070
   94.9050000000000        -4.388915297520589E-071
   95.0950000000000        -7.584263450223634E-070
   95.2850000000000        -1.699428761077644E-069
   95.4750000000000        -2.851503780699492E-069
   95.6650000000000        -4.166416537592096E-069
   95.8550000000000        -5.554606559363808E-069
   96.0450000000000        -6.878092544033317E-069
   96.2350000000000        -7.946243126611166E-069
   96.4250000000000        -8.516176925253537E-069
   96.6150000000000        -8.299745770885167E-069
   96.8050000000000        -6.979086626468815E-069
   96.9950000000000        -4.232528383198533E-069
   97.1850000000000         2.278645116487440E-070
   97.3750000000000         6.606706578611269E-069
   97.5650000000000         1.496455918084470E-068
   97.7550000000000         2.514869025802349E-068
   97.9450000000000         3.672012446126776E-068
   98.1350000000000         4.888427024115765E-068
   98.3250000000000         6.043506002774517E-068
   98.5150000000000         6.972509468883473E-068
   98.7050000000000         7.467639210518862E-068
   98.8950000000000         7.284755764705482E-068
   99.0850000000000         6.157300085772592E-068
   99.2750000000000         3.818765274771471E-068
   99.4650000000000         3.459333759039157E-070
   99.6550000000000        -5.356400087384388E-068
   99.8450000000000        -1.239207489001906E-067
   100.035000000000        -2.093093257762876E-067
   100.225000000000        -3.059418412164046E-067
   100.415000000000        -4.071205984250398E-067
   100.605000000000        -5.028252228397763E-067
   100.795000000000        -5.795241194421813E-067
   100.985000000000        -6.203248586853140E-067
   101.175000000000        -6.055844978325980E-067
   101.365000000000        -5.140953804027514E-067
   101.555000000000        -3.249404674903122E-067
   101.745000000000        -2.007083960869406E-068
   101.935000000000         4.124064101729352E-067
   102.125000000000         9.743306423463807E-067
   102.315000000000         1.653194000469785E-066
   102.505000000000         2.417797718939856E-066
   102.695000000000         3.214349131107225E-066
   102.885000000000         3.963634290374976E-066
   103.075000000000         4.560027612741552E-066
   103.265000000000         4.873186755723047E-066
   103.455000000000         4.753302126730623E-066
   103.645000000000         4.040697626426861E-066
   103.835000000000         2.580384178749684E-066
   104.025000000000         2.418253923720730E-067
   104.215000000000        -3.056331855931722E-066
   104.405000000000        -7.317484512421491E-066
   104.595000000000        -1.243601126462363E-065
   104.785000000000        -1.816662297676911E-065
   104.975000000000        -2.409782848906608E-065
   105.165000000000        -2.963417577197942E-065
   105.355000000000        -3.399271307764601E-065
   105.545000000000        -3.621956950571343E-065
   105.735000000000        -3.523250048343570E-065
   105.925000000000        -2.989449359838967E-065
   106.115000000000        -1.912190655791264E-065
   106.305000000000        -2.027968759721270E-066
   106.495000000000         2.190125798337520E-065
   106.685000000000         5.260617753038602E-065
   106.875000000000         8.924167603950075E-065
   107.065000000000         1.299736748354620E-064
   107.255000000000         1.718105123474616E-064
   107.445000000000         2.105013426424571E-064
   107.635000000000         2.405381633503968E-064
   107.825000000000         2.552999931112272E-064
   108.015000000000         2.473759618781401E-064
   108.205000000000         2.090975081982491E-064
   108.395000000000         1.332974760436743E-064
   108.585000000000         1.429494126601379E-065
   108.775000000000        -1.509211746793142E-064
   108.965000000000        -3.613687964967076E-064
   109.155000000000        -6.107060047361040E-064
   109.345000000000        -8.859572132019648E-064
   109.535000000000        -1.166507617518259E-063
   109.725000000000        -1.423575022117663E-063
   109.915000000000        -1.620390687776078E-063
   110.105000000000        -1.713325704865002E-063