  -1.42500000000000         0.000000000000000E+000
  -1.23500000000000         0.000000000000000E+000
  -1.04500000000000         0.000000000000000E+000
 -0.855000000000000         0.000000000000000E+000
 -0.665000000000000         0.000000000000000E+000
 -0.475000000000000         0.000000000000000E+000
 -0.285000000000000         0.000000000000000E+000
 -9.499999999999975E-002    0.000000000000000E+000
  9.500000000000020E-002    0.000000000000000E+000
  0.285000000000000         0.000000000000000E+000
  0.475000000000000         0.000000000000000E+000
  0.665000000000000         0.000000000000000E+000
  0.855000000000000         0.000000000000000E+000
   1.04500000000000         0.000000000000000E+000
   1.23500000000000         0.000000000000000E+000
   1.42500000000000         0.000000000000000E+000
   1.61500000000000         0.000000000000000E+000
   1.80500000000000         0.000000000000000E+000
   1.99500000000000         0.000000000000000E+000
   2.18500000000000         0.000000000000000E+000
   2.37500000000000         0.000000000000000E+000
   2.56500000000000         0.000000000000000E+000
   2.75500000000000         0.000000000000000E+000
   2.94500000000000         0.000000000000000E+000
   3.13500000000000         0.000000000000000E+000
   3.32500000000000         0.000000000000000E+000
   3.51500000000000         0.000000000000000E+000
   3.70500000000000         0.000000000000000E+000
   3.89500000000000         0.000000000000000E+000
   4.08500000000000         0.000000000000000E+000
   4.27500000000000         0.000000000000000E+000
   4.46500000000000         0.000000000000000E+000
   4.65500000000000         0.000000000000000E+000
   4.84500000000000         0.000000000000000E+000
   5.03500000000000         0.000000000000000E+000
   5.22500000000000         0.000000000000000E+000
   5.41500000000000         0.000000000000000E+000
   5.60500000000000         0.000000000000000E+000
   5.79500000000000         0.000000000000000E+000
   5.98500000000000         0.000000000000000E+000
   6.17500000000000         0.000000000000000E+000
   6.36500000000000         5.298438300173086E-184
   6.55500000000000        -6.030250444157973E-178
   6.74500000000000        -3.519222186935214E-176
   6.93500000000000         1.055548934802209E-173
   7.12500000000000         1.002220160685571E-171
   7.31500000000000         2.787407590706231E-170
   7.50500000000000        -4.444396154228243E-170
   7.69500000000000        -2.608453472198252E-167
   7.88500000000000        -9.780000255746298E-166
   8.07500000000000        -2.273101315022853E-164
   8.26500000000000        -3.975081258684298E-163
   8.45500000000000        -5.642311855868579E-162
   8.64500000000000        -6.777532407776658E-161
   8.83500000000000        -7.078832610585307E-160
   9.02500000000000        -6.555255569258608E-159
   9.21500000000000        -5.463858456188529E-158
   9.40500000000000        -4.150210816876526E-157
   9.59500000000000        -2.903882994411592E-156
   9.78500000000000        -1.890209425042119E-155
   9.97500000000000        -1.155460719750286E-154
   10.1650000000000        -6.694513382061467E-154
   10.3550000000000        -3.709377430506263E-153
   10.5450000000000        -1.982184093998111E-152
   10.7350000000000        -1.028874686916797E-151
   10.9250000000000        -5.214754406232041E-151
   11.1150000000000        -2.588117087824052E-150
   11.3050000000000        -1.258290090105211E-149
   11.4950000000000        -5.983452851949639E-149
   11.6850000000000        -2.775430716627962E-148
   11.8750000000000        -1.251983024607015E-147
   12.0650000000000        -5.476905681907331E-147
   12.2550000000000        -2.318177164869747E-146
   12.4450000000000        -9.477604860072041E-146
   12.6350000000000        -3.738465008416558E-145
   12.8250000000000        -1.421734298337335E-144
   13.0150000000000        -5.210627967920454E-144
   13.2050000000000        -1.839918698682376E-143
   13.3950000000000        -6.258358210581377E-143
   13.5850000000000        -2.050092870096728E-142
   13.7750000000000        -6.465097415325692E-142
   13.9650000000000        -1.961526633491306E-141
   14.1550000000000        -5.719969720942332E-141
   14.3450000000000        -1.600618062274888E-140
   14.5350000000000        -4.287592688957430E-140
   14.7250000000000        -1.095253901811056E-139
   14.9150000000000        -2.651798930588584E-139
   15.1050000000000        -6.023180647156453E-139
   15.2950000000000        -1.259443625747891E-138
   15.4850000000000        -2.329409297493002E-138
   15.6750000000000        -3.411113520259389E-138
   15.8650000000000        -2.055545786895778E-138
   16.0550000000000         1.083813709710855E-137
   16.2450000000000         6.334091208810081E-137
   16.4350000000000         2.329290507664853E-136
   16.6250000000000         7.165620272365423E-136
   16.8150000000000         1.981280750073279E-135
   17.0050000000000         5.064589635133835E-135
   17.1950000000000         1.212165070679222E-134
   17.3850000000000         2.730029518369678E-134
   17.5750000000000         5.783188604717919E-134
   17.7650000000000         1.145041937731425E-133
   17.9550000000000         2.085819838939826E-133
   18.1450000000000         3.368328052267090E-133
   18.3350000000000         4.334119050011788E-133
   18.5250000000000         2.381787853309366E-133
   18.7150000000000        -1.032356901881830E-132
   18.9050000000000        -5.458501448846178E-132
   19.0950000000000        -1.815473234753330E-131
   19.2850000000000        -5.103313622619375E-131
   19.4750000000000        -1.307072237461676E-130
   19.6650000000000        -3.146264676375956E-130
   19.8550000000000        -7.230967253206832E-130
   20.0450000000000        -1.600924542797223E-129
   20.2350000000000        -3.431961188988768E-129
   20.4250000000000        -7.142689467388970E-129
   20.6150000000000        -1.444286875239660E-128
   20.8050000000000        -2.834576024387301E-128
   20.9950000000000        -5.384142832022320E-128
   21.1850000000000        -9.845101102651070E-128
   21.3750000000000        -1.717155330759941E-127
   21.5650000000000        -2.810472582315948E-127
   21.7550000000000        -4.177800986516979E-127
   21.9450000000000        -5.198488536641075E-127
   22.1350000000000        -3.831526911374556E-127
   22.3250000000000         5.326543007983879E-127
   22.5150000000000         3.503528215833090E-126
   22.7050000000000         1.131803666801944E-125
   22.8950000000000         2.971207285455362E-125
   23.0850000000000         6.988158073185131E-125
   23.2750000000000         1.526383715871718E-124
   23.4650000000000         3.148374400315332E-124
   23.6550000000000         6.184873239925710E-124
   23.8450000000000         1.162061830174518E-123
   24.0350000000000         2.091252404956384E-123
   24.2250000000000         3.601581270720386E-123
   24.4150000000000         5.916240434879454E-123
   24.6050000000000         9.207045191500181E-123
   24.7950000000000         1.340222564641801E-122
   24.9850000000000         1.779067254798373E-122
   25.1750000000000         2.029018365777098E-122
   25.3650000000000         1.620621003244803E-122
   25.5550000000000        -3.711003086266673E-123
   25.7450000000000        -5.605914380732016E-122
   25.9350000000000        -1.684061474057433E-121
   26.1250000000000        -3.833503992978245E-121
   26.3150000000000        -7.619897388143102E-121
   26.5050000000000        -1.384899276069368E-120
   26.6950000000000        -2.347909166331032E-120
   26.8850000000000        -3.750088073174294E-120
   27.0750000000000        -5.674289771248899E-120
   27.2650000000000        -8.170063887690041E-120
   27.4550000000000        -1.127088266583602E-119
   27.6450000000000        -1.512195023814703E-119
   27.8350000000000        -2.037393058642131E-119
   28.0250000000000        -2.912531051495723E-119
   28.2150000000000        -4.687983558146249E-119
   28.4050000000000        -8.621359828352080E-119
   28.5950000000000        -1.730592977657808E-118
   28.7850000000000        -3.565571693862694E-118
   28.9750000000000        -7.229628247194481E-118
   29.1650000000000        -1.412518359019738E-117
   29.3550000000000        -2.634400105812779E-117
   29.5450000000000        -4.667088103738694E-117
   29.7350000000000        -7.817049355007677E-117
   29.9250000000000        -1.228358272369587E-116
   30.1150000000000        -1.783681281132433E-116
   30.3050000000000        -2.315290261827830E-116
   30.4950000000000        -2.455968089709303E-116
   30.6850000000000        -1.382520285365801E-116
   30.8750000000000         2.551789150532106E-116
   31.0650000000000         1.239361792782476E-115
   31.2550000000000         3.343561314156949E-115
   31.4450000000000         7.435378905308722E-115
   31.6350000000000         1.485305715786600E-114
   31.8250000000000         2.751461453914328E-114
   32.0150000000000         4.789502814927228E-114
   32.2050000000000         7.863006214467445E-114
   32.3950000000000         1.212596858873554E-113
   32.5850000000000         1.731952199031340E-113
   32.7750000000000         2.212895064538189E-113
   32.9650000000000         2.293066458526656E-113
   33.1550000000000         1.150611433998284E-113
   33.3450000000000        -2.888990077346020E-113
   33.5350000000000        -1.299025681522342E-112
   33.7250000000000        -3.477488004447669E-112
   33.9150000000000        -7.767279031514469E-112
   34.1050000000000        -1.565930523990291E-111
   34.2950000000000        -2.935606023994785E-111
   34.4850000000000        -5.183659085235593E-111
   34.6750000000000        -8.661643281155257E-111
   34.8650000000000        -1.368071730629168E-110
   35.0550000000000        -2.027829080818747E-110
   35.2450000000000        -2.773308585754893E-110
   35.4350000000000        -3.366040925194527E-110
   35.6250000000000        -3.245772120645505E-110
   35.8150000000000        -1.282395221090120E-110
   36.0050000000000         4.591036733460681E-110
   36.1950000000000         1.787469282603251E-109
   36.3850000000000         4.409376914395970E-109
   36.5750000000000         9.135689769403311E-109
   36.7650000000000         1.705766717164700E-108
   36.9550000000000         2.947534736916437E-108
   37.1450000000000         4.762717409274546E-108
   37.3350000000000         7.205228262216090E-108
   37.5250000000000         1.013368915419305E-107
   37.7150000000000         1.299110359700662E-107
   37.9050000000000         1.444999220923190E-107
   38.0950000000000         1.188522731992016E-107
   38.2850000000000         6.565086665675140E-109
   38.4750000000000        -2.676441048553289E-107
   38.6650000000000        -8.167769862698492E-107
   38.8550000000000        -1.797130520616309E-106
   39.0450000000000        -3.404130029760990E-106
   39.2350000000000        -5.847392761207151E-106
   39.4250000000000        -9.287939699907403E-106
   39.6150000000000        -1.371333649091061E-105
   39.8050000000000        -1.871968112311932E-105
   39.9950000000000        -2.316565910285763E-105
   40.1850000000000        -2.466855222005063E-105
   40.3750000000000        -1.893343752226352E-105
   40.5650000000000         1.043050294557964E-106
   40.7550000000000         4.575816853040333E-105
   40.9450000000000         1.296834330591833E-104
   41.1350000000000         2.709068151287332E-104
   41.3250000000000         4.890749262413845E-104
   41.5150000000000         8.003661493065876E-104
   41.7050000000000         1.207791547398293E-103
   41.8950000000000         1.684777615986465E-103
   42.0850000000000         2.149952046357478E-103
   42.2750000000000         2.431685448943551E-103
   42.4650000000000         2.222759108632285E-103
   42.6550000000000         1.029224110501717E-103
   42.8450000000000        -1.876088059510067E-103
   43.0350000000000        -7.475030682783987E-103
   43.2250000000000        -1.696623254270534E-102
   43.4150000000000        -3.161560729353012E-102
   43.6050000000000        -5.242296056073645E-102
   43.7950000000000        -7.951403374506571E-102
   43.9850000000000        -1.111584045128101E-101
   44.1750000000000        -1.423267305729210E-101
   44.3650000000000        -1.627544418459937E-101
   44.5550000000000        -1.545980424806537E-101
   44.7450000000000        -8.998457823117572E-102
   44.9350000000000         7.090465973519457E-102
   45.1250000000000         3.800852862008697E-101
   45.3150000000000         8.985846208295509E-101
   45.5050000000000         1.687301054825808E-100
   45.6950000000000         2.788650513422252E-100
   45.8850000000000         4.195242055439152E-100
   46.0750000000000         5.801941941742642E-100
   46.2650000000000         7.338985845225096E-100
   46.4550000000000         8.287045155533108E-100
   46.6450000000000         7.781272676975086E-100
   46.8350000000000         4.521324959927296E-100
   47.0250000000000        -3.281015989346428E-100
   47.2150000000000        -1.786549169507654E-099
   47.4050000000000        -4.172370880459916E-099
   47.5950000000000        -7.713712974655619E-099
   47.7850000000000        -1.253340960774416E-098
   47.9750000000000        -1.851425684337496E-098
   48.1650000000000        -2.510404310539723E-098
   48.3550000000000        -3.105806450219516E-098
   48.5450000000000        -3.413193614407222E-098
   48.7350000000000        -3.076285371823319E-098
   48.9250000000000        -1.581544447506378E-098
   49.1150000000000         1.747992722088285E-098
   49.3050000000000         7.720467450918431E-098
   49.4950000000000         1.717838634660937E-097
   49.6850000000000         3.080487006310092E-097
   49.8750000000000         4.879740424376348E-097
   50.0650000000000         7.037689793658807E-097
   50.2550000000000         9.311459718847993E-097
   50.4450000000000         1.120915617355037E-096
   50.6350000000000         1.189617146741391E-096
   50.8250000000000         1.010761832846920E-096
   51.0150000000000         4.094758319961843E-097
   51.2050000000000        -8.351359123260925E-097
   51.3950000000000        -2.973834941298256E-096
   51.5850000000000        -6.249533579841921E-096
   51.7750000000000        -1.082906176597233E-095
   51.9650000000000        -1.669551294870561E-095
   52.1550000000000        -2.349457565609191E-095
   52.3450000000000        -3.033412278112426E-095
   52.5350000000000        -3.554724099549247E-095
   52.7250000000000        -3.644631072069696E-095
   52.9150000000000        -2.912077842587233E-095
   53.1050000000000        -8.364024270981383E-096
   53.2950000000000         3.214640894006730E-095
   53.4850000000000         9.925038336449045E-095
   53.6750000000000         1.990896882431222E-094
   53.8650000000000         3.350625536507588E-094
   54.0550000000000         5.047600684619592E-094
   54.2450000000000         6.957852822788646E-094
   54.4350000000000         8.805382497878411E-094
   54.6250000000000         1.010357325236659E-093
   54.8150000000000         1.009864828286227E-093
   55.0050000000000         7.729855532679014E-094
   55.1950000000000         1.628731538251830E-094
   55.3850000000000        -9.811698414493645E-094
   55.5750000000000        -2.825886015613714E-093
   55.7650000000000        -5.510931646971586E-093
   55.9550000000000        -9.096012698456014E-093
   56.1450000000000        -1.348492283399315E-092
   56.3350000000000        -1.832569718194991E-092
   56.5250000000000        -2.289079241346790E-092
   56.7150000000000        -2.594856282886509E-092
   56.9050000000000        -2.564768678425043E-092
   57.0950000000000        -1.944957873406949E-092
   57.2850000000000        -4.159499412967246E-093
   57.4750000000000         2.387665401730172E-092
   57.6650000000000         6.832909930550094E-092
   57.8550000000000         1.321071030041402E-091
   58.0450000000000         2.161679841351156E-091
   58.2350000000000         3.178615481374507E-091
   58.4250000000000         4.288206963518419E-091
   58.6150000000000         5.325120902168930E-091
   58.8050000000000         6.017136751313513E-091
   58.9950000000000         5.963919101398366E-091
   59.1850000000000         4.627053487187003E-091
   59.3750000000000         1.341438445801110E-091
   59.5650000000000        -4.639138270864240E-091
   59.7550000000000        -1.404738947104033E-090
   59.9450000000000        -2.744362911671442E-090
   60.1350000000000        -4.497973232299987E-090
   60.3250000000000        -6.607975194630016E-090
   60.5150000000000        -8.904343637584320E-090
   60.7050000000000        -1.105985795189148E-089
   60.8950000000000        -1.254560223762820E-089
   61.0850000000000        -1.259571943429604E-089
   61.2750000000000        -1.019466789080372E-089
   61.4650000000000        -4.104738290181773E-090
   61.6550000000000         7.044369122474935E-090
   61.8450000000000         2.457962836170814E-089
   62.0350000000000         4.949874537684213E-089
   62.2250000000000         8.205605463019469E-089
   62.4150000000000         1.212147883940671E-088
   62.6050000000000         1.639822131249741E-088
   62.7950000000000         2.046771694104320E-088
   62.9850000000000         2.342244934366548E-088
   63.1750000000000         2.396267147954277E-088
   63.3650000000000         2.038267329851570E-088
   63.5550000000000         1.062386409308547E-088
   63.7450000000000        -7.572429968633222E-089
   63.9350000000000        -3.637722726888142E-088
   64.1250000000000        -7.741873125246020E-088
   64.3150000000000        -1.311377233301505E-087
   64.5050000000000        -1.959524683141866E-087
   64.6950000000000        -2.672662216553281E-087
   64.8850000000000        -3.363994751490859E-087
   65.0750000000000        -3.895931564266157E-087
   65.2650000000000        -4.073055372837836E-087
   65.4550000000000        -3.641082199347446E-087
   65.6450000000000        -2.295639512357492E-087
   65.8350000000000         2.947591771990979E-088
   66.0250000000000         4.447069048354231E-087
   66.2150000000000         1.039956815326367E-086
   66.4050000000000         1.822308580147123E-086
   66.5950000000000         2.770856078404641E-086
   66.7850000000000         3.823659479476004E-086
   66.9750000000000         4.864111177788594E-086
   67.1650000000000         5.708727274584183E-086
   67.3550000000000         6.099291926382382E-086
   67.5450000000000         5.703203435115801E-086
   67.7350000000000         4.126644245950264E-086
   67.9250000000000         9.456017428063700E-087
   68.1150000000000        -4.240476181145983E-086
   68.3050000000000        -1.172881809073391E-085
   68.4950000000000        -2.160619354002075E-085
   68.6850000000000        -3.361752457007367E-085
   68.8750000000000        -4.701907957454714E-085
   69.0650000000000        -6.043256402735073E-085
   69.2550000000000        -7.172516019414168E-085
   69.4450000000000        -7.794970935084299E-085
   69.6350000000000        -7.538737469111538E-085
   69.8250000000000        -5.974027608426614E-085
   70.0150000000000        -2.652119362498262E-085
   70.2050000000000         2.832146382931266E-085
   70.3950000000000         1.075256791646912E-084
   70.5850000000000         2.114017004453897E-084
   70.7750000000000         3.365488505077624E-084
   70.9650000000000         4.745355523685105E-084
   71.1550000000000         6.107512549667480E-084
   71.3450000000000         7.237185896864383E-084
   71.5350000000000         7.852239337696769E-084
   71.7250000000000         7.616660722323459E-084
   71.9150000000000         6.170122065482093E-084
   72.1050000000000         3.176610133840810E-084
   72.2950000000000        -1.606836766430647E-084
   72.4850000000000        -8.243504890743257E-084
   72.6750000000000        -1.651937046249294E-083
   72.8650000000000        -2.584729120833858E-083
   73.0550000000000        -3.519271348896060E-083
   73.2450000000000        -4.304750354246097E-083
   73.4350000000000        -4.748417079918084E-083
   73.6250000000000        -4.632528494619048E-083
   73.8150000000000        -3.745992970645319E-083
   74.0050000000000        -1.932787597315837E-083
   74.1950000000000         8.429939819187378E-084
   74.3850000000000         4.419133030961368E-083
   74.5750000000000         8.352938088381567E-083
   74.7650000000000         1.184944701652738E-082
   74.9550000000000         1.372222238511166E-082
   75.1450000000000         1.241596814845483E-082
   75.3350000000000         6.126023763037960E-083
   75.5250000000000        -6.947705237564447E-083
   75.7150000000000        -2.817817871217820E-082
   75.9050000000000        -5.789800071498009E-082
   76.0950000000000        -9.459766041285029E-082
   76.2850000000000        -1.339761940114801E-081
   76.4750000000000        -1.679405052140306E-081
   76.6650000000000        -1.837210239302229E-081
   76.8550000000000        -1.633555936639788E-081
   77.0450000000000        -8.388269755504545E-082
   77.2350000000000         8.133395534516300E-082
   77.4250000000000         3.596746414143137E-081
   77.6150000000000         7.742536155189755E-081
   77.8050000000000         1.336445978211890E-080
   77.9950000000000         2.035780471886897E-080
   78.1850000000000         2.827400537214424E-080
   78.3750000000000         3.617859554141438E-080
   78.5650000000000         4.250784779860540E-080
   78.7550000000000         4.494906120948330E-080
   78.9450000000000         4.038048700818085E-080
   79.1350000000000         2.491826443955245E-080
   79.3250000000000        -5.872250698314468E-081
   79.5150000000000        -5.653723174609492E-080
   79.7050000000000        -1.310046435931400E-079
   79.8950000000000        -2.315135115679231E-079
   80.0850000000000        -3.571791655778955E-079
   80.2750000000000        -5.022186351831326E-079
   80.4650000000000        -6.539308079936017E-079
   80.6550000000000        -7.906213349973331E-079
   80.8450000000000        -8.797812168309026E-079
   81.0350000000000        -8.769646561612354E-079
   81.2250000000000        -7.259541714583252E-079
   81.4150000000000        -3.609297138333969E-079
   81.6050000000000         2.885543008814023E-079
   81.7950000000000         1.288971166675689E-078
   81.9850000000000         2.689903972229912E-078
   82.1750000000000         4.506393765301987E-078
   82.3650000000000         6.696646717801589E-078
   82.5550000000000         9.135963193939443E-078
   82.7450000000000         1.158880897950106E-077
   82.9350000000000         1.368228696828856E-077
   83.1250000000000         1.488583361957530E-077
   83.3150000000000         1.450364365653532E-077
   83.5050000000000         1.168792662310436E-077
   83.6950000000000         5.482339142604629E-078
   83.8850000000000        -5.094556830669201E-078
   84.0750000000000        -2.091664620007168E-077
   84.2650000000000        -4.256166087898143E-077
   84.4550000000000        -7.006451908037269E-077
   84.6450000000000        -1.026178864489125E-076
   84.8350000000000        -1.382357063082040E-076
   85.0250000000000        -1.734090446042268E-076
   85.2150000000000        -2.027999667236193E-076
   85.4050000000000        -2.190373674949160E-076
   85.5950000000000        -2.126970363365336E-076
   85.7850000000000        -1.725642188328643E-076
   85.9750000000000        -8.628706778507171E-077
   86.1650000000000         5.847070132596352E-077
   86.3550000000000         2.722850077041932E-076
   86.5450000000000         5.615776247176462E-076
   86.7350000000000         9.255786648102783E-076
   86.9250000000000         1.352742771101636E-075
   87.1150000000000         1.816840789183451E-075
   87.3050000000000         2.273103701918311E-075
   87.4950000000000         2.654974905584069E-075
   87.6850000000000         2.872217678719800E-075
   87.8750000000000         2.811306410640456E-075
   88.0650000000000         2.339173683628495E-075
   88.2550000000000         1.311452804989131E-075
   88.4450000000000        -4.136986568483623E-076
   88.6350000000000        -2.955335026770198E-075
   88.8250000000000        -6.382608907146014E-075
   89.0150000000000        -1.068111732206070E-074
   89.2050000000000        -1.571403618304529E-074
   89.3950000000000        -2.118069601954708E-074
   89.5850000000000        -2.657684884273408E-074
   89.7750000000000        -3.116266134552825E-074
   89.9650000000000        -3.394629548657266E-074
   90.1550000000000        -3.369258253140329E-074
   90.3450000000000        -2.896746169522880E-074
   90.5350000000000        -1.822916658144769E-074
   90.7250000000000         2.383005257906008E-077
   90.9150000000000         2.704082051720369E-074
   91.1050000000000         6.354042804281979E-074
   91.2950000000000         1.093707983030017E-073
   91.4850000000000         1.631236691525457E-073
   91.6750000000000         2.217304208890926E-073
   91.8650000000000         2.800832688258097E-073
   92.0550000000000         3.307410934884792E-073
   92.2450000000000         3.637954976264533E-073
   92.4350000000000         3.669863806989452E-073
   92.6250000000000         3.261648327012505E-073
   92.8150000000000         2.262011006599348E-073
   93.0050000000000         5.242300983276573E-074
   93.1950000000000        -2.073583239756030E-073
   93.3850000000000        -5.602268668978347E-073
   93.5750000000000        -1.005005917405246E-072
   93.7650000000000        -1.528723503828962E-072
   93.9550000000000        -2.102969072558241E-072
   94.1450000000000        -2.680542838637482E-072
   94.3350000000000        -3.192937508770848E-072
   94.5250000000000        -3.549323455484882E-072
   94.7150000000000        -3.637813601336744E-072
   94.9050000000000        -3.329839112889168E-072
   95.0950000000000        -2.488443330449239E-072
   95.2850000000000        -9.811687573997433E-073
   95.4750000000000         1.302059440615333E-072
   95.6650000000000         4.426085482294306E-072
   95.8550000000000         8.383358149510200E-072
   96.0450000000000         1.306389277278602E-071
   96.2350000000000         1.822475906875565E-071
   96.4250000000000         2.346255901066386E-071
   96.6150000000000         2.819345041506811E-071
   96.8050000000000         3.164626869999434E-071
   96.9950000000000         3.287504172676737E-071
   97.1850000000000         3.079748627195076E-071
   97.3750000000000         2.426569931709091E-071
   97.5650000000000         1.217398329748763E-071
   97.7550000000000        -6.393643660206475E-072
   97.9450000000000        -3.197737294798620E-071
   98.1350000000000        -6.452312554247746E-071
   98.3250000000000        -1.031441872779677E-070
   98.5150000000000        -1.458829404900499E-070
   98.7050000000000        -1.895007907018823E-070
   98.8950000000000        -2.293324611419803E-070
   99.0850000000000        -2.592478821854795E-070
   99.2750000000000        -2.717696903978058E-070
   99.4650000000000        -2.583953958154262E-070
   99.6550000000000        -2.101689534570748E-070
   99.8450000000000        -1.185351514539574E-070
   100.035000000000         2.350955283029266E-071
   100.225000000000         2.199853912590330E-070
   100.415000000000         4.702715729606742E-070
   100.605000000000         7.673254447126514E-070
   100.795000000000         1.095936735177968E-069
   100.985000000000         1.431233729084684E-069
   101.175000000000         1.737714672419763E-069
   101.365000000000         1.969124515635158E-069
   101.555000000000         2.069524989027159E-069
   101.745000000000         1.975904286245952E-069
   101.935000000000         1.622629903529353E-069
   102.125000000000         9.479533750735177E-070
   102.315000000000        -9.738054950279072E-071
   102.505000000000        -1.539591099450506E-069
   102.695000000000        -3.369846592526567E-069
   102.885000000000        -5.531589551265079E-069
   103.075000000000        -7.908406851701712E-069
   103.265000000000        -1.031405614900695E-068
   103.455000000000        -1.248663742550040E-068
   103.645000000000        -1.408919271185879E-068
   103.835000000000        -1.471916157085452E-068
   104.025000000000        -1.392904028203713E-068
   104.215000000000        -1.126021148557357E-068
   104.405000000000        -6.291156012725042E-069
   104.595000000000         1.299927304869353E-069
   104.785000000000         1.165971428114745E-068
   104.975000000000         2.467527520101192E-068
   105.165000000000         3.988671058443219E-068
   105.355000000000         5.640580746028325E-068
   105.545000000000         7.285235995199755E-068
   105.735000000000         8.732225624673966E-068
   105.925000000000         9.740322295988877E-068
   106.115000000000         1.002547775235381E-067
   106.305000000000         9.276796306842653E-068
   106.495000000000         7.181731534625130E-068
   106.685000000000         3.461177373522938E-068
   106.875000000000        -2.085744526646206E-068
   107.065000000000        -9.528578248085201E-068
   107.255000000000        -1.874695746181009E-067
   107.445000000000        -2.937112062236388E-067
   107.635000000000        -4.072792581214316E-067
   107.825000000000        -5.180060030013368E-067
   108.015000000000        -6.121205250210481E-067
   108.205000000000        -6.724266485660491E-067
   108.395000000000        -6.789376296777847E-067
   108.585000000000        -6.100708066516522E-067
   108.775000000000        -4.444817536160091E-067
   108.965000000000        -1.635759578248922E-067
   109.155000000000         2.453254535111484E-067
   109.345000000000         7.852715479774008E-067
   109.535000000000         1.445626007018850E-066
   109.725000000000         2.197993827530067E-066
   109.915000000000         2.992578750735415E-066
   110.105000000000         3.755541918066087E-066