  -1.42500000000000         0.000000000000000E+000
  -1.23500000000000         0.000000000000000E+000
  -1.04500000000000         0.000000000000000E+000
 -0.855000000000000         0.000000000000000E+000
 -0.665000000000000         0.000000000000000E+000
 -0.475000000000000         0.000000000000000E+000
 -0.285000000000000         0.000000000000000E+000
 -9.499999999999975E-002    0.000000000000000E+000
  9.500000000000020E-002    0.000000000000000E+000
  0.285000000000000         0.000000000000000E+000
  0.475000000000000         0.000000000000000E+000
  0.665000000000000         0.000000000000000E+000
  0.855000000000000         0.000000000000000E+000
   1.04500000000000         0.000000000000000E+000
   1.23500000000000         0.000000000000000E+000
   1.42500000000000         0.000000000000000E+000
   1.61500000000000         0.000000000000000E+000
   1.80500000000000         0.000000000000000E+000
   1.99500000000000         0.000000000000000E+000
   2.18500000000000         0.000000000000000E+000
   2.37500000000000         0.000000000000000E+000
   2.56500000000000         0.000000000000000E+000
   2.75500000000000         0.000000000000000E+000
   2.94500000000000         0.000000000000000E+000
   3.13500000000000         0.000000000000000E+000
   3.32500000000000         0.000000000000000E+000
   3.51500000000000         0.000000000000000E+000
   3.70500000000000         0.000000000000000E+000
   3.89500000000000         0.000000000000000E+000
   4.08500000000000         0.000000000000000E+000
   4.27500000000000         0.000000000000000E+000
   4.46500000000000         0.000000000000000E+000
   4.65500000000000         0.000000000000000E+000
   4.84500000000000         0.000000000000000E+000
   5.03500000000000         0.000000000000000E+000
   5.22500000000000         0.000000000000000E+000
   5.41500000000000         0.000000000000000E+000
   5.60500000000000         0.000000000000000E+000
   5.79500000000000         0.000000000000000E+000
   5.98500000000000         0.000000000000000E+000
   6.17500000000000         0.000000000000000E+000
   6.36500000000000         4.924735299198737E-185
   6.55500000000000        -1.546643547130693E-179
   6.74500000000000        -3.462446927007665E-178
   6.93500000000000        -4.673374534412756E-175
   7.12500000000000        -4.511430096779174E-173
   7.31500000000000        -1.273106615566053E-171
   7.50500000000000        -1.257178861304847E-171
   7.69500000000000         9.289830300934161E-169
   7.88500000000000         3.392869706857166E-167
   8.07500000000000         7.446365406341076E-166
   8.26500000000000         1.214317738361146E-164
   8.45500000000000         1.592417599084204E-163
   8.64500000000000         1.751309861609170E-162
   8.83500000000000         1.658412199393846E-161
   9.02500000000000         1.377053471479900E-160
   9.21500000000000         1.016302275381749E-159
   9.40500000000000         6.740371219020367E-159
   9.59500000000000         4.058348909695528E-158
   9.78500000000000         2.243489750254849E-157
   9.97500000000000         1.155868875071283E-156
   10.1650000000000         5.670927078721083E-156
   10.3550000000000         2.727918695913354E-155
   10.5450000000000         1.327519548772368E-154
   10.7350000000000         6.662439386238676E-154
   10.9250000000000         3.430344388472222E-153
   11.1150000000000         1.765800807943096E-152
   11.3050000000000         8.803679457269430E-152
   11.4950000000000         4.132622398950981E-151
   11.6850000000000         1.780150508172936E-150
   11.8750000000000         6.810628543865613E-150
   12.0650000000000         2.166175421458139E-149
   12.2550000000000         4.542364237046435E-149
   12.4450000000000        -5.083322800998586E-149
   12.6350000000000        -1.317339208347777E-147
   12.8250000000000        -9.958573136251323E-147
   13.0150000000000        -5.729508653425826E-146
   13.2050000000000        -2.858042569968715E-145
   13.3950000000000        -1.293974148204184E-144
   13.5850000000000        -5.434505741730953E-144
   13.7750000000000        -2.143311437995497E-143
   13.9650000000000        -7.998038988356275E-143
   14.1550000000000        -2.837867789464025E-142
   14.3450000000000        -9.605494493104529E-142
   14.5350000000000        -3.107785412891539E-141
   14.7250000000000        -9.621456757628645E-141
   14.9150000000000        -2.850585266996539E-140
   15.1050000000000        -8.074560456895991E-140
   15.2950000000000        -2.181694416764426E-139
   15.4850000000000        -5.598711052440228E-139
   15.6750000000000        -1.354191134446330E-138
   15.8650000000000        -3.044347735264043E-138
   16.0550000000000        -6.184423460629323E-138
   16.2450000000000        -1.059813815724861E-137
   16.4350000000000        -1.180432168491349E-137
   16.6250000000000         1.102279664872615E-137
   16.8150000000000         1.308604708712794E-136
   17.0050000000000         5.705376707314929E-136
   17.1950000000000         1.951480102411318E-135
   17.3850000000000         5.889098923905642E-135
   17.5750000000000         1.633498678214615E-134
   17.7650000000000         4.241747477062535E-134
   17.9550000000000         1.040300844976409E-133
   18.1450000000000         2.418278067534926E-133
   18.3350000000000         5.326326430957200E-133
   18.5250000000000         1.106521807447433E-132
   18.7150000000000         2.145147753109499E-132
   18.9050000000000         3.793061398017028E-132
   19.0950000000000         5.792349927246351E-132
   19.2850000000000         6.366142146779865E-132
   19.4750000000000        -7.492290973107335E-133
   19.6650000000000        -3.352237590247253E-131
   19.8550000000000        -1.380464728465176E-130
   20.0450000000000        -4.238522765551692E-130
   20.2350000000000        -1.136076846483574E-129
   20.4250000000000        -2.795807363389372E-129
   20.6150000000000        -6.459276469340688E-129
   20.8050000000000        -1.416979322151548E-128
   20.9950000000000        -2.969248568581816E-128
   21.1850000000000        -5.959972593720734E-128
   21.3750000000000        -1.146400935537532E-127
   21.5650000000000        -2.109189178971955E-127
   21.7550000000000        -3.694407664630788E-127
   21.9450000000000        -6.104738411369426E-127
   22.1350000000000        -9.351090396486092E-127
   22.3250000000000        -1.278996818968179E-126
   22.5150000000000        -1.410902187622568E-126
   22.7050000000000        -7.299259611840369E-127
   22.8950000000000         2.109903590866893E-126
   23.0850000000000         9.845508120462258E-126
   23.2750000000000         2.763066934653844E-125
   23.4650000000000         6.450973276797002E-125
   23.6550000000000         1.352329710870872E-124
   23.8450000000000         2.618604275946839E-124
   24.0350000000000         4.736567597128689E-124
   24.2250000000000         8.020348543490327E-124
   24.4150000000000         1.264459791277320E-123
   24.6050000000000         1.827245070107530E-123
   24.7950000000000         2.332948143101303E-123
   24.9850000000000         2.376777777740782E-123
   25.1750000000000         1.126098716950996E-123
   25.3650000000000        -2.884944061014589E-123
   25.5550000000000        -1.185414456177189E-122
   25.7450000000000        -2.835233576880188E-122
   25.9350000000000        -5.372402359388804E-122
   26.1250000000000        -8.369070718023260E-122
   26.3150000000000        -9.833586763979393E-122
   26.5050000000000        -4.180122637959542E-122
   26.6950000000000         2.152721985281642E-121
   26.8850000000000         9.395130259433945E-121
   27.0750000000000         2.633343401281502E-120
   27.2650000000000         6.169341507174989E-120
   27.4550000000000         1.293791181288782E-119
   27.6450000000000         2.492987624152351E-119
   27.8350000000000         4.456170220799024E-119
   28.0250000000000         7.384221585462406E-119
   28.2150000000000         1.121311402002736E-118
   28.4050000000000         1.512144159680598E-118
   28.5950000000000         1.657286631142632E-118
   28.7850000000000         9.624774753301512E-119
   28.9750000000000        -1.779730582337661E-118
   29.1650000000000        -8.785307417523561E-118
   29.3550000000000        -2.377212997082344E-117
   29.5450000000000        -5.241434768638498E-117
   29.7350000000000        -1.023834087182698E-116
   29.9250000000000        -1.821558823717566E-116
   30.1150000000000        -2.970066236791455E-116
   30.3050000000000        -4.394167760969740E-116
   30.4950000000000        -5.694532370485401E-116
   30.6850000000000        -5.786460354316978E-116
   30.8750000000000        -2.290533037967615E-116
   31.0650000000000         9.410550117292275E-116
   31.2550000000000         3.749292977249923E-115
   31.4450000000000         9.529640541056714E-115
   31.6350000000000         2.027992683959312E-114
   31.8250000000000         3.869183686209262E-114
   32.0150000000000         6.784735715680737E-114
   32.2050000000000         1.101853779656326E-113
   32.3950000000000         1.650766671996007E-113
   32.5850000000000         2.239948944111435E-113
   32.7750000000000         2.618789577730202E-113
   32.9650000000000         2.229774977241427E-113
   33.1550000000000        -4.656418727907845E-116
   33.3450000000000        -5.973542841711514E-113
   33.5350000000000        -1.872611707246937E-112
   33.7250000000000        -4.279754063533595E-112
   33.9150000000000        -8.432169584211352E-112
   34.1050000000000        -1.505581389478419E-111
   34.2950000000000        -2.481818316594284E-111
   34.4850000000000        -3.792991606530675E-111
   34.6750000000000        -5.336825439132908E-111
   34.8650000000000        -6.752450447400958E-111
   35.0550000000000        -7.205104434237371E-111
   35.2450000000000        -5.071675501667819E-111
   35.4350000000000         2.475989329591305E-111
   35.6250000000000         1.995402337702160E-110
   35.8150000000000         5.400323221550971E-110
   36.0050000000000         1.135351623033923E-109
   36.1950000000000         2.091372032710544E-109
   36.3850000000000         3.509932838175045E-109
   36.5750000000000         5.442013896798595E-109
   36.7650000000000         7.799548232539169E-109
   36.9550000000000         1.020713064963225E-108
   37.1450000000000         1.177442856795696E-108
   37.3350000000000         1.077642973197563E-108
   37.5250000000000         4.247673284575633E-109
   37.7150000000000        -1.246343050897924E-108
   37.9050000000000        -4.606281459924672E-108
   38.0950000000000        -1.053703970106058E-107
   38.2850000000000        -2.006750668625058E-107
   38.4750000000000        -3.417721347198747E-107
   38.6650000000000        -5.338189858082349E-107
   38.8550000000000        -7.699078405124092E-107
   39.0450000000000        -1.019131931583845E-106
   39.2350000000000        -1.209085092974113E-106
   39.4250000000000        -1.202449969166763E-106
   39.6150000000000        -7.689670754594924E-107
   39.8050000000000         4.428997883433818E-107
   39.9950000000000         2.925372177174185E-106
   40.1850000000000         7.305385292131738E-106
   40.3750000000000         1.428713929473063E-105
   40.5650000000000         2.450558916260818E-105
   40.7550000000000         3.824173013300110E-105
   40.9450000000000         5.494256329390037E-105
   41.1350000000000         7.249054924935341E-105
   41.3250000000000         8.618885466465805E-105
   41.5150000000000         8.748318804637490E-105
   41.7050000000000         6.254525525526223E-105
   41.8950000000000        -8.984944513929097E-106
   42.0850000000000        -1.545450831876585E-104
   42.2750000000000        -4.075872007886918E-104
   42.4650000000000        -8.035901530720552E-104
   42.6550000000000        -1.371396401173065E-103
   42.8450000000000        -2.117778251922403E-103
   43.0350000000000        -3.003080574759181E-103
   43.2250000000000        -3.906307338579388E-103
   43.4150000000000        -4.579520977105115E-103
   43.6050000000000        -4.594405792013262E-103
   43.7950000000000        -3.288850715808529E-103
   43.9850000000000         2.710993073905043E-104
   44.1750000000000         7.288395955933472E-103
   44.3650000000000         1.915323765608889E-102
   44.5550000000000         3.723100626041371E-102
   44.7450000000000         6.245702769510254E-102
   44.9350000000000         9.467072177864724E-102
   45.1250000000000         1.316314548263794E-101
   45.3150000000000         1.676926229182601E-101
   45.5050000000000         1.921816483539105E-101
   45.6950000000000         1.876551523382823E-101
   45.8850000000000         1.283823618703641E-101
   46.0750000000000        -2.033863691836605E-102
   46.2650000000000        -3.011152941931613E-101
   46.4550000000000        -7.603862362758729E-101
   46.6450000000000        -1.439766755239968E-100
   46.8350000000000        -2.361067249369012E-100
   47.0250000000000        -3.503356921152184E-100
   47.2150000000000        -4.771072791413910E-100
   47.4050000000000        -5.953571291459737E-100
   47.5950000000000        -6.678967387163700E-100
   47.7850000000000        -6.368852603150127E-100
   47.9750000000000        -4.205657942068562E-100
   48.1650000000000         8.690818715450766E-101
   48.3550000000000         1.010001312757288E-099
   48.5450000000000         2.477424727833985E-099
   48.7350000000000         4.595124886564589E-099
   48.9250000000000         7.402899918435411E-099
   49.1150000000000         1.081177730067819E-098
   49.3050000000000         1.452145671736909E-098
   49.4950000000000         1.792106870209980E-098
   49.6850000000000         1.998263968733176E-098
   49.8750000000000         1.916521624773583E-098
   50.0650000000000         1.335844699140966E-098
   50.2550000000000        -9.317513640061553E-101
   50.4450000000000        -2.423178996410883E-098
   50.6350000000000        -6.212988975920550E-098
   50.8250000000000        -1.162692274566100E-097
   51.0150000000000        -1.875953679037765E-097
   51.2050000000000        -2.742124957068994E-097
   51.3950000000000        -3.697295374296665E-097
   51.5850000000000        -4.613419761021831E-097
   51.7750000000000        -5.278359500854739E-097
   51.9650000000000        -5.378299490278132E-097
   52.1550000000000        -4.487159877329942E-097
   52.3450000000000        -2.069101708125797E-097
   52.5350000000000         2.498524584028358E-097
   52.7250000000000         9.873732185581994E-097
   52.9150000000000         2.066207376553179E-096
   53.1050000000000         3.528592151499977E-096
   53.2950000000000         5.380703465628738E-096
   53.4850000000000         7.570254473968547E-096
   53.6750000000000         9.959922231324153E-096
   53.8650000000000         1.229755386903696E-095
   54.0550000000000         1.418444003736213E-095
   54.2450000000000         1.504302622696337E-095
   54.4350000000000         1.408519147975800E-095
   54.6250000000000         1.028173940160175E-095
   54.8150000000000         2.333384783437767E-096
   55.0050000000000        -1.135590341373778E-095
   55.1950000000000        -3.269939657195936E-095
   55.3850000000000        -6.393066920648522E-095
   55.5750000000000        -1.075631439410701E-094
   55.7650000000000        -1.662546395167862E-094
   55.9550000000000        -2.424865834595323E-094
   56.1450000000000        -3.379139718935057E-094
   56.3350000000000        -4.521762752064927E-094
   56.5250000000000        -5.808902087705246E-094
   56.7150000000000        -7.124915282868708E-094
   56.9050000000000        -8.235875127716552E-094
   57.0950000000000        -8.725744790479331E-094
   57.2850000000000        -7.915341645672199E-094
   57.4750000000000        -4.769342911658633E-094
   57.6650000000000         2.194846989920569E-094
   57.8550000000000         1.496969434153767E-093
   58.0450000000000         3.604735402301294E-093
   58.2350000000000         6.827059343229428E-093
   58.4250000000000         1.144544353310188E-092
   58.6150000000000         1.766655654172171E-092
   58.8050000000000         2.550328288130680E-092
   58.9950000000000         3.459681553020166E-092
   59.1850000000000         4.397180453379428E-092
   59.3750000000000         5.172602221241141E-092
   59.5650000000000         5.467295629894023E-092
   59.7550000000000         4.798226791415801E-092
   59.9450000000000         2.490062678498449E-092
   60.1350000000000        -2.331586174849517E-092
   60.3250000000000        -1.070690087785243E-091
   60.5150000000000        -2.374371747324423E-091
   60.7050000000000        -4.242459671169956E-091
   60.8950000000000        -6.728686054495654E-091
   61.0850000000000        -9.794640667302288E-091
   61.2750000000000        -1.324479273829395E-090
   61.4650000000000        -1.664487447750509E-090
   61.6550000000000        -1.922850324653309E-090
   61.8450000000000        -1.980313585665844E-090
   62.0350000000000        -1.667491417987219E-090
   62.2250000000000        -7.622524828586157E-091
   62.4150000000000         1.003784400710136E-090
   62.6050000000000         3.924250106687354E-090
   62.7950000000000         8.276201996647849E-090
   62.9850000000000         1.425087475526569E-089
   63.1750000000000         2.185126708321554E-089
   63.3650000000000         3.075346946271645E-089
   63.5550000000000         4.013376490385505E-089
   63.7450000000000         4.847183344854234E-089
   63.9350000000000         5.335238710190982E-089
   64.1250000000000         5.130340120898188E-089
   64.3150000000000         3.772827775109706E-089
   64.5050000000000         7.010265912005684E-090
   64.6950000000000        -4.711259203989104E-089
   64.8850000000000        -1.307893836109537E-088
   65.0750000000000        -2.488002455819387E-088
   65.2650000000000        -4.027055820550553E-088
   65.4550000000000        -5.883523897713278E-088
   65.6450000000000        -7.927788487140476E-088
   65.8350000000000        -9.906980586381246E-088
   66.0250000000000        -1.140938039956583E-087
   66.2150000000000        -1.183467350343720E-087
   66.4050000000000        -1.037932664533326E-087
   66.5950000000000        -6.049499370073478E-088
   66.7850000000000         2.283219145329568E-088
   66.9750000000000         1.576606040394913E-087
   67.1650000000000         3.537214576223932E-087
   67.3550000000000         6.161631068929675E-087
   67.5450000000000         9.417312537812707E-087
   67.7350000000000         1.314037723915790E-086
   67.9250000000000         1.698184512222466E-086
   68.1150000000000         2.035282834176288E-086
   68.3050000000000         2.237748023631280E-086
   68.4950000000000         2.186640612648856E-086
   68.6850000000000         1.732722331220430E-086
   68.8750000000000         7.032394720852673E-087
   69.0650000000000        -1.083355095496492E-086
   69.2550000000000        -3.792591841028045E-086
   69.4450000000000        -7.537395055934255E-086
   69.6350000000000        -1.232901914823672E-085
   69.8250000000000        -1.801647921910335E-085
   70.0150000000000        -2.421785789251551E-085
   70.2050000000000        -3.025003467729058E-085
   70.3950000000000        -3.506717181994666E-085
   70.5850000000000        -3.722240009670986E-085
   70.7750000000000        -3.487106392685974E-085
   70.9650000000000        -2.583685606263015E-085
   71.1550000000000        -7.763218908975263E-086
   71.3450000000000         2.162963941380162E-085
   71.5350000000000         6.416807916303377E-085
   71.7250000000000         1.207263517183026E-084
   71.9150000000000         1.906212637129253E-084
   72.1050000000000         2.709392422127531E-084
   72.2950000000000         3.558634134954766E-084
   72.4850000000000         4.360991027339560E-084
   72.6750000000000         4.985248688368809E-084
   72.8650000000000         5.262166803343979E-084
   73.0550000000000         4.989974396236481E-084
   73.2450000000000         3.946442605507563E-084
   73.4350000000000         1.908336342611484E-084
   73.6250000000000        -1.321857920089425E-084
   73.8150000000000        -5.883323519268033E-084
   74.0050000000000        -1.182142717062669E-083
   74.1950000000000        -1.905409557245466E-083
   74.3850000000000        -2.734633963777276E-083
   74.5750000000000        -3.630008438449431E-083
   74.7650000000000        -4.536604863520177E-083
   74.9550000000000        -5.388200948647490E-083
   75.1450000000000        -6.113668440797349E-083
   75.3350000000000        -6.645014630985545E-083
   75.5250000000000        -6.925004019295066E-083
   75.7150000000000        -6.910848688551249E-083
   75.9050000000000        -6.568908051847415E-083
   76.0950000000000        -5.853984210765394E-083
   76.2850000000000        -4.666107444803838E-083
   76.4750000000000        -2.778323153651765E-083
   76.6650000000000         2.682803028691377E-084
   76.8550000000000         5.300328797193675E-083
   77.0450000000000         1.366712751448710E-082
   77.2350000000000         2.738915716247541E-082
   77.4250000000000         4.925571813796274E-082
   77.6150000000000         8.280479876683814E-082
   77.8050000000000         1.320939506572024E-081
   77.9950000000000         2.011487458504803E-081
   78.1850000000000         2.929612514607838E-081
   78.3750000000000         4.079132523091014E-081
   78.5650000000000         5.415283547609673E-081
   78.7550000000000         6.815260532535074E-081
   78.9450000000000         8.042723225918974E-081
   79.1350000000000         8.709067839137374E-081
   79.3250000000000         8.236828643372035E-081
   79.5150000000000         5.833828047737866E-081
   79.7050000000000         4.904825310327944E-082
   79.8950000000000        -8.983356056551145E-081
   80.0850000000000        -2.386209225926004E-080
   80.2750000000000        -4.532645142298047E-080
   80.4650000000000        -7.418207702983934E-080
   80.6550000000000        -1.104572230990113E-079
   80.8450000000000        -1.528723423245325E-079
   81.0350000000000        -1.981922582363406E-079
   81.2250000000000        -2.404987411268541E-079
   81.4150000000000        -2.704586621701694E-079
   81.6050000000000        -2.747103168324097E-079
   81.7950000000000        -2.355460469051559E-079
   81.9850000000000        -1.311285196259853E-079
   82.1750000000000         6.346668673162007E-080
   82.3650000000000         3.740496049250412E-079
   82.5550000000000         8.236138509994035E-079
   82.7450000000000         1.426833607108946E-078
   82.9350000000000         2.182573112759885E-078
   83.1250000000000         3.064432362237895E-078
   83.3150000000000         4.009680705675578E-078
   83.5050000000000         4.907390862358181E-078
   83.6950000000000         5.587181987435054E-078
   83.8850000000000         5.810694608445818E-078
   84.0750000000000         5.268707225441729E-078
   84.2650000000000         3.587582674060906E-078
   84.4550000000000         3.493771263122421E-079
   84.6450000000000        -4.869716734770332E-078
   84.8350000000000        -1.243810797530891E-077
   85.0250000000000        -2.258121437368473E-077
   85.2150000000000        -3.526606098609063E-077
   85.4050000000000        -5.005996201687950E-077
   85.5950000000000        -6.597009287935877E-077
   85.7850000000000        -8.127731685137260E-077
   85.9750000000000        -9.338573357379231E-077
   86.1650000000000        -9.871868844898396E-077
   86.3550000000000        -9.270167726311468E-077
   86.5450000000000        -6.988150264404608E-077
   86.7350000000000        -2.423748315379966E-077
   86.9250000000000         5.025774509509846E-077
   87.1150000000000         1.587759535769915E-076
   87.3050000000000         3.044337581760933E-076
   87.4950000000000         4.867494757142601E-076
   87.6850000000000         6.997957675105209E-076
   87.8750000000000         9.301509707206774E-076
   88.0650000000000         1.154833505143555E-075
   88.2550000000000         1.339500766666204E-075
   88.4450000000000         1.437300666503072E-075
   88.6350000000000         1.388870378029847E-075
   88.8250000000000         1.124067894498142E-075
   89.0150000000000         5.660773863614674E-076
   89.2050000000000        -3.614762579158860E-076
   89.3950000000000        -1.723864238258351E-075
   89.5850000000000        -3.560719943385171E-075
   89.7750000000000        -5.867680889562771E-075
   89.9650000000000        -8.574796194124432E-075
   90.1550000000000        -1.152301783740583E-074
   90.3450000000000        -1.444099879974795E-074
   90.5350000000000        -1.692546489254546E-074
   90.7250000000000        -1.842953577705493E-074
   90.9150000000000        -1.826442644182593E-074
   91.1050000000000        -1.562079675887724E-074
   91.2950000000000        -9.616417930505042E-075
   91.4850000000000         6.234684142913131E-076
   91.6750000000000         1.584799812431606E-074
   91.8650000000000         3.652218918003236E-074
   92.0550000000000         6.262963741951474E-074
   92.2450000000000         9.344373466338996E-074
   92.4350000000000         1.272822851323257E-073
   92.6250000000000         1.612695105651991E-073
   92.8150000000000         1.911396548458326E-073
   93.0050000000000         2.111269052173960E-073
   93.1950000000000         2.139959090094726E-073
   93.3850000000000         1.912741163435846E-073
   93.5750000000000         1.337494389986724E-073
   93.7650000000000         3.229186901068439E-074
   93.9550000000000        -1.209568374183931E-073
   94.1450000000000        -3.310080338356140E-073
   94.3350000000000        -5.980892129296305E-073
   94.5250000000000        -9.154251609882110E-073
   94.7150000000000        -1.266888679241665E-072
   94.9050000000000        -1.624756541782200E-072
   95.0950000000000        -1.947898351753590E-072
   95.2850000000000        -2.180817551662561E-072
   95.4750000000000        -2.254043358649746E-072
   95.6650000000000        -2.086424576025772E-072
   95.8550000000000        -1.589882621514867E-072
   96.0450000000000        -6.771209876656739E-073
   96.2350000000000         7.273596573180385E-073
   96.4250000000000         2.672847029378434E-072
   96.6150000000000         5.164887439061849E-072
   96.8050000000000         8.145430313085996E-072
   96.9950000000000         1.147206277170340E-071
   97.1850000000000         1.489847083800202E-071
   97.3750000000000         1.805903119207496E-071
   97.5650000000000         2.046117684604764E-071
   97.7550000000000         2.148978936400192E-071
   97.9450000000000         2.042821984038952E-071
   98.1350000000000         1.650047878879943E-071
   98.3250000000000         8.938496051642858E-072
   98.5150000000000        -2.923028176848646E-072
   98.7050000000000        -1.952392321740829E-071
   98.8950000000000        -4.093098067111814E-071
   99.0850000000000        -6.667273324161296E-071
   99.2750000000000        -9.556891520006030E-071
   99.4650000000000        -1.255727050626924E-070
   99.6550000000000        -1.536498301138822E-070
   99.8450000000000        -1.757241755978963E-070
   100.035000000000        -1.867238510929879E-070
   100.225000000000        -1.807636938181123E-070
   100.415000000000        -1.514987591298744E-070
   100.605000000000        -9.267722470346139E-071
   100.795000000000         1.090861251447007E-072
   100.985000000000         1.333513796932086E-070
   101.175000000000         3.046390540733625E-070
   101.365000000000         5.111874302893359E-070
   101.555000000000         7.436174267533684E-070
   101.745000000000         9.857494689407335E-070
   101.935000000000         1.213728140494903E-069
   102.125000000000         1.395687586557223E-069
   102.315000000000         1.492214117202741E-069
   102.505000000000         1.457871834119426E-069
   102.695000000000         1.244039040147293E-069
   102.885000000000         8.032489064866315E-070
   103.075000000000         9.512936561687923E-071
   103.265000000000        -9.061115012073754E-070
   103.455000000000        -2.202909645784995E-069
   103.645000000000        -3.764785074977108E-069
   103.835000000000        -5.518795390204375E-069
   104.025000000000        -7.341113963601752E-069
   104.215000000000        -9.051151498747642E-069
   104.405000000000        -1.040990347690126E-068
   104.595000000000        -1.112437804487012E-068
   104.785000000000        -1.085998344226889E-068
   104.975000000000        -9.262570661856819E-069
   105.165000000000        -5.991375854877120E-069
   105.355000000000        -7.633359605599488E-070
   105.545000000000         6.591875142139140E-069
   105.735000000000         1.606823196630879E-068
   105.925000000000         2.741512787026754E-068
   106.115000000000         4.007056729658951E-068
   106.305000000000         5.310399984760140E-068
   106.495000000000         6.517910198628446E-068
   106.685000000000         7.454852343848804E-068
   106.875000000000         7.909361195955126E-068
   107.065000000000         7.642202295426031E-068
   107.255000000000         6.403449738613222E-068
   107.445000000000         3.956855546322728E-068
   107.635000000000         1.121073726203242E-069
   107.825000000000        -5.235651295186084E-068
   108.015000000000        -1.206073171957538E-067
   108.205000000000        -2.015921931239529E-067
   108.395000000000        -2.910311946102639E-067
   108.585000000000        -3.820223803391779E-067
   108.775000000000        -4.648109765648210E-067
   108.965000000000        -5.267929161334103E-067
   109.155000000000        -5.528425096565624E-067
   109.345000000000        -5.260518254631194E-067
   109.535000000000        -4.289565007489365E-067
   109.725000000000        -2.452965727093170E-067
   109.915000000000         3.768059721026555E-068
   110.105000000000         4.264263093695236E-067