  -1.42500000000000         0.000000000000000E+000
  -1.23500000000000         0.000000000000000E+000
  -1.04500000000000         0.000000000000000E+000
 -0.855000000000000         0.000000000000000E+000
 -0.665000000000000         0.000000000000000E+000
 -0.475000000000000         0.000000000000000E+000
 -0.285000000000000         0.000000000000000E+000
 -9.499999999999975E-002    0.000000000000000E+000
  9.500000000000020E-002    0.000000000000000E+000
  0.285000000000000         0.000000000000000E+000
  0.475000000000000         0.000000000000000E+000
  0.665000000000000         0.000000000000000E+000
  0.855000000000000         0.000000000000000E+000
   1.04500000000000         0.000000000000000E+000
   1.23500000000000         0.000000000000000E+000
   1.42500000000000         0.000000000000000E+000
   1.61500000000000         0.000000000000000E+000
   1.80500000000000         0.000000000000000E+000
   1.99500000000000         0.000000000000000E+000
   2.18500000000000         0.000000000000000E+000
   2.37500000000000         0.000000000000000E+000
   2.56500000000000         0.000000000000000E+000
   2.75500000000000         0.000000000000000E+000
   2.94500000000000         0.000000000000000E+000
   3.13500000000000         0.000000000000000E+000
   3.32500000000000         0.000000000000000E+000
   3.51500000000000         0.000000000000000E+000
   3.70500000000000         0.000000000000000E+000
   3.89500000000000         0.000000000000000E+000
   4.08500000000000         0.000000000000000E+000
   4.27500000000000         0.000000000000000E+000
   4.46500000000000         0.000000000000000E+000
   4.65500000000000         0.000000000000000E+000
   4.84500000000000         0.000000000000000E+000
   5.03500000000000         0.000000000000000E+000
   5.22500000000000         0.000000000000000E+000
   5.41500000000000         0.000000000000000E+000
   5.60500000000000         0.000000000000000E+000
   5.79500000000000         0.000000000000000E+000
   5.98500000000000         0.000000000000000E+000
   6.17500000000000         0.000000000000000E+000
   6.36500000000000         0.000000000000000E+000
   6.55500000000000        -2.461750011951402E-186
   6.74500000000000         3.199139043532112E-180
   6.93500000000000         2.534965955743143E-178
   7.12500000000000        -2.791707986819383E-175
   7.31500000000000        -2.639920646148994E-173
   7.50500000000000        -7.179358158900827E-172
   7.69500000000000         1.529469620175002E-171
   7.88500000000000         6.587537104756141E-169
   8.07500000000000         2.387219156929568E-167
   8.26500000000000         5.393744945393599E-166
   8.45500000000000         9.198559584740821E-165
   8.64500000000000         1.277195011435945E-163
   8.83500000000000         1.505625399398263E-162
   9.02500000000000         1.548840549333885E-161
   9.21500000000000         1.418210548442205E-160
   9.40500000000000         1.173860113547569E-159
   9.59500000000000         8.895018338859281E-159
   9.78500000000000         6.238628405449716E-158
   9.97500000000000         4.089772985628416E-157
   10.1650000000000         2.528531073428353E-156
   10.3550000000000         1.486483439472990E-155
   10.5450000000000         8.370725117722020E-155
   10.7350000000000         4.543415037728631E-154
   10.9250000000000         2.388440407625910E-153
   11.1150000000000         1.220002411006535E-152
   11.3050000000000         6.064961035135292E-152
   11.4950000000000         2.935124022917551E-151
   11.6850000000000         1.381777017501889E-150
   11.8750000000000         6.319825235036719E-150
   12.0650000000000         2.804101492829473E-149
   12.2550000000000         1.205329169868241E-148
   12.4450000000000         5.013460748323010E-148
   12.6350000000000         2.016035910561468E-147
   12.8250000000000         7.832444729791177E-147
   13.0150000000000         2.938456842730183E-146
   13.2050000000000         1.064117972725241E-145
   13.3950000000000         3.718249337179167E-145
   13.5850000000000         1.253025707813919E-144
   13.7750000000000         4.069763352430540E-144
   13.9650000000000         1.272763480375734E-143
   14.1550000000000         3.827116733901773E-143
   14.3450000000000         1.104090337867401E-142
   14.5350000000000         3.045958696456990E-142
   14.7250000000000         7.994959038662123E-142
   14.9150000000000         1.980086756970295E-141
   15.1050000000000         4.560954328191508E-141
   15.2950000000000         9.498684410421133E-141
   15.4850000000000         1.671823093324613E-140
   15.6750000000000         1.938516574344478E-140
   15.8650000000000        -1.586907650277727E-140
   16.0550000000000        -2.082282209963091E-139
   16.2450000000000        -9.230946554717231E-139
   16.4350000000000        -3.168655064076582E-138
   16.6250000000000        -9.489058820292539E-138
   16.8150000000000        -2.575990209429312E-137
   17.0050000000000        -6.422314950848349E-137
   17.1950000000000        -1.469337754126933E-136
   17.3850000000000        -3.038478089450654E-136
   17.5750000000000        -5.438985471041120E-136
   17.7650000000000        -7.332540214827232E-136
   17.9550000000000        -2.042216999327417E-136
   18.1450000000000         3.335882443491450E-135
   18.3350000000000         1.656050929413758E-134
   18.5250000000000         5.692072340519794E-134
   18.7150000000000         1.663169790344868E-133
   18.9050000000000         4.377246880522336E-133
   19.0950000000000         1.060996308968722E-132
   19.2850000000000         2.386459558636666E-132
   19.4750000000000         4.970500399325079E-132
   19.6650000000000         9.459859617362050E-132
   19.8550000000000         1.588695229729274E-131
   20.0450000000000         2.127199730921827E-131
   20.2350000000000         1.294956888065160E-131
   20.4250000000000        -4.794993263516922E-131
   20.6150000000000        -2.639963459407536E-130
   20.8050000000000        -8.804572560736177E-130
   20.9950000000000        -2.440080560173652E-129
   21.1850000000000        -6.063198210732017E-129
   21.3750000000000        -1.390648753840710E-128
   21.5650000000000        -2.980856654651363E-128
   21.7550000000000        -5.994575451042813E-128
   21.9450000000000        -1.128011623271008E-127
   22.1350000000000        -1.965100130959414E-127
   22.3250000000000        -3.089902481763081E-127
   22.5150000000000        -4.110656005424105E-127
   22.7050000000000        -3.634070018275608E-127
   22.8950000000000         2.073171084431328E-127
   23.0850000000000         2.170221093487756E-126
   23.2750000000000         7.363986698807327E-126
   23.4650000000000         1.938517874322881E-125
   23.6550000000000         4.476777075777340E-125
   23.8450000000000         9.447903256112368E-125
   24.0350000000000         1.852167870008220E-124
   24.2250000000000         3.389700792132775E-124
   24.4150000000000         5.772207747239739E-124
   24.6050000000000         9.023325209565413E-124
   24.7950000000000         1.252300932608475E-123
   24.9850000000000         1.405614097722081E-123
   25.1750000000000         8.012939032087738E-124
   25.3650000000000        -1.770427318450373E-123
   25.5550000000000        -8.646846987691895E-123
   25.7450000000000        -2.393537939758490E-122
   25.9350000000000        -5.417448791254027E-122
   26.1250000000000        -1.085388008563986E-121
   26.3150000000000        -1.974451541392808E-121
   26.5050000000000        -3.271900114068385E-121
   26.6950000000000        -4.862054829689992E-121
   26.8850000000000        -6.154528483780789E-121
   27.0750000000000        -5.514648339637525E-121
   27.2650000000000         7.351014267283041E-122
   27.4550000000000         1.991281069526436E-120
   27.6450000000000         6.527352965339217E-120
   27.8350000000000         1.588312058547684E-119
   28.0250000000000         3.338543071606620E-119
   28.2150000000000         6.347737369297768E-119
   28.4050000000000         1.109639786393866E-118
   28.5950000000000         1.785908796810340E-118
   28.7850000000000         2.613728272230518E-118
   28.9750000000000         3.351982549516852E-118
   29.1650000000000         3.362405707091153E-118
   29.3550000000000         1.270069930631264E-118
   29.5450000000000        -5.546338652000701E-118
   29.7350000000000        -2.163611086762407E-117
   29.9250000000000        -5.423621644948859E-117
   30.1150000000000        -1.138116110985466E-116
   30.3050000000000        -2.136995908188399E-116
   30.4950000000000        -3.675466141915712E-116
   30.6850000000000        -5.822618815944813E-116
   30.8750000000000        -8.429037458246572E-116
   31.0650000000000        -1.084405127216136E-115
   31.2550000000000        -1.143803464667837E-115
   31.4450000000000        -6.867342552707393E-116
   31.6350000000000         8.945983996627528E-116
   31.8250000000000         4.604517577205861E-115
   32.0150000000000         1.195831744715289E-114
   32.2050000000000         2.501692124046911E-114
   32.3950000000000         4.620167925574526E-114
   32.5850000000000         7.764542566004539E-114
   32.7750000000000         1.196959835904572E-113
   32.9650000000000         1.680265812237261E-113
   33.1550000000000         2.086698048620545E-113
   33.3450000000000         2.102784811667098E-113
   33.5350000000000         1.132157274634900E-113
   33.7250000000000        -1.840017505680808E-113
   33.9150000000000        -8.383719049057164E-113
   34.1050000000000        -2.069923263159493E-112
   34.2950000000000        -4.150634494184821E-112
   34.4850000000000        -7.353021678477968E-112
   34.6750000000000        -1.182405751182450E-111
   34.8650000000000        -1.733516305377928E-111
   35.0550000000000        -2.284510003251710E-111
   35.2450000000000        -2.580710845925388E-111
   35.4350000000000        -2.116839579592988E-111
   35.6250000000000        -7.200533000053005E-114
   35.8150000000000         5.158730826128496E-111
   36.0050000000000         1.543331057389417E-110
   36.1950000000000         3.351305435979071E-110
   36.3850000000000         6.246961728329873E-110
   36.5750000000000         1.049556546255636E-109
   36.7650000000000         1.615098238694450E-109
   36.9550000000000         2.274543695770276E-109
   37.1450000000000         2.877785613285821E-109
   37.3350000000000         3.094087388657233E-109
   37.5250000000000         2.305125421479622E-109
   37.7150000000000        -5.282474405110927E-110
   37.9050000000000        -7.007903106531994E-109
   38.0950000000000        -1.940609594566438E-108
   38.2850000000000        -4.065539887205577E-108
   38.4750000000000        -7.407779803515510E-108
   38.6650000000000        -1.226295542299258E-107
   38.8550000000000        -1.873413453276960E-107
   39.0450000000000        -2.645333382952889E-107
   39.2350000000000        -3.413134352123063E-107
   39.4250000000000        -3.888814307369177E-107
   39.6150000000000        -3.533562793638284E-107
   39.8050000000000        -1.443588147747131E-107
   39.9950000000000         3.773886558257827E-107
   40.1850000000000         1.410400232608631E-106
   40.3750000000000         3.214852516044218E-106
   40.5650000000000         6.097198651959547E-106
   40.7550000000000         1.036169171776841E-105
   40.9450000000000         1.620708654913068E-105
   41.1350000000000         2.354012918701535E-105
   41.3250000000000         3.167244170193000E-105
   41.5150000000000         3.886742191059039E-105
   41.7050000000000         4.171419404033823E-105
   41.8950000000000         3.433440046600285E-105
   42.0850000000000         7.485453110335373E-106
   42.2750000000000        -5.227599836829534E-105
   42.4650000000000        -1.630498068301101E-104
   42.6550000000000        -3.471208059980765E-104
   42.8450000000000        -6.287138489833983E-104
   43.0350000000000        -1.028767879040527E-103
   43.2250000000000        -1.555141244750742E-103
   43.4150000000000        -2.186353148649492E-103
   43.6050000000000        -2.846895658829017E-103
   43.7950000000000        -3.372578293516081E-103
   43.9850000000000        -3.465673577747738E-103
   44.1750000000000        -2.642327891732217E-103
   44.3650000000000        -1.794117352793712E-104
   44.5550000000000         4.924619271278823E-103
   44.7450000000000         1.394961542055691E-102
   44.9350000000000         2.837496805755552E-102
   45.1250000000000         4.966561648804966E-102
   45.3150000000000         7.884793647760477E-102
   45.5050000000000         1.157850916725480E-101
   45.6950000000000         1.580556690160460E-101
   45.8850000000000         1.993544318464718E-101
   46.0750000000000         2.273856686557607E-101
   46.2650000000000         2.213288951145365E-101
   46.4550000000000         1.491489026481125E-101
   46.6450000000000        -3.467578653872066E-102
   46.8350000000000        -3.899974183863521E-101
   47.0250000000000        -9.888321817996443E-101
   47.2150000000000        -1.907902017897052E-100
   47.4050000000000        -3.212861153028635E-100
   47.5950000000000        -4.930542436430440E-100
   47.7850000000000        -7.005282793133129E-100
   47.9750000000000        -9.235883089518669E-100
   48.1650000000000        -1.119160084884468E-099
   48.3550000000000        -1.210951205615109E-099
   48.5450000000000        -1.078249224527932E-099
   48.7350000000000        -5.457866450391049E-100
   48.9250000000000         6.217807324196076E-100
   49.1150000000000         2.715211733944804E-099
   49.3050000000000         6.057839698052945E-099
   49.4950000000000         1.095399111687460E-098
   49.6850000000000         1.759589997303653E-098
   49.8750000000000         2.591539300088832E-098
   50.0650000000000         3.536821218864421E-098
   50.2550000000000         4.464480273860866E-098
   50.4450000000000         5.131403215639646E-098
   50.6350000000000         5.142826122382901E-098
   50.8250000000000         3.915208307272897E-098
   51.0150000000000         6.524835978626950E-099
   51.2050000000000        -5.647106582965137E-098
   51.3950000000000        -1.612907676945606E-097
   51.5850000000000        -3.193349764552447E-097
   51.7750000000000        -5.391995579752942E-097
   51.9650000000000        -8.222542688141885E-097
   52.1550000000000        -1.156186155131170E-096
   52.3450000000000        -1.506315976360881E-096
   52.5350000000000        -1.804855545962486E-096
   52.7250000000000        -1.938888857812937E-096
   52.9150000000000        -1.738795512346355E-096
   53.1050000000000        -9.701352375502278E-097
   53.2950000000000         6.663269932942489E-097
   53.4850000000000         3.519844100343751E-096
   53.6750000000000         7.951566140916710E-096
   53.8650000000000         1.426286030357920E-095
   54.0550000000000         2.257923696249239E-095
   54.2450000000000         3.268035772120579E-095
   54.4350000000000         4.377105850914948E-095
   54.6250000000000         5.419738563823055E-095
   54.8150000000000         6.112688647248702E-095
   55.0050000000000         6.023523935584291E-095
   55.1950000000000         4.547259437956623E-095
   55.3850000000000         9.022377571685223E-096
   55.5750000000000        -5.838958184866904E-095
   55.7650000000000        -1.666322968004443E-094
   55.9550000000000        -3.245136601889565E-094
   56.1450000000000        -5.370792423316055E-094
   56.3350000000000        -8.016456767385895E-094
   56.5250000000000        -1.102450928517078E-093
   56.7150000000000        -1.404007601290060E-093
   56.9050000000000        -1.643582808938193E-093
   57.0950000000000        -1.723726684309187E-093
   57.2850000000000        -1.506445536432696E-093
   57.4750000000000        -8.114530861844026E-094
   57.6650000000000         5.781203065959946E-094
   57.8550000000000         2.898241173195856E-093
   58.0450000000000         6.369656121885899E-093
   58.2350000000000         1.114146166149190E-092
   58.4250000000000         1.720796049000604E-092
   58.6150000000000         2.429631403691893E-092
   58.8050000000000         3.172662844417178E-092
   58.9950000000000         3.825285681345577E-092
   59.1850000000000         4.190276261402291E-092
   59.3750000000000         3.984839207634038E-092
   59.5650000000000         2.835476293148111E-092
   59.7550000000000         2.872703872295184E-093
   59.9450000000000        -4.164026125147132E-092
   60.1350000000000        -1.100731281457613E-091
   60.3250000000000        -2.060864246741409E-091
   60.5150000000000        -3.305192522373917E-091
   60.7050000000000        -4.792273656368829E-091
   60.8950000000000        -6.403768469820025E-091
   61.0850000000000        -7.913408332149997E-091
   61.2750000000000        -8.955256995844572E-091
   61.4650000000000        -8.996919126218884E-091
   61.6550000000000        -7.326284475636735E-091
   61.8450000000000        -3.063694413151813E-091
   62.0350000000000         4.785305626901616E-091
   62.2250000000000         1.721884139642410E-090
   62.4150000000000         3.505038999007867E-090
   62.6050000000000         5.862624770630747E-090
   62.7950000000000         8.743797501130406E-090
   62.9850000000000         1.196313897341211E-089
   63.1750000000000         1.514340412440228E-089
   63.3650000000000         1.765529664022247E-089
   63.5550000000000         1.856346938993917E-089
   63.7450000000000         1.659293661501456E-089
   63.9350000000000         1.013578046197127E-089
   64.1250000000000        -2.676132970001157E-090
   64.3150000000000        -2.380170292680021E-089
   64.5050000000000        -5.499092604525548E-089
   64.6950000000000        -9.732297085790695E-089
   64.8850000000000        -1.505580476940622E-088
   65.0750000000000        -2.122967172192517E-088
   65.2650000000000        -2.769703650550463E-088
   65.4550000000000        -3.347318742408672E-088
   65.6450000000000        -3.703778724240552E-088
   65.8350000000000        -3.625133597504145E-088
   66.0250000000000        -2.832631949463655E-088
   66.2150000000000        -9.893580409676769E-089
   66.4050000000000         2.278600296971001E-088
   66.5950000000000         7.340738491217629E-088
   66.7850000000000         1.449457949260870E-087
   66.9750000000000         2.386677428121635E-087
   67.1650000000000         3.527966152425625E-087
   67.3550000000000         4.808387837513361E-087
   67.5450000000000         6.096366496644682E-087
   67.7350000000000         7.173021657972510E-087
   67.9250000000000         7.713002214349997E-087
   68.1150000000000         7.270946586629020E-087
   68.3050000000000         5.279343017889346E-087
   68.4950000000000         1.065287846178827E-087
   68.6850000000000        -6.104785499152449E-087
   68.8750000000000        -1.694224721223085E-086
   69.0650000000000        -3.200498755165535E-086
   69.2550000000000        -5.150882494721507E-086
   69.4450000000000        -7.507637984999103E-086
   69.6350000000000        -1.014248690638397E-085
   69.8250000000000        -1.280047474367856E-085
   70.0150000000000        -1.506160326243459E-085
   70.2050000000000        -1.630488478123740E-085
   70.3950000000000        -1.568190480901414E-085
   70.5850000000000        -1.210978157222446E-085
   70.7750000000000        -4.296377835678858E-086
   70.9650000000000         9.186594539668420E-086
   71.1550000000000         2.976485462405711E-085
   71.3450000000000         5.863883430621480E-085
   71.5350000000000         9.646026883974379E-085
   71.7250000000000         1.428965627282104E-084
   71.9150000000000         1.960812917248462E-084
   72.1050000000000         2.519651378885497E-084
   72.2950000000000         3.036047232996055E-084
   72.4850000000000         3.404580458438223E-084
   72.6750000000000         3.477946896870674E-084
   72.8650000000000         3.063757637611993E-084
   73.0550000000000         1.926101240784020E-084
   73.2450000000000        -2.055474419685111E-085
   73.4350000000000        -3.617040484564360E-084
   73.6250000000000        -8.576588293912089E-084
   73.8150000000000        -1.528484772673036E-083
   74.0050000000000        -2.380533806454180E-083
   74.1950000000000        -3.397368576133706E-083
   74.3850000000000        -4.528635306611870E-083
   74.5750000000000        -5.677281171312826E-083
   74.7650000000000        -6.685977673056878E-083
   74.9550000000000        -7.324223570675751E-083
   75.1450000000000        -7.278357617754220E-083
   75.3350000000000        -6.147589439138157E-083
   75.5250000000000        -3.450102452001393E-083
   75.7150000000000         1.355798250777358E-083
   75.9050000000000         8.829771908426221E-083
   76.0950000000000         1.948066612867670E-082
   76.2850000000000         3.366504808621785E-082
   76.4750000000000         5.144844521716739E-082
   76.6650000000000         7.242727928792913E-082
   76.8550000000000         9.551381537439240E-082
   77.0450000000000         1.186929348455349E-081
   77.2350000000000         1.387684953913220E-081
   77.4250000000000         1.511286122857812E-081
   77.6150000000000         1.495732535037909E-081
   77.8050000000000         1.262635357926367E-081
   77.9950000000000         7.186890638811311E-082
   78.1850000000000        -2.399588764892385E-082
   78.3750000000000        -1.719402951252618E-081
   78.5650000000000        -3.814660186382461E-081
   78.7550000000000        -6.590341506420024E-081
   78.9450000000000        -1.005458759010747E-080
   79.1350000000000        -1.412606152415660E-080
   79.3250000000000        -1.859462664607216E-080
   79.5150000000000        -2.307755241384339E-080
   79.7050000000000        -2.697472610848516E-080
   79.8950000000000        -2.942841100226532E-080
   80.0850000000000        -2.929553472921587E-080
   80.2750000000000        -2.514318906226175E-080
   80.4650000000000        -1.528074462791979E-080
   80.6550000000000         2.155626414918224E-081
   80.8450000000000         2.904867606721582E-080
   81.0350000000000         6.705866401111222E-080
   81.2250000000000         1.172796834372780E-079
   81.4150000000000         1.797841522766623E-079
   81.6050000000000         2.530556981418329E-079
   81.7950000000000         3.333256977393114E-079
   81.9850000000000         4.138497571507500E-079
   82.1750000000000         4.841878034098381E-079
   82.3650000000000         5.295849052529435E-079
   82.5550000000000         5.305881911097077E-079
   82.7450000000000         4.630757247909164E-079
   82.9350000000000         2.989117410649953E-079
   83.1250000000000         7.473123841280155E-081
   83.3150000000000        -4.416937753103198E-079
   83.5050000000000        -1.074839216943378E-078
   83.6950000000000        -1.908403251583746E-078
   83.8850000000000        -2.941742963245425E-078
   84.0750000000000        -4.148268444197840E-078
   84.2650000000000        -5.465306113885929E-078
   84.4550000000000        -6.783335323495327E-078
   84.6450000000000        -7.935654817601321E-078
   84.8350000000000        -8.690018675255726E-078
   85.0250000000000        -8.744311180197605E-078
   85.2150000000000        -7.728862255665614E-078
   85.4050000000000        -5.218472892560176E-078
   85.5950000000000        -7.575318826450317E-079
   85.7850000000000         6.098355594884305E-078
   85.9750000000000         1.572117980482204E-077
   86.1650000000000         2.832767128332660E-077
   86.3550000000000         4.387433860070887E-077
   86.5450000000000         6.193249902015699E-077
   86.7350000000000         8.154892134900830E-077
   86.9250000000000         1.011022346509840E-076
   87.1150000000000         1.181707324066173E-076
   87.3050000000000         1.294333937417311E-076
   87.4950000000000         1.306324301508890E-076
   87.6850000000000         1.166317901731789E-076
   87.8750000000000         8.161089200016383E-077
   88.0650000000000         1.943520394049579E-077
   88.2550000000000        -7.575630568706206E-077
   88.4450000000000        -2.087140370688263E-076
   88.6350000000000        -3.819727101566012E-076
   88.8250000000000        -5.944837859311183E-076
   89.0150000000000        -8.400247784920069E-076
   89.2050000000000        -1.105470063194998E-075
   89.3950000000000        -1.369063863400322E-075
   89.5850000000000        -1.598901389298968E-075
   89.7750000000000        -1.751895061665324E-075
   89.9650000000000        -1.773573549341237E-075
   90.1550000000000        -1.599123525461512E-075
   90.3450000000000        -1.156126346272681E-075
   90.5350000000000        -3.694502949353208E-076
   90.7250000000000         8.312826660185089E-076
   90.9150000000000         2.501346204739847E-075
   91.1050000000000         4.667560525480639E-075
   91.2950000000000         7.312126311464152E-075
   91.4850000000000         1.035423062912564E-074
   91.6750000000000         1.363053514373337E-074
   91.8650000000000         1.687628259438328E-074
   92.0550000000000         1.970946115589992E-074
   92.2450000000000         2.162120157191751E-074
   92.4350000000000         2.197627834717049E-074
   92.6250000000000         2.002814720915408E-074
   92.8150000000000         1.495325342011070E-074
   93.0050000000000         5.909242509602802E-075
   93.1950000000000        -7.878967444715026E-075
   93.3850000000000        -2.700270471594762E-074
   93.5750000000000        -5.172241715066323E-074
   93.7650000000000        -8.179299751245524E-074
   93.9550000000000        -1.162690814124292E-073
   94.1450000000000        -1.533033174472180E-073
   94.3350000000000        -1.899569812409167E-073
   94.5250000000000        -2.220492372174756E-073
   94.7150000000000        -2.440783080993375E-073
   94.9050000000000        -2.492540279819539E-073
   95.0950000000000        -2.296857275661163E-073
   95.2850000000000        -1.767709008329610E-073
   95.4750000000000        -8.182721883302701E-074
   95.6650000000000         6.299832647646663E-074
   95.8550000000000         2.635255389168052E-073
   96.0450000000000         5.220496436872943E-073
   96.2350000000000         8.356040829432952E-073
   96.4250000000000         1.194063287087341E-072
   96.6150000000000         1.578224283548764E-072
   96.8050000000000         1.958065835325397E-072
   96.9950000000000         2.291446650230336E-072
   97.1850000000000         2.523564445140184E-072
   97.3750000000000         2.587547654179100E-072
   97.5650000000000         2.406581713176189E-072
   97.7550000000000         1.897970771440954E-072
   97.9450000000000         9.794908115530434E-073
   98.1350000000000        -4.217113767074946E-073
   98.3250000000000        -2.357589023911500E-072
   98.5150000000000        -4.845199572706539E-072
   98.7050000000000        -7.850736001863053E-072
   98.8950000000000        -1.127248890820581E-071
   99.0850000000000        -1.492412012469932E-071
   99.2750000000000        -1.852014849909401E-071
   99.4650000000000        -2.166607194424710E-071
   99.6550000000000        -2.385602199165726E-071
   99.8450000000000        -2.448119651824110E-071
   100.035000000000        -2.285245673758997E-071
   100.225000000000        -1.824030804046621E-071
   100.415000000000        -9.934907426521353E-072
   100.605000000000         2.672346732059144E-072
   100.795000000000         1.998576796546568E-071
   100.985000000000         4.208333129283370E-071
   101.175000000000         6.858105044854835E-071
   101.365000000000         9.849277656051439E-071
   101.555000000000         1.300984042218167E-070
   101.745000000000         1.608376307505193E-070
   101.935000000000         1.872503595155686E-070
   102.125000000000         2.049880599589831E-070
   102.315000000000         2.089222669135956E-070
   102.505000000000         1.933761934020484E-070
   102.695000000000         1.525023605804870E-070
   102.885000000000         8.082243833453754E-071
   103.075000000000        -2.606554369634419E-071
   103.265000000000        -1.706232913545378E-070
   103.455000000000        -3.523831056639848E-070
   103.645000000000        -5.668903507798274E-070
   103.835000000000        -8.046633890244986E-070
   104.025000000000        -1.050287739127445E-069
   104.215000000000        -1.281791365451442E-069
   104.405000000000        -1.470473850754962E-069
   104.595000000000        -1.581379277817049E-069
   104.785000000000        -1.574605718082599E-069
   104.975000000000        -1.407627587507167E-069
   105.165000000000        -1.038765029242957E-069
   105.355000000000        -4.318617451723624E-070
   105.545000000000         4.378744797504436E-070
   105.735000000000         1.577057416778006E-069
   105.925000000000         2.966700174562453E-069
   106.115000000000         4.554755862285742E-069
   106.305000000000         6.249412387347551E-069
   106.495000000000         7.914150693859011E-069
   106.685000000000         9.365766385083538E-069
   106.875000000000         1.037668634417940E-068
   107.065000000000         1.068294748267588E-068
   107.255000000000         9.999103217587245E-069
   107.445000000000         8.041043230244698E-069
   107.635000000000         4.557215807514433E-069
   107.825000000000        -6.319986322761301E-070
   108.015000000000        -7.588011374377040E-069
   108.205000000000        -1.620333689301915E-068
   108.395000000000        -2.615042498532281E-068
   108.585000000000        -3.683550736410772E-068
   108.775000000000        -4.736450336289953E-068
   108.965000000000        -5.652939372285330E-068
   109.155000000000        -6.282442502537512E-068
   109.345000000000        -6.450178483375823E-068
   109.535000000000        -5.967569599787521E-068
   109.725000000000        -4.648191904000098E-068
   109.915000000000        -2.329615038804107E-068
   110.105000000000         1.099044699075234E-068