  -1.42500000000000         0.000000000000000E+000
  -1.23500000000000         0.000000000000000E+000
  -1.04500000000000         0.000000000000000E+000
 -0.855000000000000         0.000000000000000E+000
 -0.665000000000000         0.000000000000000E+000
 -0.475000000000000         0.000000000000000E+000
 -0.285000000000000         0.000000000000000E+000
 -9.499999999999975E-002    0.000000000000000E+000
  9.500000000000020E-002    0.000000000000000E+000
  0.285000000000000         0.000000000000000E+000
  0.475000000000000         0.000000000000000E+000
  0.665000000000000         0.000000000000000E+000
  0.855000000000000         0.000000000000000E+000
   1.04500000000000         0.000000000000000E+000
   1.23500000000000         0.000000000000000E+000
   1.42500000000000         0.000000000000000E+000
   1.61500000000000         0.000000000000000E+000
   1.80500000000000         0.000000000000000E+000
   1.99500000000000         0.000000000000000E+000
   2.18500000000000         0.000000000000000E+000
   2.37500000000000         0.000000000000000E+000
   2.56500000000000         0.000000000000000E+000
   2.75500000000000         0.000000000000000E+000
   2.94500000000000         0.000000000000000E+000
   3.13500000000000         0.000000000000000E+000
   3.32500000000000         0.000000000000000E+000
   3.51500000000000         0.000000000000000E+000
   3.70500000000000         0.000000000000000E+000
   3.89500000000000         0.000000000000000E+000
   4.08500000000000         0.000000000000000E+000
   4.27500000000000         0.000000000000000E+000
   4.46500000000000         0.000000000000000E+000
   4.65500000000000         0.000000000000000E+000
   4.84500000000000         0.000000000000000E+000
   5.03500000000000         0.000000000000000E+000
   5.22500000000000         0.000000000000000E+000
   5.41500000000000         0.000000000000000E+000
   5.60500000000000         0.000000000000000E+000
   5.79500000000000         0.000000000000000E+000
   5.98500000000000         0.000000000000000E+000
   6.17500000000000         0.000000000000000E+000
   6.36500000000000        -6.478289505135269E-186
   6.55500000000000         8.418786956663454E-180
   6.74500000000000         6.670963106212219E-178
   6.93500000000000        -7.346684153183733E-175
   7.12500000000000        -6.947226304759348E-173
   7.31500000000000        -1.888570118661581E-171
   7.50500000000000         4.094391649043400E-171
   7.69500000000000         1.735451700767116E-168
   7.88500000000000         6.281753184125132E-167
   8.07500000000000         1.417673002181275E-165
   8.26500000000000         2.414391419255665E-164
   8.45500000000000         3.346845438133031E-163
   8.64500000000000         3.937965367930322E-162
   8.83500000000000         4.042285787419804E-161
   9.02500000000000         3.692511301179531E-160
   9.21500000000000         3.048346600142710E-159
   9.40500000000000         2.303472969477647E-158
   9.59500000000000         1.610853261603937E-157
   9.78500000000000         1.052848105852585E-156
   9.97500000000000         6.489854708878569E-156
   10.1650000000000         3.804172920043963E-155
   10.3550000000000         2.136282107994522E-154
   10.5450000000000         1.156517550995088E-153
   10.7350000000000         6.065087253812342E-153
   10.9250000000000         3.090969106919077E-152
   11.1150000000000         1.533188682729659E-151
   11.3050000000000         7.402957320570784E-151
   11.4950000000000         3.476651071448779E-150
   11.6850000000000         1.585871798090780E-149
   11.8750000000000         7.015588923892855E-149
   12.0650000000000         3.005607677678616E-148
   12.2550000000000         1.245539631326332E-147
   12.4450000000000         4.988165772564852E-147
   12.6350000000000         1.929236488147072E-146
   12.8250000000000         7.202245399142201E-146
   13.0150000000000         2.594193487966657E-145
   13.2050000000000         9.011588560279338E-145
   13.3950000000000         3.017405027740513E-144
   13.5850000000000         9.731416891349006E-144
   13.7750000000000         3.019633972616691E-143
   13.9650000000000         9.000369470154526E-143
   14.1550000000000         2.570563131131127E-142
   14.3450000000000         7.008544797544245E-142
   14.5350000000000         1.813386500209137E-141
   14.7250000000000         4.409186545591043E-141
   14.9150000000000         9.898574800856049E-141
   15.1050000000000         1.978578329855484E-140
   15.2950000000000         3.199283317119636E-140
   15.4850000000000         2.601705613953597E-140
   15.6750000000000        -8.575607220006146E-140
   15.8650000000000        -5.989825966835630E-139
   16.0550000000000        -2.387435734128805E-138
   16.2450000000000        -7.790596955474402E-138
   16.4350000000000        -2.254201096005478E-137
   16.6250000000000        -5.945065007951718E-137
   16.8150000000000        -1.440370807583973E-136
   17.0050000000000        -3.188786139957901E-136
   17.1950000000000        -6.305912090436366E-136
   17.3850000000000        -1.044644136030049E-135
   17.5750000000000        -1.130016348783309E-135
   17.7650000000000         8.938864399246590E-136
   17.9550000000000         1.070825385519519E-134
   18.1450000000000         4.411771314229033E-134
   18.3350000000000         1.410127393729118E-133
   18.5250000000000         3.940959730009190E-133
   18.7150000000000         1.002115696439568E-132
   18.9050000000000         2.354419289300619E-132
   19.0950000000000         5.128249659432717E-132
   19.2850000000000         1.028816865883252E-131
   19.4750000000000         1.861421068085628E-131
   19.6650000000000         2.872750499465174E-131
   19.8550000000000         3.108457287330583E-131
   20.0450000000000        -7.729956359581958E-132
   20.2350000000000        -1.821629735378619E-130
   20.4250000000000        -7.288050390036977E-130
   20.6150000000000        -2.190808745890654E-129
   20.8050000000000        -5.726537405876049E-129
   20.9950000000000        -1.363879198594316E-128
   21.1850000000000        -3.017475520587750E-128
   21.3750000000000        -6.248781140995161E-128
   21.5650000000000        -1.211559657158448E-127
   21.7550000000000        -2.184015678436505E-127
   21.9450000000000        -3.593796278566141E-127
   22.1350000000000        -5.162870680242298E-127
   22.3250000000000        -5.646199669643923E-127
   22.5150000000000        -1.432019832927706E-127
   22.7050000000000         1.627322918383011E-126
   22.8950000000000         6.667442356092939E-126
   23.0850000000000         1.883334102727420E-125
   23.2750000000000         4.530252013089752E-125
   23.4650000000000         9.843101068148969E-125
   23.6550000000000         1.976154047839338E-124
   23.8450000000000         3.696026743238119E-124
   24.0350000000000         6.433974911898790E-124
   24.2250000000000         1.031589441376715E-123
   24.4150000000000         1.482532741429642E-123
   24.6050000000000         1.776526731275004E-123
   24.7950000000000         1.324425202014581E-123
   24.9850000000000        -1.186860603683418E-123
   25.1750000000000        -8.358003726769613E-123
   25.3650000000000        -2.486352866026490E-122
   25.5550000000000        -5.832882126088033E-122
   25.7450000000000        -1.198095813811799E-121
   25.9350000000000        -2.226405827863517E-121
   26.1250000000000        -3.770280690177383E-121
   26.3150000000000        -5.753979225011579E-121
   26.5050000000000        -7.598956021834695E-121
   26.6950000000000        -7.585864130822114E-121
   26.8850000000000        -1.717351341967197E-121
   27.0750000000000         1.813060502765550E-120
   27.2650000000000         6.691436588132074E-120
   27.4550000000000         1.698379690175364E-119
   27.6450000000000         3.655747241039581E-119
   27.8350000000000         7.067915197559733E-119
   28.0250000000000         1.252480344934233E-118
   28.2150000000000         2.041540734824220E-118
   28.4050000000000         3.029302789159378E-118
   28.5950000000000         3.958127594306984E-118
   28.7850000000000         4.121246717648714E-118
   28.9750000000000         1.970203775949035E-118
   29.1650000000000        -5.478717418119969E-118
   29.3550000000000        -2.344406410287330E-117
   29.5450000000000        -6.027942315330351E-117
   29.7350000000000        -1.281312573618102E-116
   29.9250000000000        -2.425671058708489E-116
   30.1150000000000        -4.196404588667141E-116
   30.3050000000000        -6.677236923500649E-116
   30.4950000000000        -9.699007651990568E-116
   30.6850000000000        -1.250939820087068E-115
   30.8750000000000        -1.321429593741196E-115
   31.0650000000000        -7.918413653767896E-116
   31.2550000000000         1.046502294593149E-115
   31.4450000000000         5.364215432448920E-115
   31.6350000000000         1.392434692757000E-114
   31.8250000000000         2.911505012497405E-114
   32.0150000000000         5.371685174542963E-114
   32.2050000000000         9.011411002261154E-114
   32.3950000000000         1.384960642620429E-113
   32.5850000000000         1.934060640387156E-113
   32.7750000000000         2.378451462202122E-113
   32.9650000000000         2.341416349252563E-113
   33.1550000000000         1.111892103762731E-113
   33.3450000000000        -2.511949405225385E-113
   33.5350000000000        -1.037579557196817E-112
   33.7250000000000        -2.504177979918963E-112
   33.9150000000000        -4.962951348924769E-112
   34.1050000000000        -8.716480498102904E-112
   34.2950000000000        -1.390289056662756E-111
   34.4850000000000        -2.019321846747283E-111
   34.6750000000000        -2.626879309289821E-111
   34.8650000000000        -2.900274347550684E-111
   35.0550000000000        -2.229459317230155E-111
   35.2450000000000         4.412379569966385E-112
   35.4350000000000         6.772395560329833E-111
   35.6250000000000         1.914623790979338E-110
   35.8150000000000         4.063292396551113E-110
   36.0050000000000         7.461664087805851E-110
   36.1950000000000         1.237797544984331E-109
   36.3850000000000         1.880068428046655E-109
   36.5750000000000         2.606321225951219E-109
   36.7650000000000         3.223650393459581E-109
   36.9550000000000         3.322861512082552E-109
   37.1450000000000         2.156693928649885E-109
   37.3350000000000        -1.507000504753159E-109
   37.5250000000000        -9.532460076758747E-109
   37.7150000000000        -2.450796981055688E-108
   37.9050000000000        -4.967854869777178E-108
   38.0950000000000        -8.854604148822049E-108
   38.2850000000000        -1.438729002355019E-107
   38.4750000000000        -2.157214614680792E-107
   38.6650000000000        -2.980619665593181E-107
   38.8550000000000        -3.734310106983239E-107
   39.0450000000000        -4.051897102226588E-107
   39.2350000000000        -3.272318222148126E-107
   39.4250000000000        -3.169169513558436E-108
   39.6150000000000         6.434805683215914E-107
   39.8050000000000         1.923012987341083E-106
   39.9950000000000         4.091471177324590E-106
   40.1850000000000         7.467010158469569E-106
   40.3750000000000         1.233368005092347E-105
   40.5650000000000         1.880747158348471E-105
   40.7550000000000         2.660496815045034E-105
   40.9450000000000         3.468009860328145E-105
   41.1350000000000         4.069830303368240E-105
   41.3250000000000         4.033498085151326E-105
   41.5150000000000         2.642566404844272E-105
   41.7050000000000        -1.192900380154618E-105
   41.8950000000000        -9.007563402632334E-105
   42.0850000000000        -2.279221021955216E-104
   42.2750000000000        -4.487769998432777E-104
   42.4650000000000        -7.759073884994240E-104
   42.6550000000000        -1.225431689877074E-103
   42.8450000000000        -1.793808086953817E-103
   43.0350000000000        -2.437966830966695E-103
   43.2250000000000        -3.046277025286752E-103
   43.4150000000000        -3.399353721258616E-103
   43.6050000000000        -3.121645118069971E-103
   43.7950000000000        -1.628362944522955E-103
   43.9850000000000         1.921711583641750E-103
   44.1750000000000         8.648057480179917E-103
   44.3650000000000         1.991301885002906E-102
   44.5550000000000         3.718165041009546E-102
   44.7450000000000         6.171144417441236E-102
   44.9350000000000         9.398947649340200E-102
   45.1250000000000         1.328236011053927E-101
   45.3150000000000         1.739986189065744E-101
   45.5050000000000         2.084414014169505E-101
   45.6950000000000         2.199193162471681E-101
   45.8850000000000         1.824473674729335E-101
   46.0750000000000         5.782753491595969E-102
   46.2650000000000        -2.058862263359163E-101
   46.4550000000000        -6.736965306664665E-101
   46.6450000000000        -1.418806107985433E-100
   46.8350000000000        -2.510937882265588E-100
   47.0250000000000        -3.994485788186053E-100
   47.2150000000000        -5.852707819023658E-100
   47.4050000000000        -7.954316890877336E-100
   47.5950000000000        -9.980056947643403E-100
   47.7850000000000        -1.132984382391640E-099
   47.9750000000000        -1.101662646239882E-099
   48.1650000000000        -7.562181491137955E-100
   48.3550000000000         1.076601588329899E-100
   48.5450000000000         1.750433054147381E-099
   48.7350000000000         4.473763044598789E-099
   48.9250000000000         8.581574681536597E-099
   49.1150000000000         1.430541833061404E-098
   49.3050000000000         2.168099837613105E-098
   49.4950000000000         3.036331651311470E-098
   49.6850000000000         3.937211022108874E-098
   49.8750000000000         4.676924267265179E-098
   50.0650000000000         4.928792036242199E-098
   50.2550000000000         4.196268412566379E-098
   50.4450000000000         1.785120654005351E-098
   50.6350000000000        -3.200512916754601E-098
   50.8250000000000        -1.181669085400054E-097
   51.0150000000000        -2.516398655325798E-097
   51.2050000000000        -4.416200096662831E-097
   51.3950000000000        -6.917471332252456E-097
   51.5850000000000        -9.944968165282465E-097
   51.7750000000000        -1.323471821997221E-096
   51.9650000000000        -1.623648939883882E-096
   52.1550000000000        -1.800162388280769E-096
   52.3450000000000        -1.707024712713991E-096
   52.5350000000000        -1.138349688031728E-096
   52.7250000000000         1.738421937266611E-097
   52.9150000000000         2.549351632270288E-096
   53.1050000000000         6.329269751685800E-096
   53.2950000000000         1.181573509972100E-095
   53.4850000000000         1.917168196742753E-095
   53.6750000000000         2.827109527167224E-095
   53.8650000000000         3.849387058309391E-095
   54.0550000000000         4.846709846743841E-095
   54.2450000000000         5.576795143857130E-095
   54.4350000000000         5.662375767638090E-095
   54.6250000000000         4.567323148246719E-095
   54.8150000000000         1.588908873055883E-095
   55.0050000000000        -4.119550550768630E-095
   55.1950000000000        -1.347706889056781E-094
   55.3850000000000        -2.733215163900928E-094
   55.5750000000000        -4.622491430845512E-094
   55.7650000000000        -7.003265219481246E-094
   55.9550000000000        -9.748603829767404E-094
   56.1450000000000        -1.255610569867456E-093
   56.3350000000000        -1.487820226803874E-093
   56.5250000000000        -1.585162959345974E-093
   56.7150000000000        -1.424031264266092E-093
   56.9050000000000        -8.413660079450725E-094
   57.0950000000000         3.608875592249929E-094
   57.2850000000000         2.400719995065224E-093
   57.4750000000000         5.485699586917605E-093
   57.6650000000000         9.762353314158574E-093
   57.8550000000000         1.524088372444712E-092
   58.0450000000000         2.169268549551590E-092
   58.2350000000000         2.852185360031615E-092
   58.4250000000000         3.461803256691326E-092
   58.6150000000000         3.820702093201511E-092
   58.8050000000000         3.672774414878116E-092
   58.9950000000000         2.677930044697667E-092
   59.1850000000000         4.198777007591047E-093
   59.3750000000000        -3.565263074353106E-092
   59.5650000000000        -9.730444264222417E-092
   59.7550000000000        -1.841974320604012E-091
   59.9450000000000        -2.972258737317277E-091
   60.1350000000000        -4.327530616386041E-091
   60.3250000000000        -5.801213791885009E-091
   60.5150000000000        -7.187919499019528E-091
   60.7050000000000        -8.154147230121341E-091
   60.8950000000000        -8.213512304687283E-091
   61.0850000000000        -6.714443489538282E-091
   61.2750000000000        -2.851344194918123E-091
   61.4650000000000         4.286769790020624E-091
   61.6550000000000         1.561374924491335E-090
   61.8450000000000         3.187260553299565E-090
   62.0350000000000         5.337509423572609E-090
   62.2250000000000         7.964495885046593E-090
   62.4150000000000         1.089668587102194E-089
   62.6050000000000         1.378620658453300E-089
   62.7950000000000         1.605398474416148E-089
   62.9850000000000         1.684107006124176E-089
   63.1750000000000         1.497936228107989E-089
   63.3650000000000         9.000171751412874E-090
   63.5550000000000        -2.795684276862939E-090
   63.7450000000000        -2.217812875781025E-089
   63.9350000000000        -5.070807785530449E-089
   64.1250000000000        -8.930916681255650E-089
   64.3150000000000        -1.376705080927745E-088
   64.5050000000000        -1.934770208713335E-088
   64.6950000000000        -2.514924253915967E-088
   64.8850000000000        -3.025624904245917E-088
   65.0750000000000        -3.326639930552215E-088
   65.2650000000000        -3.221977816358304E-088
   65.4550000000000        -2.458092299184442E-088
   65.6450000000000        -7.310917239354528E-089
   65.8350000000000         2.292491512570781E-088
   66.0250000000000         6.936251464569657E-088
   66.2150000000000         1.345061117482804E-087
   66.4050000000000         2.192130666364554E-087
   66.5950000000000         3.214731367273078E-087
   66.7850000000000         4.348956786841767E-087
   66.9750000000000         5.469758429380938E-087
   67.1650000000000         6.372922129978227E-087
   67.3550000000000         6.758948274260671E-087
   67.5450000000000         6.222720580155652E-087
   67.7350000000000         4.254304520277153E-087
   67.9250000000000         2.576971806750250E-088
   68.1150000000000        -6.404366306475396E-087
   68.3050000000000        -1.633068089592156E-086
   68.4950000000000        -2.995823293958369E-086
   68.6850000000000        -4.738825015370968E-086
   68.8750000000000        -6.815842645395500E-086
   69.0650000000000        -9.096467824995846E-086
   69.2550000000000        -1.133457692061466E-085
   69.4450000000000        -1.313580108332227E-085
   69.6350000000000        -1.392851778599857E-085
   69.8250000000000        -1.294504304223847E-085
   70.0150000000000        -9.222131677786410E-086
   70.2050000000000        -1.632372490998820E-086
   70.3950000000000         1.103974528687616E-085
   70.5850000000000         2.996191308772444E-085
   70.7750000000000         5.604309503129704E-085
   70.9650000000000         8.963482226246305E-085
   71.1550000000000         1.301374730698589E-084
   71.3450000000000         1.755142479360175E-084
   71.5350000000000         2.217308642684095E-084
   71.7250000000000         2.621605865397434E-084
   71.9150000000000         2.870225662114193E-084
   72.1050000000000         2.829563988809453E-084
   72.2950000000000         2.328760735665072E-084
   72.4850000000000         1.162893852301628E-084
   72.6750000000000        -8.969021600690273E-085
   72.8650000000000        -4.083804358122773E-084
   73.0550000000000        -8.603434419948697E-084
   73.2450000000000        -1.458721506670626E-083
   73.4350000000000        -2.202905487353573E-083
   73.6250000000000        -3.070475590043686E-083
   73.8150000000000        -4.007565729113084E-083
   74.0050000000000        -4.918115272264922E-083
   74.1950000000000        -5.652898684625501E-083
   74.3850000000000        -5.999769987313476E-083
   74.5750000000000        -5.677216753802652E-083
   74.7650000000000        -4.334058945691909E-083
   74.9550000000000        -1.558894591308794E-083
   75.1450000000000         3.096405609309461E-083
   75.3350000000000         1.007435569934955E-082
   75.5250000000000         1.974575707872504E-082
   75.7150000000000         3.231545884323056E-082
   75.9050000000000         4.769702073131406E-082
   76.0950000000000         6.535598994155689E-082
   76.2850000000000         8.412573444339653E-082
   76.4750000000000         1.020058715834508E-081
   76.6650000000000         1.159615004137500E-081
   76.8550000000000         1.217517251515941E-081
   77.0450000000000         1.138281053077096E-081
   77.2350000000000         8.535704589538499E-082
   77.4250000000000         2.843357398018129E-082
   77.6150000000000        -6.543441182406441E-082
   77.8050000000000        -2.044851239886258E-081
   77.9950000000000        -3.954195353725277E-081
   78.1850000000000        -6.416031618773026E-081
   78.3750000000000        -9.407108710245322E-081
   78.5650000000000        -1.281825935570369E-080
   78.7550000000000        -1.642086158875003E-080
   78.9450000000000        -1.983084215193834E-080
   79.1350000000000        -2.247378698938075E-080
   79.3250000000000        -2.355655497286000E-080
   79.5150000000000        -2.205289332213947E-080
   79.7050000000000        -1.671278575900507E-080
   79.8950000000000        -6.107391107186090E-081
   80.0850000000000         1.127689984211467E-080
   80.2750000000000         3.688102658235810E-080
   80.4650000000000         7.183898809784202E-080
   80.6550000000000         1.166563702503568E-079
   80.8450000000000         1.707974673584052E-079
   81.0350000000000         2.321868615001636E-079
   81.2250000000000         2.966460217514477E-079
   81.4150000000000         3.573053018540920E-079
   81.6050000000000         4.040566985859188E-079
   81.7950000000000         4.231422605497821E-079
   81.9850000000000         3.970055412382282E-079
   82.1750000000000         3.045661792162983E-079
   82.3650000000000         1.221062834207090E-079
   82.5550000000000        -1.750241591105975E-079
   82.7450000000000        -6.096748685387171E-079
   82.9350000000000        -1.198954213025358E-078
   83.1250000000000        -1.948961885198197E-078
   83.3150000000000        -2.848190370485942E-078
   83.5050000000000        -3.859761779666910E-078
   83.6950000000000        -4.912904595531702E-078
   83.8850000000000        -5.894382085826562E-078
   84.0750000000000        -6.640955659580270E-078
   84.2650000000000        -6.934386524467070E-078
   84.4550000000000        -6.500917641356296E-078
   84.6450000000000        -5.017587767790518E-078
   84.8350000000000        -2.128043059463904E-078
   85.0250000000000         2.529358998921332E-078
   85.2150000000000         9.278521809572183E-078
   85.4050000000000         1.834560624479102E-077
   85.5950000000000         2.978112759853810E-077
   85.7850000000000         4.336503075649230E-077
   85.9750000000000         5.849819918011128E-077
   86.1650000000000         7.408725998917590E-077
   86.3550000000000         8.843375720218528E-077
   86.5450000000000         9.914363881131426E-077
   86.7350000000000         1.030782516600711E-076
   86.9250000000000         9.637318699370786E-077
   87.1150000000000         7.455568181775557E-077
   87.3050000000000         3.279394143229413E-077
   87.4950000000000        -3.368843044355859E-077
   87.6850000000000        -1.290040477650663E-076
   87.8750000000000        -2.557804900860081E-076
   88.0650000000000        -4.141242044400682E-076
   88.2550000000000        -6.003927394982163E-076
   88.4450000000000        -8.058326433408929E-076
   88.6350000000000        -1.015183549637611E-075
   88.8250000000000        -1.205400179830015E-075
   89.0150000000000        -1.344700729641790E-075
   89.2050000000000        -1.392208118179776E-075
   89.3950000000000        -1.298503489747289E-075
   89.5850000000000        -1.007450521750010E-075
   89.7750000000000        -4.596635790586038E-076
   89.9650000000000         4.020303584310875E-076
   90.1550000000000         1.624861060706727E-075
   90.3450000000000         3.235982185595240E-075
   90.5350000000000         5.230023716555763E-075
   90.7250000000000         7.554727630724128E-075
   90.9150000000000         1.009546805121613E-074
   91.1050000000000         1.265994764927449E-074
   91.2950000000000         1.496492132538157E-074
   91.4850000000000         1.662739166386636E-074
   91.6750000000000         1.716329464541484E-074
   91.8650000000000         1.599717371622777E-074
   92.0550000000000         1.248662888824799E-074
   92.2450000000000         5.965308398080426E-075
   92.4350000000000        -4.192248323061696E-075
   92.6250000000000        -1.848164454489419E-074
   92.8150000000000        -3.715501236724019E-074
   93.0050000000000        -6.008479174954138E-074
   93.1950000000000        -8.661038743565898E-074
   93.3850000000000        -1.153774992261795E-073
   93.5750000000000        -1.441849810434412E-073
   93.7650000000000        -1.698596427941210E-073
   93.9550000000000        -1.881850524599021E-073
   94.1450000000000        -1.939155258644409E-073
   94.3350000000000        -1.809103151848883E-073
   94.5250000000000        -1.424245443642653E-073
   94.7150000000000        -7.159155464336410E-074
   94.9050000000000         3.787521192952946E-074
   95.0950000000000         1.907450714447183E-073
   95.2850000000000         3.891013387712878E-073
   95.4750000000000         6.309716508142834E-073
   95.6650000000000         9.088230467100844E-073
   95.8550000000000         1.208029782133757E-072
   96.0450000000000         1.505469852701290E-072
   96.2350000000000         1.768456956315912E-072
   96.4250000000000         1.954263685803864E-072
   96.6150000000000         2.010533021679095E-072
   96.8050000000000         1.876900964951506E-072
   96.9950000000000         1.488154236354701E-072
   97.1850000000000         7.792131682862204E-073
   97.3750000000000        -3.078492946420942E-073
   97.5650000000000        -1.814676007205646E-072
   97.7550000000000        -3.755502372692485E-072
   97.9450000000000        -6.104426705653812E-072
   98.1350000000000        -8.781789040696168E-072
   98.3250000000000        -1.164075841052381E-071
   98.5150000000000        -1.445564994197777E-071
   98.7050000000000        -1.691391930394546E-071
   98.8950000000000        -1.861416874430596E-071
   99.0850000000000        -1.907278839707422E-071
   99.2750000000000        -1.774197847249416E-071
   99.4650000000000        -1.404177234885065E-071
   99.6550000000000        -7.408222563142102E-072
   99.8450000000000         2.640961194913899E-072
   100.035000000000         1.642339073098653E-071
   100.225000000000         3.399355081860165E-071
   100.415000000000         5.503330203296147E-071
   100.605000000000         7.873861945259746E-071
   100.795000000000         1.037131172651962E-070
   100.985000000000         1.278823223239019E-070
   101.175000000000         1.484459085991598E-070
   101.365000000000         1.618877730875482E-070
   101.555000000000         1.640654057631709E-070
   101.745000000000         1.503998823519789E-070
   101.935000000000         1.161853400222731E-070
   102.125000000000         5.703133525796575E-071
   102.315000000000        -3.055754357088095E-071
   102.505000000000        -1.484734377187069E-070
   102.695000000000        -2.961940922829232E-070
   102.885000000000        -4.699155375706085E-070
   103.075000000000        -6.616992886554617E-070
   103.265000000000        -8.587304262306335E-070
   103.455000000000        -1.042808051119183E-069
   103.645000000000        -1.190211272001353E-069
   103.835000000000        -1.272098390388468E-069
   104.025000000000        -1.255599937965640E-069
   104.215000000000        -1.105752925335571E-069
   104.405000000000        -7.883892430673884E-070
   104.595000000000        -2.740312298095701E-070
   104.785000000000         4.572412902891644E-070
   104.975000000000         1.410107075893793E-069
   105.165000000000         2.567804848249485E-069
   105.355000000000         3.885893444719476E-069
   105.545000000000         5.286629373553602E-069
   105.735000000000         6.654804460031600E-069
   105.925000000000         7.836048540809836E-069
   106.115000000000         8.638716349434474E-069
   106.305000000000         8.840512714666488E-069
   106.495000000000         8.200931572989436E-069
   106.685000000000         6.480356974527331E-069
   106.875000000000         3.466266046295628E-069
   107.065000000000        -9.936398068214445E-070
   107.255000000000        -6.952379611660984E-069
   107.445000000000        -1.432075634229687E-068
   107.635000000000        -2.282379437505481E-068
   107.825000000000        -3.196112416287231E-068
   108.015000000000        -4.097720594932372E-068
   108.205000000000        -4.884845687090987E-068
   108.395000000000        -5.429518545023309E-068
   108.585000000000        -5.582652204625453E-068
   108.775000000000        -5.182601673354100E-068
   108.965000000000        -4.068400437493578E-068
   109.155000000000        -2.097997660764452E-068
   109.345000000000         8.286129019736658E-069
   109.535000000000         4.742069945725594E-068
   109.725000000000         9.573564634166880E-068
   109.915000000000         1.512430685019824E-067
   110.105000000000         2.103778696325717E-067