  -1.42500000000000         0.000000000000000E+000
  -1.23500000000000         0.000000000000000E+000
  -1.04500000000000         0.000000000000000E+000
 -0.855000000000000         0.000000000000000E+000
 -0.665000000000000         0.000000000000000E+000
 -0.475000000000000         0.000000000000000E+000
 -0.285000000000000         0.000000000000000E+000
 -9.499999999999975E-002    0.000000000000000E+000
  9.500000000000020E-002    0.000000000000000E+000
  0.285000000000000         0.000000000000000E+000
  0.475000000000000         0.000000000000000E+000
  0.665000000000000         0.000000000000000E+000
  0.855000000000000         0.000000000000000E+000
   1.04500000000000         0.000000000000000E+000
   1.23500000000000         0.000000000000000E+000
   1.42500000000000         0.000000000000000E+000
   1.61500000000000         0.000000000000000E+000
   1.80500000000000         0.000000000000000E+000
   1.99500000000000         0.000000000000000E+000
   2.18500000000000         0.000000000000000E+000
   2.37500000000000         0.000000000000000E+000
   2.56500000000000         0.000000000000000E+000
   2.75500000000000         0.000000000000000E+000
   2.94500000000000         0.000000000000000E+000
   3.13500000000000         0.000000000000000E+000
   3.32500000000000         0.000000000000000E+000
   3.51500000000000         0.000000000000000E+000
   3.70500000000000         0.000000000000000E+000
   3.89500000000000         0.000000000000000E+000
   4.08500000000000         0.000000000000000E+000
   4.27500000000000         0.000000000000000E+000
   4.46500000000000         0.000000000000000E+000
   4.65500000000000         0.000000000000000E+000
   4.84500000000000         0.000000000000000E+000
   5.03500000000000         0.000000000000000E+000
   5.22500000000000         0.000000000000000E+000
   5.41500000000000         0.000000000000000E+000
   5.60500000000000         0.000000000000000E+000
   5.79500000000000         0.000000000000000E+000
   5.98500000000000         0.000000000000000E+000
   6.17500000000000         0.000000000000000E+000
   6.36500000000000         0.000000000000000E+000
   6.55500000000000         1.912736226362484E-185
   6.74500000000000        -2.176916584868575E-179
   6.93500000000000        -1.313977560308346E-177
   7.12500000000000         3.784469795088295E-175
   7.31500000000000         3.693835573732707E-173
   7.50500000000000         1.079752404740095E-171
   7.69500000000000         5.181394420664663E-172
   7.88500000000000        -9.416951769841762E-169
   8.07500000000000        -3.718970941665456E-167
   8.26500000000000        -8.940272983795750E-166
   8.45500000000000        -1.610090823119281E-164
   8.64500000000000        -2.349952471608617E-163
   8.83500000000000        -2.900578785297904E-162
   9.02500000000000        -3.112074804764790E-161
   9.21500000000000        -2.959856433602337E-160
   9.40500000000000        -2.533303441356878E-159
   9.59500000000000        -1.975288228827778E-158
   9.78500000000000        -1.418026372334571E-157
   9.97500000000000        -9.462179946188413E-157
   10.1650000000000        -5.921846550302759E-156
   10.3550000000000        -3.506466841522857E-155
   10.5450000000000        -1.981160155214304E-154
   10.7350000000000        -1.076735820560950E-153
   10.9250000000000        -5.669593245370108E-153
   11.1150000000000        -2.908771407667694E-152
   11.3050000000000        -1.459368617784320E-151
   11.4950000000000        -7.170287320081684E-151
   11.6850000000000        -3.448147081791724E-150
   11.8750000000000        -1.619857031860222E-149
   12.0650000000000        -7.414558074372594E-149
   12.2550000000000        -3.298088862857043E-148
   12.4450000000000        -1.422334148345661E-147
   12.6350000000000        -5.936274764891624E-147
   12.8250000000000        -2.394607406182136E-146
   13.0150000000000        -9.328048152872889E-146
   13.2050000000000        -3.507185586375647E-145
   13.3950000000000        -1.272367285970739E-144
   13.5850000000000        -4.453283327323790E-144
   13.7750000000000        -1.503503462972603E-143
   13.9650000000000        -4.895578760145401E-143
   14.1550000000000        -1.536876520422181E-142
   14.3450000000000        -4.649104234090005E-142
   14.5350000000000        -1.353956315257018E-141
   14.7250000000000        -3.790823167818667E-141
   14.9150000000000        -1.018155660591823E-140
   15.1050000000000        -2.614528418344257E-140
   15.2950000000000        -6.385269389720170E-140
   15.4850000000000        -1.470260185004597E-139
   15.6750000000000        -3.142910187432151E-139
   15.8650000000000        -6.046972170673345E-139
   16.0550000000000        -9.693086182983914E-139
   16.2450000000000        -9.426632703238296E-139
   16.4350000000000         1.370589004031172E-138
   16.6250000000000         1.209258001105629E-137
   16.8150000000000         4.868246020132059E-137
   17.0050000000000         1.567965754692302E-136
   17.1950000000000         4.477423765654714E-136
   17.3850000000000         1.176279768176912E-135
   17.5750000000000         2.890357815919806E-135
   17.7650000000000         6.692166949965869E-135
   17.9550000000000         1.462757747922238E-134
   18.1450000000000         3.009279762705165E-134
   18.3350000000000         5.771768204356513E-134
   18.5250000000000         1.009887362306212E-133
   18.7150000000000         1.528580445681240E-133
   18.9050000000000         1.674592687476928E-133
   19.0950000000000        -1.499140937608542E-134
   19.2850000000000        -8.528279252458156E-133
   19.4750000000000        -3.532960658881139E-132
   19.6650000000000        -1.093162416975312E-131
   19.8550000000000        -2.968830316234229E-131
   20.0450000000000        -7.454877393900813E-131
   20.2350000000000        -1.772026207106537E-130
   20.4250000000000        -4.037502664047939E-130
   20.6150000000000        -8.881490018716757E-130
   20.8050000000000        -1.893935299300075E-129
   20.9950000000000        -3.923003541532290E-129
   21.1850000000000        -7.895747346124563E-129
   21.3750000000000        -1.542257264877387E-128
   21.5650000000000        -2.914832869546657E-128
   21.7550000000000        -5.301989076431983E-128
   21.9450000000000        -9.197331439449939E-128
   22.1350000000000        -1.496932816419532E-127
   22.3250000000000        -2.212450610394693E-127
   22.5150000000000        -2.735680201781635E-127
   22.7050000000000        -1.994136107252832E-127
   22.8950000000000         2.833219224430993E-127
   23.0850000000000         1.838663285660867E-126
   23.2750000000000         5.916729713298468E-126
   23.4650000000000         1.550504135523298E-125
   23.6550000000000         3.645898458230583E-125
   23.8450000000000         7.974032020551050E-125
   24.0350000000000         1.649720878980152E-124
   24.2250000000000         3.256980674094455E-124
   24.4150000000000         6.164411307938816E-124
   24.6050000000000         1.120760473877466E-123
   24.7950000000000         1.957454148374207E-123
   24.9850000000000         3.277968168706638E-123
   25.1750000000000         5.240725468021284E-123
   25.3650000000000         7.935958397381458E-123
   25.5550000000000         1.121623550891301E-122
   25.7450000000000         1.436254540903033E-122
   25.9350000000000         1.548512021770339E-122
   26.1250000000000         1.052823310502913E-122
   26.3150000000000        -8.267603422296592E-123
   26.5050000000000        -5.457126952081891E-122
   26.6950000000000        -1.508697994854454E-121
   26.8850000000000        -3.319278503546219E-121
   27.0750000000000        -6.483640806653906E-121
   27.2650000000000        -1.169642171718244E-120
   27.4550000000000        -1.985859569116709E-120
   27.6450000000000        -3.208955830751853E-120
   27.8350000000000        -4.977954495984107E-120
   28.0250000000000        -7.482452055386168E-120
   28.2150000000000        -1.103837332437819E-119
   28.4050000000000        -1.628665665786100E-119
   28.5950000000000        -2.464725088937893E-119
   28.7850000000000        -3.925528577024152E-119
   28.9750000000000        -6.673503446594845E-119
   29.1650000000000        -1.203137411340275E-118
   29.3550000000000        -2.248843605627189E-118
   29.5450000000000        -4.245568238112516E-118
   29.7350000000000        -7.927111676047512E-118
   29.9250000000000        -1.443060993114028E-117
   30.1150000000000        -2.536848154948725E-117
   30.3050000000000        -4.274544259272231E-117
   30.4950000000000        -6.848060148115585E-117
   30.6850000000000        -1.030818051734400E-116
   30.8750000000000        -1.426739070958947E-116
   31.0650000000000        -1.730540501849285E-116
   31.2550000000000        -1.586932325545148E-116
   31.4450000000000        -2.362985148303553E-117
   31.6350000000000         3.798507080700889E-116
   31.8250000000000         1.319526631022175E-115
   32.0150000000000         3.252480138837335E-115
   32.2050000000000         6.914444162841222E-115
   32.3950000000000         1.341495343026786E-114
   32.5850000000000         2.429293735822802E-114
   32.7750000000000         4.142326872469133E-114
   32.9650000000000         6.654215127413750E-114
   33.1550000000000         9.993900373886492E-114
   33.3450000000000         1.374895634803261E-113
   33.5350000000000         1.646108690425682E-113
   33.7250000000000         1.448373475018537E-113
   33.9150000000000        -4.734909994214122E-116
   34.1050000000000        -4.261831025383690E-113
   34.2950000000000        -1.417193633237811E-112
   34.4850000000000        -3.467957938599371E-112
   34.6750000000000        -7.390023173730979E-112
   34.8650000000000        -1.443894163335963E-111
   35.0550000000000        -2.642659904055958E-111
   35.2450000000000        -4.573471942951521E-111
   35.4350000000000        -7.505448381304600E-111
   35.6250000000000        -1.165256559365291E-110
   35.8150000000000        -1.697140654155423E-110
   36.0050000000000        -2.275319216426910E-110
   36.1950000000000        -2.687761352620466E-110
   36.3850000000000        -2.454927077794247E-110
   36.5750000000000        -6.303077368710832E-111
   36.7650000000000         4.492295610806673E-110
   36.9550000000000         1.577271680744900E-109
   37.1450000000000         3.769373840435967E-109
   37.3350000000000         7.680816984875143E-109
   37.5250000000000         1.419334753197433E-108
   37.7150000000000         2.436413986373721E-108
   37.9050000000000         3.922472059401948E-108
   38.0950000000000         5.930174851183448E-108
   38.2850000000000         8.366934349214064E-108
   38.4750000000000         1.082739381010777E-107
   38.6650000000000         1.232165805247374E-107
   38.8550000000000         1.086735737440555E-107
   39.0450000000000         2.925415516912484E-108
   39.2350000000000        -1.730543574801775E-107
   39.4250000000000        -5.864537488090580E-107
   39.6150000000000        -1.335147763304596E-106
   39.8050000000000        -2.578893225122007E-106
   39.9950000000000        -4.498419175484025E-106
   40.1850000000000        -7.254225419459203E-106
   40.3750000000000        -1.090056639857821E-105
   40.5650000000000        -1.523040447225093E-105
   40.7550000000000        -1.952258843029011E-105
   40.9450000000000        -2.216290250438172E-105
   41.1350000000000        -2.012164464503682E-105
   41.3250000000000        -8.300650759544657E-106
   41.5150000000000         2.117594796326150E-105
   41.7050000000000         7.954576467603546E-105
   41.8950000000000         1.815168562498878E-104
   42.0850000000000         3.443084197608515E-104
   42.2750000000000         5.847132521453202E-104
   42.4650000000000         9.129019292366509E-104
   42.6550000000000         1.321332210149607E-103
   42.8450000000000         1.766917481451676E-103
   43.0350000000000         2.144775973805430E-103
   43.2250000000000         2.252785858510683E-103
   43.4150000000000         1.748314748424273E-103
   43.6050000000000         1.025202150414263E-104
   43.7950000000000        -3.435743194584006E-103
   43.9850000000000        -9.844463222406311E-103
   44.1750000000000        -2.026600165314106E-102
   44.3650000000000        -3.582553505755826E-102
   44.5550000000000        -5.726050381261582E-102
   44.7450000000000        -8.427646190122498E-102
   44.9350000000000        -1.145408632639796E-101
   45.1250000000000        -1.422456064102937E-101
   45.3150000000000        -1.562292707247563E-101
   45.5050000000000        -1.377740302272723E-101
   45.6950000000000        -5.840722165057648E-102
   45.8850000000000         1.216298704606625E-101
   46.0750000000000         4.531152007732549E-101
   46.2650000000000         9.940506351827569E-101
   46.4550000000000         1.799923458604884E-100
   46.6450000000000         2.904958612141758E-100
   46.8350000000000         4.290897709317431E-100
   47.0250000000000         5.840056637546481E-100
   47.2150000000000         7.270770888560123E-100
   47.4050000000000         8.056540889381505E-100
   47.5950000000000         7.336085002356855E-100
   47.7850000000000         3.830978731481526E-100
   47.9750000000000        -4.198688407789445E-100
   48.1650000000000        -1.891200226751877E-099
   48.3550000000000        -4.268787568829649E-099
   48.5450000000000        -7.767571039436670E-099
   48.7350000000000        -1.249851740484469E-098
   48.9250000000000        -1.834000278948094E-098
   49.1150000000000        -2.475242571966698E-098
   49.3050000000000        -3.053382327717916E-098
   49.4950000000000        -3.352813208490979E-098
   49.6850000000000        -3.032104342151442E-098
   49.8750000000000        -1.599339666533963E-098
   50.0650000000000         1.595011302283377E-098
   50.2550000000000         7.329968286611549E-098
   50.4450000000000         1.642636222944384E-097
   50.6350000000000         2.956926155092782E-097
   50.8250000000000         4.700667877214823E-097
   51.0150000000000         6.809294620994601E-097
   51.2050000000000         9.065742140125005E-097
   51.3950000000000         1.102070559490568E-096
   51.5850000000000         1.190211463587769E-096
   51.7750000000000         1.052744205452677E-096
   51.9650000000000         5.243478175659840E-097
   52.1550000000000        -6.067565877689818E-097
   52.3450000000000        -2.586015174288865E-096
   52.5350000000000        -5.660335593207337E-096
   52.7250000000000        -1.001791141206308E-095
   52.9150000000000        -1.569119904793599E-095
   53.1050000000000        -2.241574678498289E-095
   53.2950000000000        -2.944223579821222E-095
   53.4850000000000        -3.530823944870512E-095
   53.6750000000000        -3.759130425973991E-095
   53.8650000000000        -3.268723132519800E-095
   54.0550000000000        -1.568740020386369E-095
   54.2450000000000         1.953426938894734E-095
   54.4350000000000         7.987378767202541E-095
   54.6250000000000         1.720007367724445E-094
   54.8150000000000         3.006015853139069E-094
   55.0050000000000         4.656585541565022E-094
   55.1950000000000         6.586203014720688E-094
   55.3850000000000         8.574617696407241E-094
   55.5750000000000         1.020883006533058E-093
   55.7650000000000         1.082289758261737E-093
   55.9550000000000         9.447518775347409E-094
   56.1450000000000         4.788479383934830E-094
   56.3350000000000        -4.738617150549279E-094
   56.5250000000000        -2.088129036771731E-093
   56.7150000000000        -4.528753964614723E-093
   56.9050000000000        -7.906122010579746E-093
   57.0950000000000        -1.220937154945621E-092
   57.2850000000000        -1.721475088063258E-092
   57.4750000000000        -2.237028814061707E-092
   57.6650000000000        -2.666387819057697E-092
   57.8550000000000        -2.849078775560828E-092
   58.0450000000000        -2.554863090219013E-092
   58.2350000000000        -1.480280982149431E-092
   58.4250000000000         7.417813146963482E-093
   58.6150000000000         4.511886325372275E-092
   58.8050000000000         1.020435998173119E-091
   58.9950000000000         1.806902000531428E-091
   59.1850000000000         2.808665482450217E-091
   59.3750000000000         3.977465595256458E-091
   59.5650000000000         5.194691635956117E-091
   59.7550000000000         6.244444785077580E-091
   59.9450000000000         6.787087174294484E-091
   60.1350000000000         6.339014552398001E-091
   60.3250000000000         4.267173593641221E-091
   60.5150000000000        -1.901464103769959E-092
   60.7050000000000        -7.861934467563150E-091
   60.8950000000000        -1.952633124538213E-090
   61.0850000000000        -3.571969043098489E-090
   61.2750000000000        -5.646010433236853E-090
   61.4650000000000        -8.088079334233232E-090
   61.6550000000000        -1.067832928750517E-089
   61.8450000000000        -1.301427751545576E-089
   62.0350000000000        -1.446290115954869E-089
   62.2250000000000        -1.412462009553762E-089
   62.4150000000000        -1.082411545937652E-089
   62.6050000000000        -3.147756962189604E-090
   62.7950000000000         1.044835942880888E-089
   62.9850000000000         3.143332163552395E-089
   63.1750000000000         6.087378805530227E-089
   63.3650000000000         9.896477887919550E-089
   63.5550000000000         1.444139147638529E-088
   63.7450000000000         1.936982655861142E-088
   63.9350000000000         2.402489691896989E-088
   64.1250000000000         2.736674937492174E-088
   64.3150000000000         2.791378563265978E-088
   64.5050000000000         2.372675007817938E-088
   64.6950000000000         1.246583041755684E-088
   64.8850000000000        -8.443399844823027E-089
   65.0750000000000        -4.149665116008490E-088
   65.2650000000000        -8.861421542234760E-088
   65.4550000000000        -1.504355095805549E-087
   65.6450000000000        -2.254011104784064E-087
   65.8350000000000        -3.086539700158685E-087
   66.0250000000000        -3.908427489236418E-087
   66.2150000000000        -4.569776085668563E-087
   66.4050000000000        -4.855700271767892E-087
   66.5950000000000        -4.483771060434107E-087
   66.7850000000000        -3.111562804796249E-087
   66.9750000000000        -3.590134770675532E-088
   67.1650000000000         4.149479985842825E-087
   67.3550000000000         1.071882399487809E-086
   67.5450000000000         1.949001238933741E-086
   67.7350000000000         3.032005722387352E-086
   67.9250000000000         4.263982063119769E-086
   68.1150000000000         5.530094626767495E-086
   68.3050000000000         6.643126000275850E-086
   68.4950000000000         7.332747040708713E-086
   68.6850000000000         7.242384494346824E-086
   68.8750000000000         5.938429311005279E-086
   69.0650000000000         2.937085355022579E-086
   69.2550000000000        -2.245874162347479E-086
   69.4450000000000        -1.001811196272606E-085
   69.6350000000000        -2.060433427067006E-085
   69.8250000000000        -3.391204080496332E-085
   70.0150000000000        -4.937637130589860E-085
   70.2050000000000        -6.579811689669575E-085
   70.3950000000000        -8.119745764325471E-085
   70.5850000000000        -9.271512137196833E-085
   70.7750000000000        -9.660118371460339E-085
   70.9650000000000        -8.833783255390821E-085
   71.1550000000000        -6.294374795270978E-085
   71.3450000000000        -1.550154304721177E-085
   71.5350000000000         5.806690294596665E-085
   71.7250000000000         1.599819329482305E-084
   71.9150000000000         2.893931081580819E-084
   72.1050000000000         4.410784240243236E-084
   72.2950000000000         6.042313024737307E-084
   72.4850000000000         7.615835001963231E-084
   72.6750000000000         8.891766452633324E-084
   72.8650000000000         9.571348629607425E-084
   73.0550000000000         9.317843593960500E-084
   73.2450000000000         7.793881601362098E-084
   73.4350000000000         4.715904730880855E-084
   73.6250000000000        -7.625070545081584E-086
   73.8150000000000        -6.540748928339962E-084
   74.0050000000000        -1.435755061363207E-083
   74.1950000000000        -2.287208862155520E-083
   74.3850000000000        -3.108230580200566E-083
   74.5750000000000        -3.769721595827906E-083
   74.7650000000000        -4.129671546464673E-083
   74.9550000000000        -4.061856459804799E-083
   75.1450000000000        -3.498669145042396E-083
   75.3350000000000        -2.487265380120772E-083
   75.5250000000000        -1.254712157353478E-083
   75.7150000000000        -2.729710936622633E-084
   75.9050000000000        -3.084622814806790E-084
   76.0950000000000        -2.434071295109876E-083
   76.2850000000000        -7.974655849642970E-083
   76.4750000000000        -1.835178100799049E-082
   76.6650000000000        -3.479155840456453E-082
   76.8550000000000        -5.786366476501961E-082
   77.0450000000000        -8.683290805674430E-082
   77.2350000000000        -1.188303167302062E-081
   77.4250000000000        -1.478915696157076E-081
   77.6150000000000        -1.639685679461524E-081
   77.8050000000000        -1.520950107563621E-081
   77.9950000000000        -9.197575375312270E-082
   78.1850000000000         4.163517828523375E-082
   78.3750000000000         2.773152697170308E-081
   78.5650000000000         6.436000910533337E-081
   78.7550000000000         1.163338242942603E-080
   78.9450000000000         1.845342505798105E-080
   79.1350000000000         2.673120326753142E-080
   79.3250000000000         3.590853082334962E-080
   79.5150000000000         4.487387012895867E-080
   79.7050000000000         5.179821536853369E-080
   79.8950000000000         5.399329297439638E-080
   80.0850000000000         4.783073281265702E-080
   80.2750000000000         2.877400477355565E-080
   80.4650000000000        -8.412815995656818E-081
   80.6550000000000        -6.920653893343831E-080
   80.8450000000000        -1.585416920646235E-079
   81.0350000000000        -2.796369471234043E-079
   81.2250000000000        -4.323906262696056E-079
   81.4150000000000        -6.113512510054524E-079
   81.6050000000000        -8.033414384106851E-079
   81.7950000000000        -9.849148155540987E-079
   81.9850000000000        -1.119956333580520E-078
   82.1750000000000        -1.157892318209442E-078
   82.3650000000000        -1.033147487910962E-078
   82.5550000000000        -6.666537110998447E-079
   82.7450000000000         2.964833701248679E-080
   82.9350000000000         1.144306389284806E-078
   83.1250000000000         2.752895001112343E-078
   83.3150000000000         4.898862206606546E-078
   83.5050000000000         7.568410948101677E-078
   83.6950000000000         1.065989384069088E-077
   83.8850000000000         1.394928917632810E-077
   84.0750000000000         1.705477101037817E-077
   84.2650000000000         1.940516191660565E-077
   84.4550000000000         2.021907686510190E-077
   84.6450000000000         1.850366267479670E-077
   84.8350000000000         1.308374278368575E-077
   85.0250000000000         2.673513894848637E-078
   85.2150000000000        -1.399678150420107E-077
   85.4050000000000        -3.798815570197342E-077
   85.5950000000000        -6.988677886631226E-077
   85.7850000000000        -1.094637650423999E-076
   85.9750000000000        -1.552703195183540E-076
   86.1650000000000        -2.041918371413492E-076
   86.3550000000000        -2.510025624464771E-076
   86.5450000000000        -2.879837989734836E-076
   86.7350000000000        -3.046920832481831E-076
   86.9250000000000        -2.879869777232316E-076
   87.1150000000000        -2.224478581615110E-076
   87.3050000000000        -9.132078611026779E-077
   87.4950000000000         1.218653295802263E-076
   87.6850000000000         4.308960393623054E-076
   87.8750000000000         8.436138073461692E-076
   88.0650000000000         1.357819736754153E-075
   88.2550000000000         1.956469836141126E-075
   88.4450000000000         2.602463381788207E-075
   88.6350000000000         3.233522405923062E-075
   88.8250000000000         3.757893835591512E-075
   89.0150000000000         4.051853083711991E-075
   89.2050000000000         3.960223996506080E-075
   89.3950000000000         3.301318203092233E-075
   89.5850000000000         1.877789283372736E-075
   89.7750000000000        -5.051638795694598E-076
   89.9650000000000        -4.013089117085226E-075
   90.1550000000000        -8.746475621666264E-075
   90.3450000000000        -1.469616435563096E-074
   90.5350000000000        -2.169157845679342E-074
   90.7250000000000        -2.934506547154613E-074
   90.9150000000000        -3.699769222140075E-074
   91.1050000000000        -4.367414535058431E-074
   91.2950000000000        -4.805678902742208E-074
   91.4850000000000        -4.849114688552148E-074
   91.6750000000000        -4.303674028721399E-074
   91.8650000000000        -2.957786549481026E-074
   92.0550000000000        -6.007984697794795E-075
   92.2450000000000         2.950164957415477E-074
   92.4350000000000         7.814430131041932E-074
   92.6250000000000         1.400351613899158E-073
   92.8150000000000         2.137005719299274E-073
   93.0050000000000         2.955318422037625E-073
   93.1950000000000         3.792555831325607E-073
   93.3850000000000         4.554936885658396E-073
   93.5750000000000         5.115076041041065E-073
   93.7650000000000         5.312408060240441E-073
   93.9550000000000         4.957870894557562E-073
   94.1450000000000         3.844161893681157E-073
   94.3350000000000         1.762776928056621E-073
   94.5250000000000        -1.471258478234191E-073
   94.7150000000000        -5.986599651955046E-073
   94.9050000000000        -1.181519153575846E-072
   95.0950000000000        -1.884585533931487E-072
   95.2850000000000        -2.677484718516345E-072
   95.4750000000000        -3.505804095243335E-072
   95.6650000000000        -4.287119126164110E-072
   95.8550000000000        -4.908652471174062E-072
   96.0450000000000        -5.227546586986693E-072
   96.2350000000000        -5.074834173701752E-072
   96.4250000000000        -4.264207958034729E-072
   96.6150000000000        -2.606583362082743E-072
   96.8050000000000         6.882479385320319E-074
   96.9950000000000         3.886663249858945E-072
   97.1850000000000         8.891290712200988E-072
   97.3750000000000         1.500770742896045E-071
   97.5650000000000         2.200011589106690E-071
   97.7550000000000         2.943200515021265E-071
   97.9450000000000         3.663308387322495E-071
   98.1350000000000         4.267977943281495E-071
   98.3250000000000         4.639719016032151E-071
   98.5150000000000         4.639109572709344E-071
   98.7050000000000         4.111862714217457E-071
   98.8950000000000         2.900518001291774E-071
   99.0850000000000         8.612831036435424E-072
   99.2750000000000        -2.113836648694269E-071
   99.4650000000000        -6.070044983368161E-071
   99.6550000000000        -1.095906069693574E-070
   99.8450000000000        -1.660678633248336E-070
   100.035000000000        -2.268242386477976E-070
   100.225000000000        -2.867319191135881E-070
   100.415000000000        -3.386981269549275E-070
   100.605000000000        -3.736875310123865E-070
   100.795000000000        -3.809764865157190E-070
   100.985000000000        -3.487021258791267E-070
   101.175000000000        -2.647602276225773E-070
   101.365000000000        -1.180868296916745E-070
   101.555000000000         9.967196325365759E-071
   101.745000000000         3.921406083028700E-070
   101.935000000000         7.559393980855614E-070
   102.125000000000         1.178315127385663E-069
   102.315000000000         1.634911973525917E-069
   102.505000000000         2.087993381829121E-069
   102.695000000000         2.485495551442162E-069
   102.885000000000         2.761346259064993E-069
   103.075000000000         2.837506583887156E-069
   103.265000000000         2.628173421362887E-069
   103.455000000000         2.046502831859467E-069
   103.645000000000         1.014064631295482E-069
   103.835000000000        -5.269934261666059E-070
   104.025000000000        -2.599413216336542E-069
   104.215000000000        -5.174671360688018E-069
   104.405000000000        -8.156423139668697E-069
   104.595000000000        -1.136528565070875E-068
   104.785000000000        -1.452722078604303E-068
   104.975000000000        -1.726824023582788E-068
   105.165000000000        -1.911848225085619E-068
   105.355000000000        -1.952881401378651E-068
   105.545000000000        -1.790289612740060E-068
   105.735000000000        -1.364700804674758E-068
   105.925000000000        -6.238786515587254E-069
   106.115000000000         4.685691364425055E-069
   106.305000000000         1.922936671303709E-068
   106.495000000000         3.712196552841932E-068
   106.685000000000         5.760716942780120E-068
   106.875000000000         7.934185835902491E-068
   107.065000000000         1.003235935161293E-067
   107.255000000000         1.178655119256749E-067
   107.445000000000         1.286397786915072E-067
   107.635000000000         1.288110709126660E-067
   107.825000000000         1.142795819156411E-067
   108.015000000000         8.104807621026805E-068
   108.205000000000         2.571901955163515E-068
   108.395000000000        -5.388463912023213E-068
   108.585000000000        -1.579979462234675E-067
   108.775000000000        -2.841348094468274E-067
   108.965000000000        -4.263174639757253E-067
   109.155000000000        -5.744052105821018E-067
   109.345000000000        -7.136367083167260E-067
   109.535000000000        -8.245199031693659E-067
   109.725000000000        -8.832159991686252E-067
   109.915000000000        -8.625645179940494E-067
   110.105000000000        -7.338809439179251E-067