  -1.42500000000000         0.000000000000000E+000
  -1.23500000000000         0.000000000000000E+000
  -1.04500000000000         0.000000000000000E+000
 -0.855000000000000         0.000000000000000E+000
 -0.665000000000000         0.000000000000000E+000
 -0.475000000000000         0.000000000000000E+000
 -0.285000000000000         0.000000000000000E+000
 -9.499999999999975E-002    0.000000000000000E+000
  9.500000000000020E-002    0.000000000000000E+000
  0.285000000000000         0.000000000000000E+000
  0.475000000000000         0.000000000000000E+000
  0.665000000000000         0.000000000000000E+000
  0.855000000000000         0.000000000000000E+000
   1.04500000000000         0.000000000000000E+000
   1.23500000000000         0.000000000000000E+000
   1.42500000000000         0.000000000000000E+000
   1.61500000000000         0.000000000000000E+000
   1.80500000000000         0.000000000000000E+000
   1.99500000000000         0.000000000000000E+000
   2.18500000000000         0.000000000000000E+000
   2.37500000000000         0.000000000000000E+000
   2.56500000000000         0.000000000000000E+000
   2.75500000000000         0.000000000000000E+000
   2.94500000000000         0.000000000000000E+000
   3.13500000000000         0.000000000000000E+000
   3.32500000000000         0.000000000000000E+000
   3.51500000000000         0.000000000000000E+000
   3.70500000000000         0.000000000000000E+000
   3.89500000000000         0.000000000000000E+000
   4.08500000000000         0.000000000000000E+000
   4.27500000000000         0.000000000000000E+000
   4.46500000000000         0.000000000000000E+000
   4.65500000000000         0.000000000000000E+000
   4.84500000000000         0.000000000000000E+000
   5.03500000000000         0.000000000000000E+000
   5.22500000000000         0.000000000000000E+000
   5.41500000000000         0.000000000000000E+000
   5.60500000000000         0.000000000000000E+000
   5.79500000000000         0.000000000000000E+000
   5.98500000000000         0.000000000000000E+000
   6.17500000000000         0.000000000000000E+000
   6.36500000000000         0.000000000000000E+000
   6.55500000000000         0.000000000000000E+000
   6.74500000000000         0.000000000000000E+000
   6.93500000000000        -1.955936543250775E-191
   7.12500000000000         2.308098490379367E-183
   7.31500000000000         1.488411664709721E-181
   7.50500000000000        -2.094176210941006E-179
   7.69500000000000        -1.925589618559442E-177
   7.88500000000000        -7.877267302003860E-176
   8.07500000000000        -2.117328252165128E-174
   8.26500000000000        -4.267069773123941E-173
   8.45500000000000        -6.902307230494127E-172
   8.64500000000000        -9.345714587472861E-171
   8.83500000000000        -1.089900825987177E-169
   9.02500000000000        -1.117669618812809E-168
   9.21500000000000        -1.023803025018281E-167
   9.40500000000000        -8.481025964039497E-167
   9.59500000000000        -6.416770377804456E-166
   9.78500000000000        -4.470518367658949E-165
   9.97500000000000        -2.887526308108520E-164
   10.1650000000000        -1.739085929618387E-163
   10.3550000000000        -9.814888146512568E-163
   10.5450000000000        -5.212837690300607E-162
   10.7350000000000        -2.615240206490769E-161
   10.9250000000000        -1.243470939908701E-160
   11.1150000000000        -5.620025664813622E-160
   11.3050000000000        -2.421044793434681E-159
   11.4950000000000        -9.966503954033139E-159
   11.6850000000000        -3.930488893756069E-158
   11.8750000000000        -1.488778742100547E-157
   12.0650000000000        -5.431298538001393E-157
   12.2550000000000        -1.914483038904881E-156
   12.4450000000000        -6.545211629286558E-156
   12.6350000000000        -2.180334236823102E-155
   12.8250000000000        -7.116307022827927E-155
   13.0150000000000        -2.290228305313032E-154
   13.2050000000000        -7.316424381758684E-154
   13.3950000000000        -2.334268077868148E-153
   13.5850000000000        -7.469028019068308E-153
   13.7750000000000        -2.399943003702689E-152
   13.9650000000000        -7.728659336909122E-152
   14.1550000000000        -2.482794141251245E-151
   14.3450000000000        -7.906727968148763E-151
   14.5350000000000        -2.479587987073945E-150
   14.7250000000000        -7.609376296842449E-150
   14.9150000000000        -2.272156245133419E-149
   15.1050000000000        -6.567474734228465E-149
   15.2950000000000        -1.828190295817857E-148
   15.4850000000000        -4.873563837790352E-148
   15.6750000000000        -1.235073688387580E-147
   15.8650000000000        -2.943069438438186E-147
   16.0550000000000        -6.470645896370685E-147
   16.2450000000000        -1.262591172516069E-146
   16.4350000000000        -1.968521101369640E-146
   16.6250000000000        -1.377497032054577E-146
   16.8150000000000         6.211543376181700E-146
   17.0050000000000         3.974688844831066E-145
   17.1950000000000         1.551489360387015E-144
   17.3850000000000         5.041195725788202E-144
   17.5750000000000         1.470956829332087E-143
   17.7650000000000         3.971350089206872E-143
   17.9550000000000         1.006183583221797E-142
   18.1450000000000         2.408522550302805E-142
   18.3350000000000         5.459201950736088E-142
   18.5250000000000         1.169734538450105E-141
   18.7150000000000         2.353711637391275E-141
   18.9050000000000         4.379977566795557E-141
   19.0950000000000         7.274247245486613E-141
   19.2850000000000         9.739920630329918E-141
   19.4750000000000         5.950977680127983E-141
   19.6650000000000        -2.330088905502926E-140
   19.8550000000000        -1.338402564172485E-139
   20.0450000000000        -4.770787152541020E-139
   20.2350000000000        -1.445951033553459E-138
   20.4250000000000        -4.028127393309013E-138
   20.6150000000000        -1.064208791300980E-137
   20.8050000000000        -2.706894355410520E-137
   20.9950000000000        -6.679636018402666E-137
   21.1850000000000        -1.604878989093279E-136
   21.3750000000000        -3.759004844055304E-136
   21.5650000000000        -8.580635444430251E-136
   21.7550000000000        -1.906357160876839E-135
   21.9450000000000        -4.113257098902148E-135
   22.1350000000000        -8.593074549021630E-135
   22.3250000000000        -1.730940930043102E-134
   22.5150000000000        -3.341935472874448E-134
   22.7050000000000        -6.128164992408636E-134
   22.8950000000000        -1.050989975116602E-133
   23.0850000000000        -1.636525321992103E-133
   23.2750000000000        -2.154960384159708E-133
   23.4650000000000        -1.831637760958759E-133
   23.6550000000000         1.450621779147017E-133
   23.8450000000000         1.272692497166874E-132
   24.0350000000000         4.288709810003708E-132
   24.2250000000000         1.137146423856037E-131
   24.4150000000000         2.656867543902006E-131
   24.6050000000000         5.683085136821704E-131
   24.7950000000000         1.129914148393455E-130
   24.9850000000000         2.096920325324117E-130
   25.1750000000000         3.617843207915881E-130
   25.3650000000000         5.719651316641946E-130
   25.5550000000000         7.996771028852558E-130
   25.7450000000000         8.941665605651046E-130
   25.9350000000000         4.655511549282121E-130
   26.1250000000000        -1.339956471713155E-129
   26.3150000000000        -6.191596676189090E-129
   26.5050000000000        -1.704866359594504E-128
   26.6950000000000        -3.864651517499515E-128
   26.8850000000000        -7.762796160023699E-128
   27.0750000000000        -1.414379752066714E-127
   27.2650000000000        -2.341644856141784E-127
   27.4550000000000        -3.459837324650725E-127
   27.6450000000000        -4.306711988933121E-127
   27.8350000000000        -3.630013243666875E-127
   28.0250000000000         1.342108983186942E-127
   28.2150000000000         1.602586400518841E-126
   28.4050000000000         4.999657711189368E-126
   28.5950000000000         1.186053602072893E-125
   28.7850000000000         2.437751280713269E-125
   28.9750000000000         4.518235324100980E-125
   29.1650000000000         7.640264904554712E-125
   29.3550000000000         1.172302215176652E-124
   29.5450000000000         1.587785540829386E-124
   29.7350000000000         1.744751244924664E-124
   29.9250000000000         1.038345897427530E-124
   30.1150000000000        -1.723376181377200E-124
   30.3050000000000        -8.655276838963046E-124
   30.4950000000000        -2.317224250305794E-123
   30.6850000000000        -5.025577381468400E-123
   30.8750000000000        -9.626176132048477E-123
   31.0650000000000        -1.675924333465533E-122
   31.2550000000000        -2.670597248625147E-122
   31.4450000000000        -3.861043176437080E-122
   31.6350000000000        -4.902927376305509E-122
   31.8250000000000        -4.949620523574710E-122
   32.0150000000000        -2.281017850951366E-122
   32.2050000000000         6.203630068941312E-122
   32.3950000000000         2.558013547819425E-121
   32.5850000000000         6.341246892466308E-121
   32.7750000000000         1.297987726914903E-120
   32.9650000000000         2.362117977521263E-120
   33.1550000000000         3.918781722233153E-120
   33.3450000000000         5.957666483096119E-120
   33.5350000000000         8.215141557741864E-120
   33.7250000000000         9.920565380040289E-120
   33.9150000000000         9.408537941777928E-120
   34.1050000000000         3.582980930121487E-120
   34.2950000000000        -1.273432638784313E-119
   34.4850000000000        -4.744182218766303E-119
   34.6750000000000        -1.114833247354245E-118
   34.8650000000000        -2.182902741612894E-118
   35.0550000000000        -3.813836878848717E-118
   35.2450000000000        -6.086838085322187E-118
   35.4350000000000        -8.915389857173915E-118
   35.6250000000000        -1.186071678892506E-117
   35.8150000000000        -1.384468516119952E-117
   36.0050000000000        -1.274851605470757E-117
   36.1950000000000        -4.911707466556832E-118
   36.3850000000000         1.539752942863454E-117
   36.5750000000000         5.637021737116056E-117
   36.7650000000000         1.285796350354606E-116
   36.9550000000000         2.439017224875892E-116
   37.1450000000000         4.126277705572067E-116
   37.3350000000000         6.376810384651540E-116
   37.5250000000000         9.046354580203451E-116
   37.7150000000000         1.166248522212112E-115
   37.9050000000000         1.320715394594693E-115
   38.0950000000000         1.184192597301488E-115
   38.2850000000000         4.607979733645202E-116
   38.4750000000000        -1.282206384491562E-115
   38.6650000000000        -4.619547683000822E-115
   38.8550000000000        -1.022966304835475E-114
   39.0450000000000        -1.877817229830053E-114
   39.2350000000000        -3.067710705647940E-114
   39.4250000000000        -4.566649864021796E-114
   39.6150000000000        -6.216791400725151E-114
   39.8050000000000        -7.638307462723602E-114
   39.9950000000000        -8.116878329432533E-114
   40.1850000000000        -6.482906778919790E-114
   40.3750000000000        -1.014422297283928E-114
   40.5650000000000         1.057833349201605E-113
   40.7550000000000         3.099473034823337E-113
   40.9450000000000         6.288150098143184E-113
   41.1350000000000         1.079010299944299E-112
   41.3250000000000         1.651494797152021E-112
   41.5150000000000         2.287745620344361E-112
   41.7050000000000         2.847575508838284E-112
   41.8950000000000         3.070737241953871E-112
   42.0850000000000         2.538879553072600E-112
   42.2750000000000         6.513149301940543E-113
   42.4650000000000        -3.362314299902937E-112
   42.6550000000000        -1.035741844903574E-111
   42.8450000000000        -2.107014745552585E-111
   43.0350000000000        -3.573581849938652E-111
   43.2250000000000        -5.347202719894648E-111
   43.4150000000000        -7.138738012526370E-111
   43.6050000000000        -8.342961893536585E-111
   43.7950000000000        -7.909168851354942E-111
   43.9850000000000        -4.227075427877084E-111
   44.1750000000000         4.916034253040223E-111
   44.3650000000000         2.221532655069618E-110
   44.5550000000000         5.043146357433486E-110
   44.7450000000000         9.150013504946112E-110
   44.9350000000000         1.449636766044063E-109
   45.1250000000000         2.055317280787234E-109
   45.3150000000000         2.596658839639423E-109
   45.5050000000000         2.812989844423285E-109
   45.6950000000000         2.272050122760890E-109
   45.8850000000000         3.319412968819599E-110
   46.0750000000000        -3.867345571364363E-109
   46.2650000000000        -1.134896476820261E-108
   46.4550000000000        -2.313250912468745E-108
   46.6450000000000        -3.989363422481683E-108
   46.8350000000000        -6.138052250831136E-108
   47.0250000000000        -8.552478605339987E-108
   47.2150000000000        -1.072187139542685E-107
   47.4050000000000        -1.168087879172606E-107
   47.5950000000000        -9.849621205765072E-108
   47.7850000000000        -2.905705964128657E-108
   47.9750000000000         1.223917032287005E-107
   48.1650000000000         3.924560127314114E-107
   48.3550000000000         8.177926545306512E-107
   48.5450000000000         1.423745754294949E-106
   48.7350000000000         2.205168803918354E-106
   48.9250000000000         3.097632856128266E-106
   49.1150000000000         3.938413242720724E-106
   49.3050000000000         4.419181201392132E-106
   49.4950000000000         4.036722817649054E-106
   49.6850000000000         2.054716512347773E-106
   49.8750000000000        -2.501197171117802E-106
   50.0650000000000        -1.078152067828582E-105
   50.2550000000000        -2.393864887214574E-105
   50.4450000000000        -4.278495101475793E-105
   50.6350000000000        -6.722528698877965E-105
   50.8250000000000        -9.541814722154359E-105
   51.0150000000000        -1.226564570530552E-104
   51.2050000000000        -1.400328456128955E-104
   51.3950000000000        -1.330773951420120E-104
   51.5850000000000        -8.073825576181711E-105
   51.7750000000000         4.468147955410552E-105
   51.9650000000000         2.757281118265248E-104
   52.1550000000000         6.449457971152485E-104
   52.3450000000000         1.175550709102174E-103
   52.5350000000000         1.866192441275446E-103
   52.7250000000000         2.668730623671199E-103
   52.9150000000000         3.458948439619771E-103
   53.1050000000000         4.002023959129586E-103
   53.2950000000000         3.917656517853053E-103
   53.4850000000000         2.654183461902242E-103
   53.6750000000000        -5.132046905826560E-104
   53.8650000000000        -6.438347986462743E-103
   54.0550000000000        -1.598569549934334E-102
   54.2450000000000        -2.980452084078485E-102
   54.4350000000000        -4.796291834481521E-102
   54.6250000000000        -6.941784799719958E-102
   54.8150000000000        -9.132066810544514E-102
   55.0050000000000        -1.082005185028693E-101
   55.1950000000000        -1.111358712448846E-101
   55.3850000000000        -8.712067180051951E-102
   55.5750000000000        -1.895414477759190E-102
   55.7650000000000         1.138772348023110E-101
   55.9550000000000         3.327229340721627E-101
   56.1450000000000         6.550036865222605E-101
   56.3350000000000         1.086477868699148E-100
   56.5250000000000         1.610051687865690E-100
   56.7150000000000         2.171118953426137E-100
   56.9050000000000         2.660272976354634E-100
   57.0950000000000         2.895565092081903E-100
   57.2850000000000         2.608336571332996E-100
   57.4750000000000         1.438974753334982E-100
   57.6650000000000        -1.048462897226765E-100
   57.8550000000000        -5.321378509329100E-100
   58.0450000000000        -1.179058163281660E-099
   58.2350000000000        -2.066649830781635E-099
   58.4250000000000        -3.175079990175294E-099
   58.6150000000000        -4.416332339294613E-099
   58.8050000000000        -5.601958225936380E-099
   58.9950000000000        -6.409770702352264E-099
   59.1850000000000        -6.356580829631656E-099
   59.3750000000000        -4.788033241792561E-099
   59.5650000000000        -9.009115530855782E-100
   59.7550000000000         6.182807613368233E-099
   59.9450000000000         1.726860355595990E-098
   60.1350000000000         3.284834543863238E-098
   60.3250000000000         5.275188594574207E-098
   60.5150000000000         7.569273904296871E-098
   60.7050000000000         9.873513057478767E-098
   60.8950000000000         1.167482765614943E-097
   61.0850000000000         1.219652903146508E-097
   61.2750000000000         1.038260706372209E-097
   61.4650000000000         4.934896994252948E-098
   61.6550000000000        -5.566780058161477E-098
   61.8450000000000        -2.242871407883156E-097
   62.0350000000000        -4.646184454540239E-097
   62.2250000000000        -7.743706756593138E-097
   62.4150000000000        -1.133847109322620E-096
   62.6050000000000        -1.497871680135766E-096
   62.7950000000000        -1.787741111750473E-096
   62.9850000000000        -1.885085962200930E-096
   63.1750000000000        -1.630447952171484E-096
   63.3650000000000        -8.303244572602381E-097
   63.5550000000000         7.228104246674231E-097
   63.7450000000000         3.212733908174312E-096
   63.9350000000000         6.739823190806667E-096
   64.1250000000000         1.123746088393494E-095
   64.3150000000000         1.636646460291052E-095
   64.5050000000000         2.139599814598462E-095
   64.6950000000000         2.508865565104769E-095
   64.8850000000000         2.561925520445901E-095
   65.0750000000000         2.057051767936926E-095
   65.2650000000000         7.062438547008699E-096
   65.4550000000000        -1.791729368127553E-095
   65.6450000000000        -5.691158930222437E-095
   65.8350000000000        -1.110615814233342E-094
   66.0250000000000        -1.788161742707871E-094
   66.2150000000000        -2.543170496688784E-094
   66.4050000000000        -3.255895998199097E-094
   66.5950000000000        -3.728072427950891E-094
   66.7850000000000        -3.670717907949045E-094
   66.9750000000000        -2.703545859543826E-094
   67.1650000000000        -3.744688940133711E-095
   67.3550000000000         3.790693645285365E-094
   67.5450000000000         1.019761546251101E-093
   67.7350000000000         1.904260435232087E-093
   67.9250000000000         3.011637774812907E-093
   68.1150000000000         4.255568735675496E-093
   68.3050000000000         5.455943344242056E-093
   68.4950000000000         6.310512769546865E-093
   68.6850000000000         6.372652782646602E-093
   68.8750000000000         5.044271546561398E-093
   69.0650000000000         1.595979385275908E-093
   69.2550000000000        -4.770660746297314E-093
   69.4450000000000        -1.480248454960025E-092
   69.6350000000000        -2.900017565397400E-092
   69.8250000000000        -4.733881686654135E-092
   70.0150000000000        -6.890230482193822E-092
   70.2050000000000        -9.144693343760869E-092
   70.3950000000000        -1.109339876972362E-091
   70.5850000000000        -1.211041448075031E-091
   70.7750000000000        -1.132069238370238E-091
   70.9650000000000        -7.604338363821578E-092
   71.1550000000000         3.476000144429257E-093
   71.3450000000000         1.390230098094441E-091
   71.5350000000000         3.425477019706408E-091
   71.7250000000000         6.207638150309621E-091
   71.9150000000000         9.702989083657345E-091
   72.1050000000000         1.371555959591629E-090
   72.2950000000000         1.781604814244073E-090
   72.4850000000000         2.126806509130060E-090
   72.6750000000000         2.296371011998863E-090
   72.8650000000000         2.138638882252247E-090
   73.0550000000000         1.462510385106807E-090
   73.2450000000000         4.703496521795475E-092
   73.4350000000000        -2.337411135246523E-090
   73.6250000000000        -5.892868917647647E-090
   73.8150000000000        -1.073948388933901E-089
   74.0050000000000        -1.684149663859680E-089
   74.1950000000000        -2.391432028283936E-089
   74.3850000000000        -3.131722007125473E-089
   74.5750000000000        -3.794128182169828E-089
   74.7650000000000        -4.210893339128655E-089
   74.9550000000000        -4.150898273101294E-089
   75.1450000000000        -3.319933117869282E-089
   75.3350000000000        -1.371715927005812E-089
   75.5250000000000         2.065807449555537E-089
   75.7150000000000         7.344207453590317E-089
   75.9050000000000         1.472420568663226E-088
   76.0950000000000         2.427850897391783E-088
   76.2850000000000         3.576783203634889E-088
   76.4750000000000         4.849423800396689E-088
   76.6650000000000         6.114166852916769E-088
   76.8550000000000         7.162086081553206E-088
   77.0450000000000         7.694449839369238E-088
   77.2350000000000         7.316784147720054E-088
   77.4250000000000         5.543927632466932E-088
   77.6150000000000         1.821283598807283E-088
   77.8050000000000        -4.432101707211782E-088
   77.9950000000000        -1.375313470054284E-087
   78.1850000000000        -2.653236436180207E-087
   78.3750000000000        -4.287713892845049E-087
   78.5650000000000        -6.244079915686812E-087
   78.7550000000000        -8.422307233334038E-087
   78.9450000000000        -1.063528745836880E-086
   79.1350000000000        -1.258721366246964E-086
   79.3250000000000        -1.385477892859801E-086
   79.5150000000000        -1.387482480845150E-086
   79.7050000000000        -1.194300120219196E-086
   79.8950000000000        -7.228858125900648E-087
   80.0850000000000         1.186506195222048E-087
   80.2750000000000         1.424365856915743E-086
   80.4650000000000         3.280220246724842E-086
   80.6550000000000         5.749591259232971E-086
   80.8450000000000         8.854007063227109E-086
   81.0350000000000         1.254869262937014E-085
   81.2250000000000         1.669275373620401E-085
   81.4150000000000         2.101417310860692E-085
   81.6050000000000         2.507030916293660E-085
   81.7950000000000         2.820535171217058E-085
   81.9850000000000         2.950731765875533E-085
   82.1750000000000         2.776882189453166E-085
   82.3650000000000         2.145823134778798E-085
   82.5550000000000         8.711121563304991E-086
   82.7450000000000        -1.264359340060668E-085
   82.9350000000000        -4.500277842311352E-085
   83.1250000000000        -9.082646713596565E-085
   83.3150000000000        -1.523588678112504E-084
   83.5050000000000        -2.311907793757355E-084
   83.6950000000000        -3.276154423133063E-084
   83.8850000000000        -4.397284647749147E-084
   84.0750000000000        -5.622292188131341E-084
   84.2650000000000        -6.849010024497304E-084
   84.4550000000000        -7.907864996774550E-084
   84.6450000000000        -8.541406636992744E-084
   84.8350000000000        -8.383421985119939E-084
   85.0250000000000        -6.940832140922663E-084
   85.2150000000000        -3.583371381294149E-084
   85.4050000000000         2.451754440257541E-084
   85.5950000000000         1.203056840834556E-083
   85.7850000000000         2.605623792817239E-083
   85.9750000000000         4.535198532064190E-083
   86.1650000000000         7.047773825829641E-083
   86.3550000000000         1.014661369183768E-082
   86.5450000000000         1.374673987787013E-082
   86.7350000000000         1.763007387975268E-082
   86.9250000000000         2.139239545068769E-082
   87.1150000000000         2.438537439391522E-082
   87.3050000000000         2.565983253895173E-082
   87.4950000000000         2.392012621806043E-082
   87.6850000000000         1.750401701906541E-082
   87.8750000000000         4.407355495320536E-083
   88.0650000000000        -1.762216365032748E-082
   88.2550000000000        -5.089380741287038E-082
   88.4450000000000        -9.745467049024469E-082
   88.6350000000000        -1.586134659146613E-081
   88.8250000000000        -2.342848428460400E-081
   89.0150000000000        -3.221460811368510E-081
   89.2050000000000        -4.166219870066155E-081
   89.3950000000000        -5.077495227765889E-081
   89.5850000000000        -5.800225111997095E-081
   89.7750000000000        -6.113788136508115E-081
   89.9650000000000        -5.725659232597656E-081
   90.1550000000000        -4.272014398564826E-081
   90.3450000000000        -1.329243236926447E-081
   90.5350000000000         3.559012834251100E-081
   90.7250000000000         1.083432896822474E-080
   90.9150000000000         2.085068776390434E-080
   91.1050000000000         3.377259542535353E-080
   91.2950000000000         4.944241678333540E-080
   91.4850000000000         6.721872167486215E-080
   91.6750000000000         8.579260817320289E-080
   91.8650000000000         1.029959840293497E-079
   92.0550000000000         1.156246421144620E-079
   92.2450000000000         1.193093900012552E-079
   92.4350000000000         1.084798536813401E-079
   92.6250000000000         7.647676800699173E-080
   92.8150000000000         1.587793071028620E-080
   93.0050000000000        -8.089174468017036E-080
   93.1950000000000        -2.205973849491885E-079
   93.3850000000000        -4.078220067549366E-079
   93.5750000000000        -6.431549218975019E-079
   93.7650000000000        -9.209548979040669E-079
   93.9550000000000        -1.226767798576526E-078
   94.1450000000000        -1.534567130707548E-078
   94.3350000000000        -1.804097654675277E-078
   94.5250000000000        -1.978733642334657E-078
   94.7150000000000        -1.984406813763505E-078
   94.9050000000000        -1.730301315725999E-078
   95.0950000000000        -1.112134755436127E-078
   95.2850000000000        -1.891871522112905E-080
   95.4750000000000         1.655914124885980E-078
   95.6650000000000         3.998255489921605E-078
   95.8550000000000         7.051468213351951E-078
   96.0450000000000         1.078895763396909E-077
   96.2350000000000         1.508192821782058E-077
   96.4250000000000         1.966408791632913E-077
   96.6150000000000         2.409632923453994E-077
   96.8050000000000         2.773591211322138E-077
   96.9950000000000         2.971631845803786E-077
   97.1850000000000         2.894560260231419E-077
   97.3750000000000         2.413251989805048E-077
   97.5650000000000         1.385069785883024E-077
   97.7550000000000        -3.348729932532878E-078
   97.9450000000000        -2.876668909393948E-077
   98.1350000000000        -6.332135960501164E-077
   98.3250000000000        -1.072473336935760E-076
   98.5150000000000        -1.597344927536742E-076
   98.7050000000000        -2.185225582854636E-076
   98.8950000000000        -2.794802724411521E-076
   99.0850000000000        -3.362136587764624E-076
   99.2750000000000        -3.797650475369163E-076
   99.4650000000000        -3.984822082198492E-076
   99.6550000000000        -3.781530520064546E-076
   99.8450000000000        -3.025132835206119E-076
   100.035000000000        -1.542387400671948E-076
   100.225000000000         8.347298979490980E-077
   100.415000000000         4.246500516979320E-076
   100.605000000000         8.775844489190830E-076
   100.795000000000         1.441189520505917E-075
   100.985000000000         2.100799394755006E-075
   101.175000000000         2.823654353928997E-075
   101.365000000000         3.554462508781894E-075
   101.555000000000         4.211593559949724E-075
   101.745000000000         4.684633537907680E-075
   101.935000000000         4.834193321642829E-075
   102.125000000000         4.494995250227940E-075
   102.315000000000         3.483331872405928E-075
   102.505000000000         1.609964028875955E-075
   102.695000000000        -1.300636421157808E-075
   102.885000000000        -5.384130018115454E-075
   103.075000000000        -1.070321606233187E-074
   103.265000000000        -1.720836124152380E-074
   103.455000000000        -2.469413956989416E-074
   103.645000000000        -3.275423646707263E-074
   103.835000000000        -4.073962235191851E-074
   104.025000000000        -4.772595683058792E-074
   104.215000000000        -5.249781065113932E-074
   104.405000000000        -5.355860485619919E-074
   104.595000000000        -4.917602912088228E-074
   104.785000000000        -3.747283216536895E-074
   104.975000000000        -1.657196135786183E-074
   105.165000000000         1.519725997573605E-074
   105.355000000000         5.902919575921747E-074
   105.545000000000         1.153113661222445E-073
   105.735000000000         1.832444214560768E-073
   105.925000000000         2.604336538670759E-073
   106.115000000000         3.424847227428690E-073
   106.305000000000         4.226490380464516E-073
   106.495000000000         4.915771900540530E-073
   106.685000000000         5.372506025429038E-073
   106.875000000000         5.451704859209682E-073
   107.065000000000         4.988870832759661E-073
   107.255000000000         3.809487670734946E-073
   107.445000000000         1.743372650381757E-073
   107.635000000000        -1.355702231613670E-073
   107.825000000000        -5.585110114138871E-073
   108.015000000000        -1.096373242148552E-072
   108.205000000000        -1.739883536819900E-072
   108.395000000000        -2.465155749014475E-072
   108.585000000000        -3.230405699575444E-072
   108.775000000000        -3.973236151275160E-072
   108.965000000000        -4.608991120023621E-072
   109.155000000000        -5.030757323710132E-072
   109.345000000000        -5.111638946727680E-072
   109.535000000000        -4.709933704813602E-072
   109.725000000000        -3.677776094041014E-072
   109.915000000000        -1.873670687011303E-072
   110.105000000000         8.209003967616422E-073