  -1.42500000000000         0.000000000000000E+000
  -1.23500000000000         0.000000000000000E+000
  -1.04500000000000         0.000000000000000E+000
 -0.855000000000000         0.000000000000000E+000
 -0.665000000000000         0.000000000000000E+000
 -0.475000000000000         0.000000000000000E+000
 -0.285000000000000         0.000000000000000E+000
 -9.499999999999975E-002    0.000000000000000E+000
  9.500000000000020E-002    0.000000000000000E+000
  0.285000000000000         0.000000000000000E+000
  0.475000000000000         0.000000000000000E+000
  0.665000000000000         0.000000000000000E+000
  0.855000000000000         0.000000000000000E+000
   1.04500000000000         0.000000000000000E+000
   1.23500000000000         0.000000000000000E+000
   1.42500000000000         0.000000000000000E+000
   1.61500000000000         0.000000000000000E+000
   1.80500000000000         0.000000000000000E+000
   1.99500000000000         0.000000000000000E+000
   2.18500000000000         0.000000000000000E+000
   2.37500000000000         0.000000000000000E+000
   2.56500000000000         0.000000000000000E+000
   2.75500000000000         0.000000000000000E+000
   2.94500000000000         0.000000000000000E+000
   3.13500000000000         0.000000000000000E+000
   3.32500000000000         0.000000000000000E+000
   3.51500000000000         0.000000000000000E+000
   3.70500000000000         0.000000000000000E+000
   3.89500000000000         0.000000000000000E+000
   4.08500000000000         0.000000000000000E+000
   4.27500000000000         0.000000000000000E+000
   4.46500000000000         0.000000000000000E+000
   4.65500000000000         0.000000000000000E+000
   4.84500000000000         0.000000000000000E+000
   5.03500000000000         0.000000000000000E+000
   5.22500000000000         0.000000000000000E+000
   5.41500000000000         0.000000000000000E+000
   5.60500000000000         0.000000000000000E+000
   5.79500000000000         0.000000000000000E+000
   5.98500000000000         0.000000000000000E+000
   6.17500000000000         0.000000000000000E+000
   6.36500000000000         0.000000000000000E+000
   6.55500000000000         0.000000000000000E+000
   6.74500000000000         3.848254528431481E-189
   6.93500000000000        -5.337450197294291E-182
   7.12500000000000        -3.338091632376215E-180
   7.31500000000000         4.837723778025011E-178
   7.50500000000000         4.324816071123098E-176
   7.69500000000000         1.728174472525870E-174
   7.88500000000000         4.533079409085610E-173
   8.07500000000000         8.894893478048209E-172
   8.26500000000000         1.396397405463704E-170
   8.45500000000000         1.827192731863744E-169
   8.64500000000000         2.048003882873239E-168
   8.83500000000000         2.004273675702310E-167
   9.02500000000000         1.736119071331085E-166
   9.21500000000000         1.343717524414365E-165
   9.40500000000000         9.347139784614548E-165
   9.59500000000000         5.855647708779436E-164
   9.78500000000000         3.293803667990025E-163
   9.97500000000000         1.644629069133773E-162
   10.1650000000000         7.074185729688796E-162
   10.3550000000000         2.405281658560927E-161
   10.5450000000000         4.253655580879841E-161
   10.7350000000000        -2.250709298549955E-160
   10.9250000000000        -3.233599664799804E-159
   11.1150000000000        -2.485062441625770E-158
   11.3050000000000        -1.534760990738882E-157
   11.4950000000000        -8.334336163201330E-157
   11.6850000000000        -4.124171079023833E-156
   11.8750000000000        -1.893697386287323E-155
   12.0650000000000        -8.154215994099834E-155
   12.2550000000000        -3.314787085069734E-154
   12.4450000000000        -1.277750878714725E-153
   12.6350000000000        -4.683993355046189E-153
   12.8250000000000        -1.635843679608526E-152
   13.0150000000000        -5.447338672410590E-152
   13.2050000000000        -1.729405331104210E-151
   13.3950000000000        -5.228327641286232E-151
   13.5850000000000        -1.501225400864472E-150
   13.7750000000000        -4.074525174869708E-150
   13.9650000000000        -1.036577756500324E-149
   14.1550000000000        -2.433820322310736E-149
   14.3450000000000        -5.108659275246514E-149
   14.5350000000000        -8.838583185033398E-149
   14.7250000000000        -8.884426393503206E-149
   14.9150000000000         1.724135084215497E-148
   15.1050000000000         1.503320050617961E-147
   15.2950000000000         6.430431598600240E-147
   15.4850000000000         2.215932756174692E-146
   15.6750000000000         6.783507805873463E-146
   15.8650000000000         1.913969584354848E-145
   16.0550000000000         5.067621024915617E-145
   16.2450000000000         1.272008059805713E-144
   16.4350000000000         3.046418434684141E-144
   16.6250000000000         6.992477724930536E-144
   16.8150000000000         1.543255924471512E-143
   17.0050000000000         3.283140945704183E-143
   17.1950000000000         6.744155121103078E-143
   17.3850000000000         1.338402136986639E-142
   17.5750000000000         2.561894951400479E-142
   17.7650000000000         4.702280349439913E-142
   17.9550000000000         8.157315181398232E-142
   18.1450000000000         1.292603388574277E-141
   18.3350000000000         1.704596600655724E-141
   18.5250000000000         1.197399109142533E-141
   18.7150000000000        -2.952787997207060E-141
   18.9050000000000        -1.821210527028163E-140
   19.0950000000000        -6.294752014271711E-140
   19.2850000000000        -1.781596336229598E-139
   19.4750000000000        -4.464116374415456E-139
   19.6650000000000        -1.013886751038311E-138
   19.8550000000000        -2.092303758452311E-138
   20.0450000000000        -3.868716588061014E-138
   20.2350000000000        -6.150314825580347E-138
   20.4250000000000        -7.405016793865434E-138
   20.6150000000000        -2.684776917119209E-138
   20.8050000000000         1.996300223638066E-137
   20.9950000000000         8.364006520515148E-137
   21.1850000000000         2.213764677806657E-136
   21.3750000000000         4.498159203166218E-136
   21.5650000000000         6.653742649034597E-136
   21.7550000000000         3.421696731019295E-136
   21.9450000000000        -2.214779150525170E-135
   22.1350000000000        -1.150635978399106E-134
   22.3250000000000        -3.805361607029291E-134
   22.5150000000000        -1.039926849668993E-133
   22.7050000000000        -2.513329135582868E-133
   22.8950000000000        -5.507846600825215E-133
   23.0850000000000        -1.102320391020054E-132
   23.2750000000000        -2.002966757597225E-132
   23.4650000000000        -3.225555730108095E-132
   23.6550000000000        -4.295070516868126E-132
   23.8450000000000        -3.559562046678768E-132
   24.0350000000000         3.263070714635855E-132
   24.2250000000000         2.567552442168172E-131
   24.4150000000000         8.247407595178145E-131
   24.6050000000000         2.070948209614321E-130
   24.7950000000000         4.523402449834195E-130
   24.9850000000000         8.886610870435143E-130
   25.1750000000000         1.582279537228781E-129
   25.3650000000000         2.525421453946911E-129
   25.5550000000000         3.468885575429200E-129
   25.7450000000000         3.577548042627762E-129
   25.9350000000000         7.993133200516567E-130
   26.1250000000000        -9.170637696815570E-129
   26.3150000000000        -3.438605466924882E-128
   26.5050000000000        -8.843304308771272E-128
   26.6950000000000        -1.917699335809956E-127
   26.8850000000000        -3.707647452161280E-127
   27.0750000000000        -6.505648892155779E-127
   27.2650000000000        -1.034755870488830E-126
   27.4550000000000        -1.460349445208212E-126
   27.6450000000000        -1.711577829848678E-126
   27.8350000000000        -1.272271447834009E-126
   28.0250000000000         9.011041984562353E-127
   28.2150000000000         6.686459162680365E-126
   28.4050000000000         1.913649012072006E-125
   28.5950000000000         4.270498081903670E-125
   28.7850000000000         8.302488054657461E-125
   28.9750000000000         1.455929755381842E-124
   29.1650000000000         2.322435675320395E-124
   29.3550000000000         3.336439022306623E-124
   29.5450000000000         4.152585206743083E-124
   29.7350000000000         3.934707822815038E-124
   29.9250000000000         9.820819646395609E-125
   30.1150000000000        -7.807119266770958E-124
   30.3050000000000        -2.762735900368385E-123
   30.4950000000000        -6.651557483647841E-123
   30.6850000000000        -1.358755686194248E-122
   30.8750000000000        -2.501337575350242E-122
   31.0650000000000        -4.242339536566667E-122
   31.2550000000000        -6.665655733351462E-122
   31.4450000000000        -9.631078507558409E-122
   31.6350000000000        -1.245803047867509E-121
   31.8250000000000        -1.334290404422211E-121
   32.0150000000000        -8.354198143811638E-122
   32.2050000000000         1.019168163606448E-121
   32.3950000000000         5.616807106195912E-121
   32.5850000000000         1.529507919058339E-120
   32.7750000000000         3.372407236015165E-120
   32.9650000000000         6.620211742362220E-120
   33.1550000000000         1.195226997939475E-119
   33.3450000000000         2.006977348808355E-119
   33.5350000000000         3.132069736434144E-119
   33.7250000000000         4.485247800858120E-119
   33.9150000000000         5.694717647803645E-119
   34.1050000000000         5.806698465917705E-119
   34.2950000000000         2.806819831345752E-119
   34.4850000000000        -7.083249896515289E-119
   34.6750000000000        -3.031770588704615E-118
   34.8650000000000        -7.698506839833432E-118
   35.0550000000000        -1.613546067878981E-117
   35.2450000000000        -3.010231164350757E-117
   35.4350000000000        -5.128278495366272E-117
   35.6250000000000        -8.024776906619572E-117
   35.8150000000000        -1.143340194155617E-116
   36.0050000000000        -1.438329831390808E-116
   36.1950000000000        -1.458171027477333E-116
   36.3850000000000        -7.510328083881386E-117
   36.5750000000000         1.474645969635154E-116
   36.7650000000000         6.476258590096524E-116
   36.9550000000000         1.606323669027535E-115
   37.1450000000000         3.254216089434021E-115
   37.3350000000000         5.834007263499217E-115
   37.5250000000000         9.501766386885185E-115
   37.7150000000000         1.412588582929333E-114
   37.9050000000000         1.893135573292790E-114
   38.0950000000000         2.193465537062502E-114
   38.2850000000000         1.913344982315875E-114
   38.4750000000000         3.475537560508344E-115
   38.6650000000000        -3.623837514622769E-114
   38.8550000000000        -1.161279599948271E-113
   39.0450000000000        -2.569150399270969E-113
   39.2350000000000        -4.812033763861056E-113
   39.4250000000000        -8.063530118842819E-113
   39.6150000000000        -1.230198559315565E-112
   39.8050000000000        -1.706295732422504E-112
   39.9950000000000        -2.105449405614490E-112
   40.1850000000000        -2.161727677809853E-112
   40.3750000000000        -1.405103273958588E-112
   40.5650000000000         9.092635395432163E-113
   40.7550000000000         5.851631084209358E-112
   40.9450000000000         1.480421879814612E-111
   41.1350000000000         2.931174945094176E-111
   41.3250000000000         5.069034673151873E-111
   41.5150000000000         7.925561386043580E-111
   41.7050000000000         1.130098318574918E-110
   41.8950000000000         1.456417462602768E-110
   42.0850000000000         1.637738379403524E-110
   42.2750000000000         1.435873148628762E-110
   42.4650000000000         4.732020159182321E-111
   42.6550000000000        -1.792743190034234E-110
   42.8450000000000        -6.065645040843367E-110
   43.0350000000000        -1.314713394326952E-109
   43.2250000000000        -2.377068832466252E-109
   43.4150000000000        -3.827807838746720E-109
   43.6050000000000        -5.607854041015260E-109
   43.7950000000000        -7.484001999478932E-109
   43.9850000000000        -8.939691985291175E-109
   44.1750000000000        -9.043463701754530E-109
   44.3650000000000        -6.314417205963633E-109
   44.5550000000000         1.375545394438818E-109
   44.7450000000000         1.679476581523051E-108
   44.9350000000000         4.313766220339705E-108
   45.1250000000000         8.346440756875058E-108
   45.3150000000000         1.396266269639359E-107
   45.5050000000000         2.105059314357658E-107
   45.6950000000000         2.894340104433384E-107
   45.8850000000000         3.607835783665918E-107
   46.0750000000000         3.959553661602353E-107
   46.2650000000000         3.493732473784910E-107
   46.4550000000000         1.556607554991660E-107
   46.6450000000000        -2.700993235535922E-107
   46.8350000000000        -1.026286773267303E-106
   47.0250000000000        -2.209318983217507E-106
   47.2150000000000        -3.884861490010325E-106
   47.4050000000000        -6.041871182901286E-106
   47.5950000000000        -8.527132502473062E-106
   47.7850000000000        -1.096131060661826E-105
   47.9750000000000        -1.264347596899103E-105
   48.1650000000000        -1.246005693809937E-105
   48.3550000000000        -8.826319489550568E-106
   48.5450000000000         2.969833289399545E-107
   48.7350000000000         1.725420149642742E-105
   48.9250000000000         4.434337456869888E-105
   49.1150000000000         8.319094887667327E-105
   49.3050000000000         1.337949467217103E-104
   49.4950000000000         1.932191812381378E-104
   49.6850000000000         2.539968358388156E-104
   49.8750000000000         3.024198500450413E-104
   50.0650000000000         3.170518280111855E-104
   50.2550000000000         2.679962790436672E-104
   50.4450000000000         1.176520258420571E-104
   50.6350000000000        -1.761547163113681E-104
   50.8250000000000        -6.537287922238925E-104
   51.0150000000000        -1.342986188512431E-103
   51.2050000000000        -2.244560138648235E-103
   51.3950000000000        -3.313108869498459E-103
   51.5850000000000        -4.436707682230762E-103
   51.7750000000000        -5.417888115914240E-103
   51.9650000000000        -5.961718112514066E-103
   52.1550000000000        -5.677864645274628E-103
   52.3450000000000        -4.104168410919258E-103
   52.5350000000000        -7.580009540383792E-104
   52.7250000000000         4.782406803931829E-103
   52.9150000000000         1.277217702716867E-102
   53.1050000000000         2.318655794423553E-102
   53.2950000000000         3.563155246962660E-102
   53.4850000000000         4.932374371153287E-102
   53.6750000000000         6.319278827963484E-102
   53.8650000000000         7.615342133244870E-102
   54.0550000000000         8.756063784412798E-102
   54.2450000000000         9.778863099579563E-102
   54.4350000000000         1.087494138908242E-101
   54.6250000000000         1.239865451971415E-101
   54.8150000000000         1.477546909806218E-101
   55.0050000000000         1.822657658920426E-101
   55.1950000000000         2.221260362675422E-101
   55.3850000000000         2.450365722981204E-101
   55.5750000000000         1.982703769504382E-101
   55.7650000000000        -1.848694845764105E-102
   55.9550000000000        -5.713781988308342E-101
   56.1450000000000        -1.706058189043372E-100
   56.3350000000000        -3.746904640848932E-100
   56.5250000000000        -7.066600139231360E-100
   56.7150000000000        -1.200546203844015E-099
   56.9050000000000        -1.871569378296575E-099
   57.0950000000000        -2.690526482041602E-099
   57.2850000000000        -3.546300666845967E-099
   57.4750000000000        -4.196544383045160E-099
   57.6650000000000        -4.210227073913337E-099
   57.8550000000000        -2.911643647968380E-099
   58.0450000000000         6.560156895198941E-100
   58.2350000000000         7.718435781222392E-099
   58.4250000000000         1.966758930708894E-098
   58.6150000000000         3.781499638488882E-098
   58.8050000000000         6.293920484425532E-098
   58.9950000000000         9.456811525433404E-098
   59.1850000000000         1.299571249892731E-097
   59.3750000000000         1.627724506818880E-097
   59.5650000000000         1.815762337190670E-097
   59.7550000000000         1.683457710557347E-097
   59.9450000000000         9.744843018302376E-098
   60.1350000000000        -6.426818347389512E-098
   60.3250000000000        -3.553453695906592E-097
   60.5150000000000        -8.143674897253888E-097
   60.7050000000000        -1.470071551355427E-096
   60.8950000000000        -2.325635127857366E-096
   61.0850000000000        -3.336279000781787E-096
   61.2750000000000        -4.380280371643001E-096
   61.4650000000000        -5.225194317878223E-096
   61.6550000000000        -5.493694358128342E-096
   61.8450000000000        -4.637047499482975E-096
   62.0350000000000        -1.928738862412156E-096
   62.2250000000000         3.504226913820667E-096
   62.4150000000000         1.259009118556299E-095
   62.6050000000000         2.613580202158842E-095
   62.7950000000000         4.454025132917899E-095
   62.9850000000000         6.737897884357825E-095
   63.1750000000000         9.285789033854775E-095
   63.3650000000000         1.171618963862682E-094
   63.5550000000000         1.337680320745278E-094
   63.7450000000000         1.328529283760116E-094
   63.9350000000000         1.010000571023025E-094
   64.1250000000000         2.149709048914768E-095
   64.3150000000000        -1.244042079613703E-094
   64.5050000000000        -3.548342632568203E-094
   64.6950000000000        -6.828209094851445E-094
   64.8850000000000        -1.109622579489837E-093
   65.0750000000000        -1.615753715531532E-093
   65.2650000000000        -2.149990201926390E-093
   65.4550000000000        -2.617287500196590E-093
   65.6450000000000        -2.867443306827381E-093
   65.8350000000000        -2.687474011774178E-093
   66.0250000000000        -1.801971926330220E-093
   66.2150000000000         1.129978504775695E-094
   66.4050000000000         3.395894408503663E-093
   66.5950000000000         8.338709976008911E-093
   66.7850000000000         1.509302480700762E-092
   66.9750000000000         2.353993328392711E-092
   67.1650000000000         3.312601855638458E-092
   67.3550000000000         4.267607640741377E-092
   67.5450000000000         5.020534344399619E-092
   67.7350000000000         5.276943917749392E-092
   67.9250000000000         4.640816941934971E-092
   68.1150000000000         2.625773214822228E-092
   68.3050000000000        -1.307872963335435E-092
   68.4950000000000        -7.680495198030168E-092
   68.6850000000000        -1.687599543858658E-091
   68.8750000000000        -2.897416158694883E-091
   69.0650000000000        -4.353280026455192E-091
   69.2550000000000        -5.933005342049059E-091
   69.4450000000000        -7.409191694399944E-091
   69.6350000000000        -8.424898904413273E-091
   69.8250000000000        -8.478891830984742E-091
   70.0150000000000        -6.929464349311911E-091
   70.2050000000000        -3.027942742148020E-091
   70.3950000000000         4.005789320160638E-091
   70.5850000000000         1.485377870964689E-090
   70.7750000000000         2.990746139779044E-090
   70.9650000000000         4.900952098169522E-090
   71.1550000000000         7.113852205892411E-090
   71.3450000000000         9.406073570528494E-090
   71.5350000000000         1.139947304638398E-089
   71.7250000000000         1.253596158237556E-089
   71.9150000000000         1.207049690264066E-089
   72.1050000000000         9.094538454361744E-090
   72.2950000000000         2.603920610807626E-090
   72.4850000000000        -8.374871588557660E-090
   72.6750000000000        -2.458861289403973E-089
   72.8650000000000        -4.628623727085296E-089
   73.0550000000000        -7.287833864514594E-089
   73.2450000000000        -1.025489269516955E-088
   73.4350000000000        -1.318623788283253E-088
   73.6250000000000        -1.554340742354053E-088
   73.8150000000000        -1.657606795174325E-088
   74.0050000000000        -1.533313641457742E-088
   74.1950000000000        -1.071584511329498E-088
   74.3850000000000        -1.586727266563186E-089
   74.5750000000000         1.305388988357305E-088
   74.7650000000000         3.381816968059475E-088
   74.9550000000000         6.061231054398912E-088
   75.1450000000000         9.226883937391813E-088
   75.3350000000000         1.261687878733750E-087
   75.5250000000000         1.579159964473586E-087
   75.7150000000000         1.811498504024995E-087
   75.9050000000000         1.876036284711538E-087
   76.0950000000000         1.675274735518281E-087
   76.2850000000000         1.105903695178722E-087
   76.4750000000000         7.346061210060049E-089
   76.6650000000000        -1.487145892017898E-087
   76.8550000000000        -3.586039618383792E-087
   77.0450000000000        -6.149925412745098E-087
   77.2350000000000        -8.994780558246380E-087
   77.4250000000000        -1.180565667212049E-086
   77.6150000000000        -1.413141877155322E-086
   77.8050000000000        -1.540353637388744E-086
   77.9950000000000        -1.498814013254075E-086
   78.1850000000000        -1.227872061486971E-086
   78.3750000000000        -6.832278488105813E-087
   78.5650000000000         1.456269411831331E-087
   78.7550000000000         1.215848115478774E-086
   78.9450000000000         2.412819387576053E-086
   79.1350000000000         3.537959111816182E-086
   79.3250000000000         4.309702236100369E-086
   79.5150000000000         4.386129849734280E-086
   79.7050000000000         3.418347600994237E-086
   79.8950000000000         1.142725308193321E-086
   80.0850000000000        -2.483348095975211E-086
   80.2750000000000        -7.104354493077580E-086
   80.4650000000000        -1.176127661943912E-085
   80.6550000000000        -1.468652835615578E-085
   80.8450000000000        -1.314748499133913E-085
   81.0350000000000        -3.409635609970533E-086
   81.2250000000000         1.908664644759241E-085
   81.4150000000000         5.922304066504099E-085
   81.6050000000000         1.212534881980647E-084
   81.7950000000000         2.072991135420883E-084
   81.9850000000000         3.152212760187443E-084
   82.1750000000000         4.358895338497432E-084
   82.3650000000000         5.499965537449570E-084
   82.5550000000000         6.247663565936581E-084
   82.7450000000000         6.111563227659897E-084
   82.9350000000000         4.424567779390547E-084
   83.1250000000000         3.551875103146380E-085
   83.3150000000000        -7.038558960356612E-084
   83.5050000000000        -1.869618497639254E-083
   83.6950000000000        -3.536511336868465E-083
   83.8850000000000        -5.731977444191874E-083
   84.0750000000000        -8.398237522289170E-083
   84.2650000000000        -1.134519111809858E-082
   84.4550000000000        -1.419689591991049E-082
   84.6450000000000        -1.633728888713624E-082
   84.8350000000000        -1.686451923705922E-082
   85.0250000000000        -1.456760138876022E-082
   85.2150000000000        -7.943694041511384E-083
   85.4050000000000         4.721467085643321E-083
   85.5950000000000         2.518455918604932E-082
   85.7850000000000         5.496137214694833E-082
   85.9750000000000         9.490741677930378E-082
   86.1650000000000         1.446505723791375E-081
   86.3550000000000         2.018817341892139E-081
   86.5450000000000         2.615368056244223E-081
   86.7350000000000         3.149413623987951E-081
   86.9250000000000         3.490378097750774E-081
   87.1150000000000         3.458720231997288E-081
   87.3050000000000         2.825780335124440E-081
   87.4950000000000         1.321579047652388E-081
   87.6850000000000        -1.346014998920735E-081
   87.8750000000000        -5.457176697363628E-081
   88.0650000000000        -1.122782653700833E-080
   88.2550000000000        -1.873691321562184E-080
   88.4450000000000        -2.783298892410686E-080
   88.6350000000000        -3.802286565202086E-080
   88.8250000000000        -4.834950194315179E-080
   89.0150000000000        -5.727195137409323E-080
   89.2050000000000        -6.256706056250778E-080
   89.3950000000000        -6.128023265697051E-080
   89.5850000000000        -4.976023601020441E-080
   89.7750000000000        -2.381960222224811E-080
   89.9650000000000         2.093395176014878E-080
   90.1550000000000         8.855043798183747E-080
   90.3450000000000         1.819380694613371E-079
   90.5350000000000         3.017920269003024E-079
   90.7250000000000         4.452619572570503E-079
   90.9150000000000         6.044125939902776E-079
   91.1050000000000         7.645911648979044E-079
   91.2950000000000         9.028892605442507E-079
   91.4850000000000         9.869725550690616E-079
   91.6750000000000         9.746429550447309E-079
   91.8650000000000         8.145841841889241E-079
   92.0550000000000         4.488087544916613E-079
   92.2450000000000        -1.826477170916508E-079
   92.4350000000000        -1.134273581194905E-078
   92.6250000000000        -2.444482662696778E-078
   92.8150000000000        -4.121725034087989E-078
   93.0050000000000        -6.127546558190214E-078
   93.1950000000000        -8.357382475402162E-078
   93.3850000000000        -1.062058218629054E-077
   93.5750000000000        -1.262202499671287E-077
   93.7650000000000        -1.394865641950257E-077
   93.9550000000000        -1.406527224730890E-077
   94.1450000000000        -1.232478117818292E-077
   94.3350000000000        -7.998818082290708E-078
   94.5250000000000        -3.347449269348818E-079
   94.7150000000000         1.135548828021379E-077
   94.9050000000000         2.757072144859026E-077
   95.0950000000000         4.845915333805352E-077
   95.2850000000000         7.362342469752817E-077
   95.4750000000000         1.019015753771914E-076
   95.6650000000000         1.311409348076726E-076
   95.8550000000000         1.579911464608499E-076
   96.0450000000000         1.777525961535777E-076
   96.2350000000000         1.843266373786360E-076
   96.4250000000000         1.703228971656909E-076
   96.6150000000000         1.273848797402173E-076
   96.8050000000000         4.679592479690529E-077
   96.9950000000000        -7.957914355019767E-077
   97.1850000000000        -2.579782502528360E-076
   97.3750000000000        -4.910433842906185E-076
   97.5650000000000        -7.757745991051529E-076
   97.7550000000000        -1.101232612179875E-075
   97.9450000000000        -1.446161759828363E-075
   98.1350000000000        -1.776793947773730E-075
   98.3250000000000        -2.045190926966359E-075
   98.5150000000000        -2.188578171265779E-075
   98.7050000000000        -2.130206590857000E-075
   98.8950000000000        -1.782332226635219E-075
   99.0850000000000        -1.051909393210280E-075
   99.2750000000000         1.504726683846930E-076
   99.4650000000000         1.898038845912344E-075
   99.6550000000000         4.231567032032712E-075
   99.8450000000000         7.139728533096634E-075
   100.035000000000         1.053689037374783E-074
   100.225000000000         1.423992442367350E-074
   100.415000000000         1.794636499082964E-074
   100.605000000000         2.121711798564502E-074
   100.795000000000         2.346777559043308E-074
   100.985000000000         2.397332448850853E-074
   101.175000000000         2.189151612100309E-074
   101.365000000000         1.631022962495109E-074
   101.555000000000         6.323618098165136E-075
   101.745000000000        -8.859503053521992E-075
   101.935000000000        -2.977386607483087E-074
   102.125000000000        -5.652480041512474E-074
   102.315000000000        -8.859092689629641E-074
   102.505000000000        -1.246149785307609E-073
   102.695000000000        -1.622018209278537E-073
   102.885000000000        -1.977498631571519E-073
   103.075000000000        -2.263490897527752E-073
   103.265000000000        -2.417850650055139E-073
   103.455000000000        -2.366923869273278E-073
   103.645000000000        -2.029019222307447E-073
   103.835000000000        -1.320223200420013E-073
   104.025000000000        -1.628633602475246E-074
   104.215000000000         1.503249208433735E-073
   104.405000000000         3.706925773195469E-073
   104.595000000000         6.429529361189244E-073
   104.785000000000         9.587635285815533E-073
   104.975000000000         1.301583268598591E-072
   105.165000000000         1.645162028386660E-072
   105.355000000000         1.952488941056553E-072
   105.545000000000         2.175496241361580E-072
   105.735000000000         2.255848719831780E-072
   105.925000000000         2.127158733064520E-072
   106.115000000000         1.718943135304977E-072
   106.305000000000         9.625713088252116E-073
   106.495000000000        -2.006665232899838E-073
   106.685000000000        -1.809421165455403E-072
   106.875000000000        -3.870369127973285E-072
   107.065000000000        -6.345114517464166E-072
   107.255000000000        -9.136853420041905E-072
   107.445000000000        -1.207812630889303E-071
   107.635000000000        -1.492136344550646E-071
   107.825000000000        -1.733426571904277E-071
   108.015000000000        -1.890230728012728E-071
   108.205000000000        -1.914073646620452E-071
   108.395000000000        -1.751832252652914E-071
   108.585000000000        -1.349468228264507E-071
   108.775000000000        -6.572265077198504E-072
   108.965000000000         3.637065775198208E-072
   109.155000000000         1.733245695111951E-071
   109.345000000000         3.443501490190691E-071
   109.535000000000         5.449502909665539E-071
   109.725000000000         7.660362550332893E-071
   109.915000000000         9.931940788941676E-071
   110.105000000000         1.206227819179488E-070