  -1.42500000000000         0.000000000000000E+000
  -1.23500000000000         0.000000000000000E+000
  -1.04500000000000         0.000000000000000E+000
 -0.855000000000000         0.000000000000000E+000
 -0.665000000000000         0.000000000000000E+000
 -0.475000000000000         0.000000000000000E+000
 -0.285000000000000         0.000000000000000E+000
 -9.499999999999975E-002    0.000000000000000E+000
  9.500000000000020E-002    0.000000000000000E+000
  0.285000000000000         0.000000000000000E+000
  0.475000000000000         0.000000000000000E+000
  0.665000000000000         0.000000000000000E+000
  0.855000000000000         0.000000000000000E+000
   1.04500000000000         0.000000000000000E+000
   1.23500000000000         0.000000000000000E+000
   1.42500000000000         0.000000000000000E+000
   1.61500000000000         0.000000000000000E+000
   1.80500000000000         0.000000000000000E+000
   1.99500000000000         0.000000000000000E+000
   2.18500000000000         0.000000000000000E+000
   2.37500000000000         0.000000000000000E+000
   2.56500000000000         0.000000000000000E+000
   2.75500000000000         0.000000000000000E+000
   2.94500000000000         0.000000000000000E+000
   3.13500000000000         0.000000000000000E+000
   3.32500000000000         0.000000000000000E+000
   3.51500000000000         0.000000000000000E+000
   3.70500000000000         0.000000000000000E+000
   3.89500000000000         0.000000000000000E+000
   4.08500000000000         0.000000000000000E+000
   4.27500000000000         0.000000000000000E+000
   4.46500000000000         0.000000000000000E+000
   4.65500000000000         0.000000000000000E+000
   4.84500000000000         0.000000000000000E+000
   5.03500000000000         0.000000000000000E+000
   5.22500000000000         0.000000000000000E+000
   5.41500000000000         0.000000000000000E+000
   5.60500000000000         0.000000000000000E+000
   5.79500000000000         0.000000000000000E+000
   5.98500000000000         0.000000000000000E+000
   6.17500000000000         0.000000000000000E+000
   6.36500000000000         0.000000000000000E+000
   6.55500000000000         0.000000000000000E+000
   6.74500000000000        -5.418106768007683E-190
   6.93500000000000         6.393624735451793E-182
   7.12500000000000         3.995151508882382E-180
   7.31500000000000        -5.882863253147264E-178
   7.50500000000000        -5.217610119595987E-176
   7.69500000000000        -2.075967743629616E-174
   7.88500000000000        -5.434095556076480E-173
   8.07500000000000        -1.066892351798593E-171
   8.26500000000000        -1.681458880440717E-170
   8.45500000000000        -2.218261451275699E-169
   8.64500000000000        -2.520467704898098E-168
   8.83500000000000        -2.518102959010657E-167
   9.02500000000000        -2.247003073450391E-166
   9.21500000000000        -1.813071156754631E-165
   9.40500000000000        -1.335995979916450E-164
   9.59500000000000        -9.063641417558042E-164
   9.78500000000000        -5.699696228129570E-163
   9.97500000000000        -3.341512054496597E-162
   10.1650000000000        -1.835309949608489E-161
   10.3550000000000        -9.484123695179866E-161
   10.5450000000000        -4.628314542647574E-160
   10.7350000000000        -2.140031234109565E-159
   10.9250000000000        -9.403345722009131E-159
   11.1150000000000        -3.937359430644948E-158
   11.3050000000000        -1.575184746162088E-157
   11.4950000000000        -6.036821557598086E-157
   11.6850000000000        -2.222565104957520E-156
   11.8750000000000        -7.885844717938800E-156
   12.0650000000000        -2.706651538821764E-155
   12.2550000000000        -9.028740734839161E-155
   12.4450000000000        -2.943878711513232E-154
   12.6350000000000        -9.446425795319609E-154
   12.8250000000000        -3.005541064902374E-153
   13.0150000000000        -9.550134275388953E-153
   13.2050000000000        -3.047108122015833E-152
   13.3950000000000        -9.784305544343169E-152
   13.5850000000000        -3.156687555888756E-151
   13.7750000000000        -1.018192834185757E-150
   13.9650000000000        -3.260544526979745E-150
   14.1550000000000        -1.028810420869028E-149
   14.3450000000000        -3.175960685787576E-149
   14.5350000000000        -9.531504486175728E-149
   14.7250000000000        -2.765207159203115E-148
   14.9150000000000        -7.712188015639542E-148
   15.1050000000000        -2.055155051206385E-147
   15.2950000000000        -5.190943821544279E-147
   15.4850000000000        -1.227645291998049E-146
   15.6750000000000        -2.660051095407373E-146
   15.8650000000000        -5.040389772526014E-146
   16.0550000000000        -7.278917924813043E-146
   16.2450000000000        -2.504247810929874E-146
   16.4350000000000         3.592670355037755E-145
   16.6250000000000         1.938508681141610E-144
   16.8150000000000         7.187342012158645E-144
   17.0050000000000         2.267775693026646E-143
   17.1950000000000         6.470044015227918E-143
   17.3850000000000         1.711541884246949E-142
   17.5750000000000         4.248077570973731E-142
   17.7650000000000         9.944854523923319E-142
   17.9550000000000         2.197480312409687E-141
   18.1450000000000         4.566039981585251E-141
   18.3350000000000         8.829540258536513E-141
   18.5250000000000         1.551697383835660E-140
   18.7150000000000         2.333210056684524E-140
   18.9050000000000         2.404442518799926E-140
   19.0950000000000        -1.187247351378825E-140
   19.2850000000000        -1.732580702228599E-139
   19.4750000000000        -7.053441491677371E-139
   19.6650000000000        -2.251731319309196E-138
   19.8550000000000        -6.445958212593747E-138
   20.0450000000000        -1.733057782444608E-137
   20.2350000000000        -4.468986264421600E-137
   20.4250000000000        -1.116837717436353E-136
   20.6150000000000        -2.718253496231194E-136
   20.8050000000000        -6.454449027375639E-136
   20.9950000000000        -1.494851027572847E-135
   21.1850000000000        -3.371774148778428E-135
   21.3750000000000        -7.389209821088428E-135
   21.5650000000000        -1.568228688078448E-134
   21.7550000000000        -3.209435793882256E-134
   21.9450000000000        -6.296170393612675E-134
   22.1350000000000        -1.173550498972271E-133
   22.3250000000000        -2.048091600250440E-133
   22.5150000000000        -3.255498550423380E-133
   22.7050000000000        -4.419682103111365E-133
   22.8950000000000        -4.082046288082056E-133
   23.0850000000000         1.858733648418188E-133
   23.2750000000000         2.331738740633115E-132
   23.4650000000000         8.196501154861011E-132
   23.6550000000000         2.214416524214943E-131
   23.8450000000000         5.230988901896574E-131
   24.0350000000000         1.126519976653693E-130
   24.2250000000000         2.247771958975908E-130
   24.4150000000000         4.173120423472934E-130
   24.6050000000000         7.174068571172167E-130
   24.7950000000000         1.122993191743426E-129
   24.9850000000000         1.534395306540450E-129
   25.1750000000000         1.609100349402493E-129
   25.3650000000000         4.856277104835149E-130
   25.5550000000000        -3.690374336321675E-129
   25.7450000000000        -1.449043942705655E-128
   25.9350000000000        -3.814105875358657E-128
   26.1250000000000        -8.438040381813202E-128
   26.3150000000000        -1.663553106725767E-127
   26.5050000000000        -2.975286609222759E-127
   26.6950000000000        -4.815400234402141E-127
   26.8850000000000        -6.877719440773571E-127
   27.0750000000000        -8.010109917194599E-127
   27.2650000000000        -5.288846660218061E-127
   27.4550000000000         7.515728648934802E-127
   27.6450000000000         4.220424957198451E-126
   27.8350000000000         1.189868000439770E-125
   28.0250000000000         2.690202990345611E-125
   28.2150000000000         5.342647668893015E-125
   28.4050000000000         9.595033237864379E-125
   28.5950000000000         1.566786281679831E-124
   28.7850000000000         2.295807104563263E-124
   28.9750000000000         2.885167692703649E-124
   29.1650000000000         2.661295475784156E-124
   29.3550000000000         1.996565355000968E-125
   29.5450000000000        -7.161152951730140E-124
   29.7350000000000        -2.391609561197812E-123
   29.9250000000000        -5.693398147666470E-123
   30.1150000000000        -1.155174121546016E-122
   30.3050000000000        -2.101126040584224E-122
   30.4950000000000        -3.481043115659600E-122
   30.6850000000000        -5.241677616114888E-122
   30.8750000000000        -7.015148066556178E-122
   31.0650000000000        -7.794077421022919E-122
   31.2550000000000        -5.423075142723550E-122
   31.4450000000000         4.115283322534768E-122
   31.6350000000000         2.756761918557412E-121
   31.8250000000000         7.521595068954424E-121
   32.0150000000000         1.611092866279593E-120
   32.2050000000000         3.017135038603950E-120
   32.3950000000000         5.112417738840968E-120
   32.5850000000000         7.909687069351353E-120
   32.7750000000000         1.108773443041794E-119
   32.9650000000000         1.364358709433605E-119
   33.1550000000000         1.335792288507137E-119
   33.3450000000000         6.055133345783228E-120
   33.5350000000000        -1.529227845837440E-119
   33.7250000000000        -6.142524267481409E-119
   33.9150000000000        -1.471891848585618E-118
   34.1050000000000        -2.906302023908082E-118
   34.2950000000000        -5.094235036525007E-118
   34.4850000000000        -8.125763642089065E-118
   34.6750000000000        -1.184638417675999E-117
   34.8650000000000        -1.559181836501869E-117
   35.0550000000000        -1.778579139162452E-117
   35.2450000000000        -1.538921233734787E-117
   35.4350000000000        -3.234768972283021E-118
   35.6250000000000         2.663043101043438E-117
   35.8150000000000         8.532236783286480E-117
   36.0050000000000         1.867213152814068E-116
   36.1950000000000         3.454966290038951E-116
   36.3850000000000         5.723947658541462E-116
   36.5750000000000         8.652833717942941E-116
   36.7650000000000         1.194256780826277E-115
   36.9550000000000         1.479334089127115E-115
   37.1450000000000         1.560310798845702E-115
   37.3350000000000         1.160696721530300E-115
   37.5250000000000        -1.479599823663200E-116
   37.7150000000000        -2.968038554271101E-115
   37.9050000000000        -8.060655669689326E-115
   38.0950000000000        -1.625683730315135E-114
   38.2850000000000        -2.824403695066799E-114
   38.4750000000000        -4.416445818983863E-114
   38.6650000000000        -6.295773038350900E-114
   38.8550000000000        -8.139595248176866E-114
   39.0450000000000        -9.280957086518247E-114
   39.2350000000000        -8.560822231467279E-114
   39.4250000000000        -4.188431532673087E-114
   39.6150000000000         6.333115642795134E-114
   39.8050000000000         2.612036552048529E-113
   39.9950000000000         5.851918053245603E-113
   40.1850000000000         1.062191947679537E-112
   40.3750000000000         1.696474046444352E-112
   40.5650000000000         2.444221902193173E-112
   40.7550000000000         3.177388857889503E-112
   40.9450000000000         3.637883207700727E-112
   41.1350000000000         3.387512661433279E-112
   41.3250000000000         1.766380221180595E-112
   41.5150000000000        -2.116923398848200E-112
   41.7050000000000        -9.325987683610312E-112
   41.8950000000000        -2.091466542927602E-111
   42.0850000000000        -3.755420869798514E-111
   42.2750000000000        -5.889375643264386E-111
   42.4650000000000        -8.258933293728064E-111
   42.6550000000000        -1.029812979877364E-110
   42.8450000000000        -1.094997794285480E-110
   43.0350000000000        -8.505644475621346E-111
   43.2250000000000        -4.962443954493813E-112
   43.4150000000000         1.626901417234095E-110
   43.6050000000000         4.537443000531463E-110
   43.7950000000000         8.998061998050426E-110
   43.9850000000000         1.512746885717299E-109
   44.1750000000000         2.259330364747539E-109
   44.3650000000000         3.024056710798546E-109
   44.5550000000000         3.560258850827607E-109
   44.7450000000000         3.433482016570350E-109
   44.9350000000000         1.968008287914573E-109
   45.1250000000000        -1.782242545456570E-109
   45.3150000000000        -9.003062439565807E-109
   45.5050000000000        -2.097702843341444E-108
   45.6950000000000        -3.875814693120594E-108
   45.8850000000000        -6.258110920685239E-108
   46.0750000000000        -9.092333320199329E-108
   46.2650000000000        -1.191669019292668E-107
   46.4550000000000        -1.378831230926486E-107
   46.6450000000000        -1.309075674062349E-107
   46.8350000000000        -7.361150309124788E-108
   47.0250000000000         6.787633363489924E-108
   47.2150000000000         3.352868126835621E-107
   47.4050000000000         7.729265878837091E-107
   47.5950000000000         1.416248658081841E-106
   47.7850000000000         2.271734361596199E-106
   47.9750000000000         3.285749214202878E-106
   48.1650000000000         4.301172639793064E-106
   48.3550000000000         5.003225982411536E-106
   48.5450000000000         4.860663431000255E-106
   48.7350000000000         3.075928049487709E-106
   48.9250000000000        -1.431680488018091E-106
   49.1150000000000        -9.972643432716141E-106
   49.3050000000000        -2.391208704749266E-105
   49.4950000000000        -4.430880669136285E-105
   49.6850000000000        -7.129937335635179E-105
   49.8750000000000        -1.031692471939732E-104
   50.0650000000000        -1.350915425676432E-104
   50.2550000000000        -1.575948462258244E-104
   50.4450000000000        -1.549593859116213E-104
   50.6350000000000        -1.039480404083723E-104
   50.8250000000000         2.644183936986935E-105
   51.0150000000000         2.731834147277396E-104
   51.2050000000000         6.740121615158924E-104
   51.3950000000000         1.257165897764860E-103
   51.5850000000000         2.024393239216833E-103
   51.7750000000000         2.925952824279691E-103
   51.9650000000000         3.827452992141378E-103
   52.1550000000000         4.470560296349097E-103
   52.3450000000000         4.433152913749210E-103
   52.5350000000000         3.099624659902509E-103
   52.7250000000000        -3.412843891185457E-104
   52.9150000000000        -6.846046992763388E-103
   53.1050000000000        -1.738069143452484E-102
   53.2950000000000        -3.266220539263929E-102
   53.4850000000000        -5.274003037490542E-102
   53.6750000000000        -7.639210923532392E-102
   53.8650000000000        -1.003380669529228E-101
   54.0550000000000        -1.183234855557038E-101
   54.2450000000000        -1.202097551963664E-101
   54.4350000000000        -9.131668000980729E-102
   54.6250000000000        -1.240693783548992E-102
   54.8150000000000         1.391404352028103E-101
   55.0050000000000         3.862741732800204E-101
   55.1950000000000         7.465526921435034E-101
   55.3850000000000         1.223028464780126E-100
   55.5750000000000         1.791270153932831E-100
   55.7650000000000         2.382668135455649E-100
   55.9550000000000         2.865236930200718E-100
   56.1450000000000         3.024748745894447E-100
   56.3350000000000         2.551236481707883E-100
   56.5250000000000         1.038599623099860E-100
   56.7150000000000        -1.992056582602461E-100
   56.9050000000000        -7.032185795047928E-100
   57.0950000000000        -1.447425585806578E-099
   57.2850000000000        -2.443582540856254E-099
   57.4750000000000        -3.651179591589279E-099
   57.6650000000000        -4.945922331137375E-099
   57.8550000000000        -6.083898923504585E-099
   58.0450000000000        -6.666796541585260E-099
   58.2350000000000        -6.117409747747418E-099
   58.4250000000000        -3.679285033951812E-099
   58.6150000000000         1.540899237605346E-099
   58.8050000000000         1.046574543562003E-098
   58.9950000000000         2.385048058549835E-098
   59.1850000000000         4.197666800882236E-098
   59.3750000000000         6.422642938692215E-098
   59.5650000000000         8.854840658578480E-098
   59.7550000000000         1.108608525245942E-097
   59.9450000000000         1.244860371213526E-097
   60.1350000000000         1.197728150813632E-097
   60.3250000000000         8.413608282872309E-098
   60.5150000000000         2.812699019179446E-099
   60.7050000000000        -1.393142810280417E-097
   60.8950000000000        -3.544634967742445E-097
   61.0850000000000        -6.469870756395120E-097
   61.2750000000000        -1.006589501863194E-096
   61.4650000000000        -1.399990854001467E-096
   61.6550000000000        -1.761844035527889E-096
   61.8450000000000        -1.986481009944803E-096
   62.0350000000000        -1.923017327966241E-096
   62.2250000000000        -1.377401757839795E-096
   62.4150000000000        -1.259871786659174E-097
   62.6050000000000         2.054158980566176E-096
   62.7950000000000         5.333090890976431E-096
   62.9850000000000         9.750217741825584E-096
   63.1750000000000         1.511040124326316E-095
   63.3650000000000         2.085904119159032E-095
   63.5550000000000         2.594982275842780E-095
   63.7450000000000         2.873035454641126E-095
   63.9350000000000         2.688499752066276E-095
   64.1250000000000         1.748936359687790E-095
   64.3150000000000        -2.755406534665952E-096
   64.5050000000000        -3.703257723022385E-095
   64.6950000000000        -8.759163300974317E-095
   64.8850000000000        -1.545522736426886E-094
   65.0750000000000        -2.343307924451758E-094
   65.2650000000000        -3.177743239868036E-094
   65.4550000000000        -3.882150524283871E-094
   65.6450000000000        -4.198253878160881E-094
   65.8350000000000        -3.768587458820901E-094
   66.0250000000000        -2.145784640066011E-094
   66.2150000000000         1.171281231872729E-094
   66.4050000000000         6.663409189986553E-094
   66.5950000000000         1.466844736159674E-093
   66.7850000000000         2.520270161782188E-093
   66.9750000000000         3.772589798130862E-093
   67.1650000000000         5.086109622626808E-093
   67.3550000000000         6.209859495642439E-093
   67.5450000000000         6.753648400510206E-093
   67.7350000000000         6.173918299164406E-093
   67.9250000000000         3.782648788968595E-093
   68.1150000000000        -1.206547155014371E-093
   68.3050000000000        -9.579090949079249E-093
   68.4950000000000        -2.195095324667776E-092
   68.6850000000000        -3.851859416024764E-092
   68.8750000000000        -5.872329432687788E-092
   69.0650000000000        -8.084066399688974E-092
   69.2550000000000        -1.015286335659203E-091
   69.4450000000000        -1.153979861792468E-091
   69.6350000000000        -1.147077592297403E-091
   69.8250000000000        -8.933093470441744E-092
   70.0150000000000        -2.717841164193002E-092
   70.2050000000000         8.469735058290823E-092
   70.3950000000000         2.580857936111002E-091
   70.5850000000000         5.004813872782888E-091
   70.7750000000000         8.107013636656098E-091
   70.9650000000000         1.173292066034267E-090
   71.1550000000000         1.552011797295565E-090
   71.3450000000000         1.883038296293131E-090
   71.5350000000000         2.069014429338627E-090
   71.7250000000000         1.975595021452937E-090
   71.9150000000000         1.432741215820549E-090
   72.1050000000000         2.435402611233007E-091
   72.2950000000000        -1.796320215137399E-090
   72.4850000000000        -4.865296177761280E-090
   72.6750000000000        -9.066388715108547E-090
   72.8650000000000        -1.436001017725274E-089
   73.0550000000000        -2.048052417571783E-089
   73.2450000000000        -2.684129309073753E-089
   73.4350000000000        -3.243799672954696E-089
   73.6250000000000        -3.576612712715336E-089
   73.8150000000000        -3.477556170544155E-089
   74.0050000000000        -2.689226855913482E-089
   74.1950000000000        -9.143383495091126E-090
   74.3850000000000         2.157446088564526E-089
   74.5750000000000         6.804460334779211E-089
   74.7650000000000         1.320665437634874E-088
   74.9550000000000         2.135651216633363E-088
   75.1450000000000         3.094880985128709E-088
   75.3350000000000         4.125501899440102E-088
   75.5250000000000         5.099381239538593E-088
   75.7150000000000         5.821601742402102E-088
   75.9050000000000         6.023005690425576E-088
   76.0950000000000         5.360165582120454E-088
   76.2850000000000         3.426822452041396E-088
   76.4750000000000        -2.187685385518298E-089
   76.6650000000000        -6.006200107580169E-088
   76.8550000000000        -1.428131498117451E-087
   77.0450000000000        -2.520857200734678E-087
   77.2350000000000        -3.864794525218667E-087
   77.4250000000000        -5.401073458189830E-087
   77.6150000000000        -7.010363635344640E-087
   77.8050000000000        -8.497639023024918E-087
   77.9950000000000        -9.579492154925686E-087
   78.1850000000000        -9.876855693598858E-087
   78.3750000000000        -8.916580780524127E-087
   78.5650000000000        -6.145742238378423E-087
   78.7550000000000        -9.626844151673618E-088
   78.9450000000000         7.231413322269527E-087
   79.1350000000000         1.895736670283850E-086
   79.3250000000000         3.455732371952539E-086
   79.5150000000000         5.406840681753596E-086
   79.7050000000000         7.707256149672475E-086
   79.8950000000000         1.025269042889579E-085
   80.0850000000000         1.285813865045065E-085
   80.2750000000000         1.523931170126210E-085
   80.4650000000000         1.699492029637203E-085
   80.6550000000000         1.759126846221631E-085
   80.8450000000000         1.635096294041269E-085
   81.0350000000000         1.244807591941352E-085
   81.2250000000000         4.912971345402852E-086
   81.4150000000000        -7.348568367679544E-086
   81.6050000000000        -2.551505554281699E-085
   81.7950000000000        -5.077774522574074E-085
   81.9850000000000        -8.422331608887538E-085
   82.1750000000000        -1.266508250005555E-084
   82.3650000000000        -1.782969317933313E-084
   82.5550000000000        -2.384378166046731E-084
   82.7450000000000        -3.048329656120549E-084
   82.9350000000000        -3.729779415608103E-084
   83.1250000000000        -4.351443756906552E-084
   83.3150000000000        -4.792108279556913E-084
   83.5050000000000        -4.873338330494650E-084
   83.6950000000000        -4.345805962337194E-084
   83.8850000000000        -2.877487971360459E-084
   84.0750000000000        -4.737662004901690E-086
   84.2650000000000         4.649940833482493E-084
   84.4550000000000         1.178153274401813E-083
   84.6450000000000         2.192593606900265E-083
   84.8350000000000         3.558463136632875E-083
   85.0250000000000         5.304351566291573E-083
   85.2150000000000         7.417354742169413E-083
   85.4050000000000         9.816310655225289E-083
   85.5950000000000         1.231815942309908E-082
   85.7850000000000         1.459855366383029E-082
   85.9750000000000         1.614959984815785E-082
   86.1650000000000         1.624001585159515E-082
   86.3550000000000         1.388604764610594E-082
   86.5450000000000         7.845091851802670E-083
   86.7350000000000        -3.352144901593414E-083
   86.9250000000000        -2.131143013040061E-082
   87.1150000000000        -4.760445424351997E-082
   87.3050000000000        -8.349486055201686E-082
   87.4950000000000        -1.295402459308496E-081
   87.6850000000000        -1.850568511011032E-081
   87.8750000000000        -2.474475795541050E-081
   88.0650000000000        -3.114161943738199E-081
   88.2550000000000        -3.681224186933918E-081
   88.4450000000000        -4.043748572587890E-081
   88.6350000000000        -4.020105680598896E-081
   88.8250000000000        -3.376692897349678E-081
   89.0150000000000        -1.832317888906753E-081
   89.2050000000000         9.275263434324496E-082
   89.3950000000000         5.222866301067170E-081
   89.5850000000000         1.133426204211062E-080
   89.7750000000000         1.943744954076116E-080
   89.9650000000000         2.951567673469133E-080
   90.1550000000000         4.125003677577731E-080
   90.3450000000000         5.389154874069701E-080
   90.5350000000000         6.612354744587576E-080
   90.7250000000000         7.592915960404232E-080
   90.9150000000000         8.048611816536325E-080
   91.1050000000000         7.611949297874398E-080
   91.2950000000000         5.835134441952632E-080
   91.4850000000000         2.209367331894656E-080
   91.6750000000000        -3.796428371728244E-080
   91.8650000000000        -1.267234839621751E-079
   92.0550000000000        -2.477537451057948E-079
   92.2450000000000        -4.020577342578465E-079
   92.4350000000000        -5.865249128651877E-079
   92.6250000000000        -7.921260837218080E-079
   92.8150000000000        -1.001962274065115E-078
   93.0050000000000        -1.189361907993407E-078
   93.1950000000000        -1.316315278025756E-078
   93.3850000000000        -1.332639704620969E-078
   93.5750000000000        -1.176372877119116E-078
   93.7650000000000        -7.759812926840474E-079
   93.9550000000000        -5.502580217624117E-080
   94.1450000000000         1.060077788456833E-078
   94.3350000000000         2.628657515466766E-078
   94.5250000000000         4.680410421898368E-078
   94.7150000000000         7.196085026768935E-078
   94.9050000000000         1.008479396820942E-077
   95.0950000000000         1.315926537188722E-077
   95.2850000000000         1.611126869507229E-077
   95.4750000000000         1.849054085674561E-077
   95.6650000000000         1.969172737935520E-077
   95.8550000000000         1.895503316306912E-077
   96.0450000000000         1.538728984028681E-077
   96.2350000000000         8.010778799364477E-078
   96.4250000000000        -4.152863720159051E-078
   96.6150000000000        -2.195729749388790E-077
   96.8050000000000        -4.596056880512332E-077
   96.9950000000000        -7.620837120609946E-077
   97.1850000000000        -1.119769210121895E-076
   97.3750000000000        -1.514886242370217E-076
   97.5650000000000        -1.916234280371995E-076
   97.7550000000000        -2.276601487546666E-076
   97.9450000000000        -2.530944972206536E-076
   98.1350000000000        -2.595928968834378E-076
   98.3250000000000        -2.371519382696386E-076
   98.5150000000000        -1.745403454762047E-076
   98.7050000000000        -6.010106991410860E-077
   98.8950000000000         1.170173911462178E-076
   99.0850000000000         3.651522873921328E-076
   99.2750000000000         6.879287556100091E-076
   99.4650000000000         1.081615426491062E-075
   99.6550000000000         1.532149924444542E-075
   99.8450000000000         2.012043627910650E-075
   100.035000000000         2.477484388052277E-075
   100.225000000000         2.866075679803840E-075
   100.415000000000         3.095771061443976E-075
   100.605000000000         3.065669650018925E-075
   100.795000000000         2.659412816128946E-075
   100.985000000000         1.751941410662166E-075
   101.175000000000         2.203101296095219E-076
   101.365000000000        -2.040916999586352E-075
   101.555000000000        -5.099475712184937E-075
   101.745000000000        -8.960670200077590E-075
   101.935000000000        -1.353899875761881E-074
   102.125000000000        -1.862784782291198E-074
   102.315000000000        -2.386992979800460E-074
   102.505000000000        -2.873220516630973E-074
   102.695000000000        -3.249011487323798E-074
   102.885000000000        -3.422693759719605E-074
   103.075000000000        -3.285482368353192E-074
   103.265000000000        -2.716435316283717E-074
   103.455000000000        -1.590910162903400E-074
   103.645000000000         2.069557128326952E-075
   103.835000000000         2.767455418771297E-074
   104.025000000000         6.134295451850516E-074
   104.215000000000         1.027994353321766E-073
   104.405000000000         1.507858709245616E-073
   104.595000000000         2.027872914181859E-073
   104.785000000000         2.547832091965029E-073
   104.975000000000         3.010623414429588E-073
   105.165000000000         3.341472146782129E-073
   105.355000000000         3.448818443087434E-073
   105.545000000000         3.227391958671794E-073
   105.735000000000         2.564037971514435E-073
   105.925000000000         1.346769103820904E-073
   106.115000000000        -5.226464188947834E-074
   106.305000000000        -3.112510608304963E-073
   106.495000000000        -6.441756099377119E-073
   106.685000000000        -1.045804130492677E-072
   106.875000000000        -1.501476067120967E-072
   107.065000000000        -1.984900652561454E-072
   107.255000000000        -2.456320937198026E-072
   107.445000000000        -2.861384658288712E-072
   107.635000000000        -3.131116344957851E-072
   107.825000000000        -3.183419459339169E-072
   108.015000000000        -2.926539167221163E-072
   108.205000000000        -2.264873061585237E-072
   108.395000000000        -1.107416575246372E-072
   108.585000000000         6.210387496192343E-073
   108.775000000000         2.966079860145570E-072
   108.965000000000         5.927666622214576E-072
   109.155000000000         9.442786168115391E-072
   109.345000000000         1.336805720032206E-071
   109.535000000000         1.746405453901687E-071
   109.725000000000         2.138359546418621E-071
   109.915000000000         2.466663924496498E-071
   110.105000000000         2.674473496510806E-071