  -1.42500000000000         0.000000000000000E+000
  -1.23500000000000         0.000000000000000E+000
  -1.04500000000000         0.000000000000000E+000
 -0.855000000000000         0.000000000000000E+000
 -0.665000000000000         0.000000000000000E+000
 -0.475000000000000         0.000000000000000E+000
 -0.285000000000000         0.000000000000000E+000
 -9.499999999999975E-002    0.000000000000000E+000
  9.500000000000020E-002    0.000000000000000E+000
  0.285000000000000         0.000000000000000E+000
  0.475000000000000         0.000000000000000E+000
  0.665000000000000         0.000000000000000E+000
  0.855000000000000         0.000000000000000E+000
   1.04500000000000         0.000000000000000E+000
   1.23500000000000         0.000000000000000E+000
   1.42500000000000         0.000000000000000E+000
   1.61500000000000         0.000000000000000E+000
   1.80500000000000         0.000000000000000E+000
   1.99500000000000         0.000000000000000E+000
   2.18500000000000         0.000000000000000E+000
   2.37500000000000         0.000000000000000E+000
   2.56500000000000         0.000000000000000E+000
   2.75500000000000         0.000000000000000E+000
   2.94500000000000         0.000000000000000E+000
   3.13500000000000         0.000000000000000E+000
   3.32500000000000         0.000000000000000E+000
   3.51500000000000         0.000000000000000E+000
   3.70500000000000         0.000000000000000E+000
   3.89500000000000         0.000000000000000E+000
   4.08500000000000         0.000000000000000E+000
   4.27500000000000         0.000000000000000E+000
   4.46500000000000         0.000000000000000E+000
   4.65500000000000         0.000000000000000E+000
   4.84500000000000         0.000000000000000E+000
   5.03500000000000         0.000000000000000E+000
   5.22500000000000         0.000000000000000E+000
   5.41500000000000         0.000000000000000E+000
   5.60500000000000         0.000000000000000E+000
   5.79500000000000         0.000000000000000E+000
   5.98500000000000         0.000000000000000E+000
   6.17500000000000         0.000000000000000E+000
   6.36500000000000         0.000000000000000E+000
   6.55500000000000         0.000000000000000E+000
   6.74500000000000         2.789068796429555E-192
   6.93500000000000         2.669278790407348E-186
   7.12500000000000         1.646258298063090E-182
   7.31500000000000         9.389824829672590E-181
   7.50500000000000        -1.818756537660203E-178
   7.69500000000000        -1.539687343087581E-176
   7.88500000000000        -6.011106977132664E-175
   8.07500000000000        -1.547212479926567E-173
   8.26500000000000        -2.980382218951163E-172
   8.45500000000000        -4.589344328440493E-171
   8.64500000000000        -5.881289093816964E-170
   8.83500000000000        -6.442396191398963E-169
   9.02500000000000        -6.144613925746274E-168
   9.21500000000000        -5.168234433064491E-167
   9.40500000000000        -3.864776273062739E-166
   9.59500000000000        -2.578990755194968E-165
   9.78500000000000        -1.533079344469686E-164
   9.97500000000000        -8.033828420788876E-164
   10.1650000000000        -3.605120401130952E-163
   10.3550000000000        -1.273080586459592E-162
   10.5450000000000        -2.350970117540971E-162
   10.7350000000000         1.222247530043280E-161
   10.9250000000000         1.812696773430868E-160
   11.1150000000000         1.414380214968957E-159
   11.3050000000000         8.801815210519834E-159
   11.4950000000000         4.782574036567359E-158
   11.6850000000000         2.350439642116607E-157
   11.8750000000000         1.062890736163953E-156
   12.0650000000000         4.462844594181770E-156
   12.2550000000000         1.747549942780919E-155
   12.4450000000000         6.387606573595276E-155
   12.6350000000000         2.173615619123054E-154
   12.8250000000000         6.833566187185684E-154
   13.0150000000000         1.952042873235189E-153
   13.2050000000000         4.878517168174024E-153
   13.3950000000000         9.582667346289935E-153
   13.5850000000000         7.943653813716199E-153
   13.7750000000000        -5.063405570746003E-152
   13.9650000000000        -3.902893764522061E-151
   14.1550000000000        -1.857244625858950E-150
   14.3450000000000        -7.327034647650595E-150
   14.5350000000000        -2.579754556347284E-149
   14.7250000000000        -8.346623443651923E-149
   14.9150000000000        -2.515625508290112E-148
   15.1050000000000        -7.106661157413378E-148
   15.2950000000000        -1.884396316340074E-147
   15.4850000000000        -4.675921640226402E-147
   15.6750000000000        -1.076261852128196E-146
   15.8650000000000        -2.253344052786398E-146
   16.0550000000000        -4.098406227329800E-146
   16.2450000000000        -5.614426068999723E-146
   16.4350000000000        -1.456916501827450E-146
   16.6250000000000         2.768500998726706E-145
   16.8150000000000         1.412269759553516E-144
   17.0050000000000         5.056686531507865E-144
   17.1950000000000         1.559204526622922E-143
   17.3850000000000         4.404586791909190E-143
   17.5750000000000         1.172817886169958E-142
   17.7650000000000         2.991975835012487E-142
   17.9550000000000         7.389966703166668E-142
   18.1450000000000         1.779272539015039E-141
   18.3350000000000         4.191588453038769E-141
   18.5250000000000         9.667769726914889E-141
   18.7150000000000         2.177249563009847E-140
   18.9050000000000         4.756603005458441E-140
   19.0950000000000         9.966452035852098E-140
   19.2850000000000         1.964423413167778E-139
   19.4750000000000         3.511412883366522E-139
   19.6650000000000         5.206979203755741E-139
   19.8550000000000         4.334939741594067E-139
   20.0450000000000        -9.072178650876205E-139
   20.2350000000000        -6.515729010177266E-138
   20.4250000000000        -2.452473598184385E-137
   20.6150000000000        -7.509822122552432E-137
   20.8050000000000        -2.047505496973534E-136
   20.9950000000000        -5.136870662455887E-136
   21.1850000000000        -1.202944066035230E-135
   21.3750000000000        -2.644139731369627E-135
   21.5650000000000        -5.454486519304818E-135
   21.7550000000000        -1.049858604368569E-134
   21.9450000000000        -1.858718349288015E-134
   22.1350000000000        -2.931482243648544E-134
   22.3250000000000        -3.784298165564399E-134
   22.5150000000000        -2.734652502142318E-134
   22.7050000000000         4.673821780082274E-134
   22.8950000000000         2.861700883140895E-133
   23.0850000000000         8.985678525922725E-133
   23.2750000000000         2.264455242499571E-132
   23.4650000000000         4.998497634618406E-132
   23.6550000000000         9.918742310610467E-132
   23.8450000000000         1.769796397969426E-131
   24.0350000000000         2.769119479027857E-131
   24.2250000000000         3.492838861029254E-131
   24.4150000000000         2.344925324686962E-131
   24.6050000000000        -4.695683860658239E-131
   24.7950000000000        -2.646664050764870E-130
   24.9850000000000        -8.049870283493217E-130
   25.1750000000000        -1.984639164409567E-129
   25.3650000000000        -4.320846107065013E-129
   25.5550000000000        -8.553642454804375E-129
   25.7450000000000        -1.552535490953445E-128
   25.9350000000000        -2.568870068382314E-128
   26.1250000000000        -3.780642760587454E-128
   26.3150000000000        -4.609010163522986E-128
   26.5050000000000        -3.462151578895338E-128
   26.6950000000000         3.246957188704995E-128
   26.8850000000000         2.265820158654130E-127
   27.0750000000000         6.763036536953455E-127
   27.2650000000000         1.591639739237351E-126
   27.4550000000000         3.278223420612929E-126
   27.6450000000000         6.110738649744866E-126
   27.8350000000000         1.040241887375827E-125
   28.0250000000000         1.605590334064711E-125
   28.2150000000000         2.180841162907527E-125
   28.4050000000000         2.380064750018480E-125
   28.5950000000000         1.313866081971766E-125
   28.7850000000000        -2.783602361326781E-125
   28.9750000000000        -1.305352293194299E-124
   29.1650000000000        -3.454606232827917E-124
   29.3550000000000        -7.450838551330089E-124
   29.5450000000000        -1.417935713236546E-123
   29.7350000000000        -2.441691366256760E-123
   29.9250000000000        -3.814294247861450E-123
   30.1150000000000        -5.310853235905403E-123
   30.3050000000000        -6.222498745829892E-123
   30.4950000000000        -4.927944098968720E-123
   30.6850000000000         1.737452462101354E-123
   30.8750000000000         1.929247915159793E-122
   31.0650000000000         5.643705167863098E-122
   31.2550000000000         1.254506716435269E-121
   31.4450000000000         2.412253006361340E-121
   31.6350000000000         4.172217022422954E-121
   31.8250000000000         6.555521056088374E-121
   32.0150000000000         9.270783394209915E-121
   32.2050000000000         1.136204961090585E-120
   32.3950000000000         1.064721402701677E-120
   32.5850000000000         2.911096159117058E-121
   32.7750000000000        -1.911266722812299E-120
   32.9650000000000        -6.677864332961624E-120
   33.1550000000000        -1.560945612538048E-119
   33.3450000000000        -3.068229754229069E-119
   33.5350000000000        -5.383736538542618E-119
   33.7250000000000        -8.597220281338639E-119
   33.9150000000000        -1.249404730486047E-118
   34.1050000000000        -1.620602298950210E-118
   34.2950000000000        -1.766089169206469E-118
   34.4850000000000        -1.279626464168953E-118
   34.6750000000000         5.438443785611227E-119
   34.8650000000000         4.814224890740997E-118
   35.0550000000000         1.312034413021749E-117
   35.2450000000000         2.749610662090829E-117
   35.4350000000000         5.014682491719006E-117
   35.6250000000000         8.272962777839219E-117
   35.8150000000000         1.248959516501934E-116
   36.0050000000000         1.717263280975974E-116
   36.1950000000000         2.096590795635281E-116
   36.3850000000000         2.106077732489925E-116
   36.5750000000000         1.242919482873861E-116
   36.7650000000000        -1.304646295763437E-116
   36.9550000000000        -6.733739951623742E-116
   37.1450000000000        -1.664983774042741E-115
   37.3350000000000        -3.296128019109587E-115
   37.5250000000000        -5.752685531714631E-115
   37.7150000000000        -9.138631100886254E-115
   37.9050000000000        -1.333523245774433E-114
   38.0950000000000        -1.777101456979904E-114
   38.2850000000000        -2.107910677807509E-114
   38.4750000000000        -2.063109363748716E-114
   38.6650000000000        -1.196715732704792E-114
   38.8550000000000         1.179879836445676E-114
   39.0450000000000         6.042138623723455E-114
   39.2350000000000         1.464850256598773E-113
   39.4250000000000         2.843462237810600E-113
   39.6150000000000         4.872537261220843E-113
   39.8050000000000         7.615489231377161E-113
   39.9950000000000         1.096588535690671E-112
   40.1850000000000         1.448926952401039E-112
   40.3750000000000         1.719550087632056E-112
   40.5650000000000         1.723875064042872E-112
   40.7550000000000         1.156250053061367E-112
   40.9450000000000        -4.456492288932047E-113
   41.1350000000000        -3.725214745283686E-112
   41.3250000000000        -9.500057917495408E-112
   41.5150000000000        -1.869208544354544E-111
   41.7050000000000        -3.214821505818458E-111
   41.8950000000000        -5.029004738290494E-111
   42.0850000000000        -7.251829323581195E-111
   42.2750000000000        -9.629513976732462E-111
   42.4650000000000        -1.158464109722611E-110
   42.6550000000000        -1.204821482204604E-110
   42.8450000000000        -9.265177773911309E-111
   43.0350000000000        -6.055911348272937E-112
   43.2250000000000         1.755400735079095E-110
   43.4150000000000         4.976828201070264E-110
   43.6050000000000         1.011086087167923E-109
   43.7950000000000         1.761547235752062E-109
   43.9850000000000         2.770818157694692E-109
   44.1750000000000         4.004880024928742E-109
   44.3650000000000         5.326269019737791E-109
   44.5550000000000         6.428542567383746E-109
   44.7450000000000         6.754497773557869E-109
   44.9350000000000         5.406397939841313E-109
   45.1250000000000         1.067361466361043E-109
   45.3150000000000        -8.030822003118121E-109
   45.5050000000000        -2.403655489845494E-108
   45.6950000000000        -4.922103488039980E-108
   45.8850000000000        -8.542476767762871E-108
   46.0750000000000        -1.330778302911676E-107
   46.2650000000000        -1.896627047181672E-107
   46.4550000000000        -2.475262177868282E-107
   46.6450000000000        -2.910502654425145E-107
   46.8350000000000        -2.933924412924619E-107
   47.0250000000000        -2.133424549419456E-107
   47.2150000000000         6.663057261977661E-109
   47.4050000000000         4.396586083596758E-107
   47.5950000000000         1.167892719340102E-106
   47.7850000000000         2.267864962483301E-106
   47.9750000000000         3.782701976088896E-106
   48.1650000000000         5.677860404239110E-106
   48.3550000000000         7.777203695757433E-106
   48.5450000000000         9.679404191750825E-106
   48.7350000000000         1.066023680370178E-105
   48.9250000000000         9.575527681459280E-106
   49.1150000000000         4.792933620987981E-106
   49.3050000000000        -5.801647277146308E-106
   49.4950000000000        -2.465660244866590E-105
   49.6850000000000        -5.417913682006088E-105
   49.8750000000000        -9.603038469469705E-105
   50.0650000000000        -1.499905614634595E-104
   50.2550000000000        -2.123231503535140E-104
   50.4450000000000        -2.736421522568631E-104
   50.6350000000000        -3.164257718486063E-104
   50.8250000000000        -3.125408310499945E-104
   51.0150000000000        -2.214543277027198E-104
   51.2050000000000         9.795161685966904E-106
   51.3950000000000         4.433489010582992E-104
   51.5850000000000         1.142070650959616E-103
   51.7750000000000         2.153700985002674E-103
   51.9650000000000         3.485565284744791E-103
   52.1550000000000         5.068539859991194E-103
   52.3450000000000         6.710705584952484E-103
   52.5350000000000         8.044132868862173E-103
   52.7250000000000         8.472795234892329E-103
   52.9150000000000         7.135745518247339E-103
   53.1050000000000         2.907073419945013E-103
   53.2950000000000        -5.538129229097246E-103
   53.4850000000000        -1.955627132934085E-102
   53.6750000000000        -4.022853407709201E-102
   53.8650000000000        -6.788289687431262E-102
   54.0550000000000        -1.014310173329573E-101
   54.2450000000000        -1.375414412699777E-101
   54.4350000000000        -1.697272789788514E-101
   54.6250000000000        -1.875059543496604E-101
   54.8150000000000        -1.758876321091787E-101
   55.0050000000000        -1.155565785845117E-101
   55.1950000000000         1.579533171595509E-102
   55.3850000000000         2.404755310787287E-101
   55.5750000000000         5.756763959223600E-101
   55.7650000000000         1.025975205916617E-100
   55.9550000000000         1.573593091062799E-100
   56.1450000000000         2.167226682027580E-100
   56.3350000000000         2.711208839387812E-100
   56.5250000000000         3.057919572439592E-100
   56.7150000000000         3.007602105418570E-100
   56.9050000000000         2.320751412493613E-100
   57.0950000000000         7.485793226941854E-101
   57.2850000000000        -1.913896063039758E-100
   57.4750000000000        -5.750572687834920E-100
   57.6650000000000        -1.062697922629737E-099
   57.8550000000000        -1.608618827108704E-099
   58.0450000000000        -2.126342385224101E-099
   58.2350000000000        -2.485942652202295E-099
   58.4250000000000        -2.522701858541735E-099
   58.6150000000000        -2.063505398421626E-099
   58.8050000000000        -9.772254757822137E-100
   58.9950000000000         7.468778931420768E-100
   59.1850000000000         2.894058960487142E-099
   59.3750000000000         4.903156258337177E-099
   59.5650000000000         5.755187788856512E-099
   59.7550000000000         3.916233883388866E-099
   59.9450000000000        -2.597777080254763E-099
   60.1350000000000        -1.594413509767544E-098
   60.3250000000000        -3.785829593472543E-098
   60.5150000000000        -6.863625320496573E-098
   60.7050000000000        -1.056228170728632E-097
   60.8950000000000        -1.412159872514909E-097
   61.0850000000000        -1.605465191670708E-097
   61.2750000000000        -1.392234205711976E-097
   61.4650000000000        -4.185663871002372E-098
   61.6550000000000         1.775347497989747E-097
   61.8450000000000         5.716894515219076E-097
   62.0350000000000         1.190927214044135E-096
   62.2250000000000         2.066523479925546E-096
   62.4150000000000         3.184742788484037E-096
   62.6050000000000         4.450516868765258E-096
   62.7950000000000         5.641610585978948E-096
   62.9850000000000         6.357268948880324E-096
   63.1750000000000         5.970021520721033E-096
   63.3650000000000         3.595587505415200E-096
   63.5550000000000        -1.896621013622077E-096
   63.7450000000000        -1.180189607009798E-095
   63.9350000000000        -2.739016411033842E-095
   64.1250000000000        -4.956688692546397E-095
   64.3150000000000        -7.834842898871156E-095
   64.5050000000000        -1.121312870353350E-094
   64.6950000000000        -1.467675897962027E-094
   64.8850000000000        -1.745146420629169E-094
   65.0750000000000        -1.830079993834266E-094
   65.2650000000000        -1.545165345276505E-094
   65.4550000000000        -6.586959025238171E-095
   65.6450000000000         1.104124844202425E-094
   65.8350000000000         4.031271099158831E-094
   66.0250000000000         8.368087601320752E-094
   66.2150000000000         1.422868523930393E-093
   66.4050000000000         2.146983523217840E-093
   66.5950000000000         2.952749089664771E-093
   66.7850000000000         3.722436817885782E-093
   66.9750000000000         4.256946048587913E-093
   67.1650000000000         4.258720740657062E-093
   67.3550000000000         3.323478081408275E-093
   67.5450000000000         9.488924189106437E-094
   67.7350000000000        -3.429431000904581E-093
   67.9250000000000        -1.036280598897960E-092
   68.1150000000000        -2.026310217345419E-092
   68.3050000000000        -3.321537325210524E-092
   68.4950000000000        -4.872548187449247E-092
   68.6850000000000        -6.540930882674682E-092
   68.8750000000000        -8.064656805900681E-092
   69.0650000000000        -9.024513386974786E-092
   69.2550000000000        -8.819082669056247E-092
   69.4450000000000        -6.659108845318014E-092
   69.6350000000000        -1.595520916793990E-092
   69.8250000000000         7.401748600224424E-092
   70.0150000000000         2.129559657975940E-091
   70.2050000000000         4.074694732301213E-091
   70.3950000000000         6.578143824305311E-091
   70.5850000000000         9.535686151203339E-091
   70.7750000000000         1.268490094306031E-090
   70.9650000000000         1.555002418047804E-090
   71.1550000000000         1.739102071756542E-090
   71.3450000000000         1.716903782312824E-090
   71.5350000000000         1.354499583102862E-090
   71.7250000000000         4.932409496663642E-091
   71.9150000000000        -1.037132006271980E-090
   72.1050000000000        -3.395022505342841E-090
   72.2950000000000        -6.691015107547315E-090
   72.4850000000000        -1.093818189318411E-089
   72.6750000000000        -1.598909029965290E-089
   72.8650000000000        -2.146250968349415E-089
   73.0550000000000        -2.666632793061300E-089
   73.2450000000000        -3.052757863238396E-089
   73.4350000000000        -3.154547374792872E-089
   73.6250000000000        -2.778841540420018E-089
   73.8150000000000        -1.696030923579136E-089
   74.0050000000000         3.435998789741902E-090
   74.1950000000000         3.581107585911426E-089
   74.3850000000000         8.205547690095897E-089
   74.5750000000000         1.429507827631329E-088
   74.7650000000000         2.174346455004603E-088
   74.9550000000000         3.017566755855554E-088
   75.1450000000000         3.885966578091665E-088
   75.3350000000000         4.662563902908099E-088
   75.5250000000000         5.180772573001474E-088
   75.7150000000000         5.222712122227906E-088
   75.9050000000000         4.523749619202552E-088
   76.0950000000000         2.785363352417127E-088
   76.2850000000000        -3.019135563808603E-089
   76.4750000000000        -5.024440855157343E-088
   76.6650000000000        -1.160043477689975E-087
   76.8550000000000        -2.012559666421428E-087
   77.0450000000000        -3.051278705133123E-087
   77.2350000000000        -4.243076301258657E-087
   77.4250000000000        -5.524809496121965E-087
   77.6150000000000        -6.798837249340419E-087
   77.8050000000000        -7.930107928511160E-087
   77.9950000000000        -8.744852344250259E-087
   78.1850000000000        -9.030268755348777E-087
   78.3750000000000        -8.533709498713951E-087
   78.5650000000000        -6.958893456407368E-087
   78.7550000000000        -3.955812799764546E-087
   78.9450000000000         8.993325573829685E-088
   79.1350000000000         8.137094172047587E-087
   79.3250000000000         1.844100903359965E-086
   79.5150000000000         3.270234185190989E-086
   79.7050000000000         5.207002749172170E-086
   79.8950000000000         7.797001124531172E-086
   80.0850000000000         1.120517067393180E-085
   80.2750000000000         1.559997176531631E-085
   80.4650000000000         2.111285775368371E-085
   80.6550000000000         2.776612207690821E-085
   80.8450000000000         3.535847203651244E-085
   81.0350000000000         4.329886516047207E-085
   81.2250000000000         5.038339579598596E-085
   81.4150000000000         5.451870308496473E-085
   81.6050000000000         5.240989861967106E-085
   81.7950000000000         3.925259533062018E-085
   81.9850000000000         8.497896312089599E-086
   82.1750000000000        -4.820427523062320E-085
   82.3650000000000        -1.407365300316610E-084
   82.5550000000000        -2.797310392667448E-084
   82.7450000000000        -4.750485646030834E-084
   82.9350000000000        -7.332801837162781E-084
   83.1250000000000        -1.054051556261905E-083
   83.3150000000000        -1.424983197878457E-083
   83.5050000000000        -1.815310820777645E-083
   83.6950000000000        -2.168420417549141E-083
   83.8850000000000        -2.393923263410454E-083
   84.0750000000000        -2.360397515304485E-083
   84.2650000000000        -1.890550600720791E-083
   84.4550000000000        -7.612799052119436E-084
   84.6450000000000         1.288137317320492E-083
   84.8350000000000         4.535821976701464E-083
   85.0250000000000         9.240712243544141E-083
   85.2150000000000         1.558534670041920E-082
   85.4050000000000         2.359454187476150E-082
   85.5950000000000         3.302838739312307E-082
   85.7850000000000         4.325130517368866E-082
   85.9750000000000         5.308398683561538E-082
   86.1650000000000         6.065205055146930E-082
   86.3550000000000         6.325426694296276E-082
   86.5450000000000         5.728390729595452E-082
   86.7350000000000         3.824844030553279E-082
   86.9250000000000         9.441428489280186E-084
   87.1150000000000        -6.014880670556672E-082
   87.3050000000000        -1.501813015430999E-081
   87.4950000000000        -2.728957033027766E-081
   87.6850000000000        -4.291847631732380E-081
   87.8750000000000        -6.152374777092779E-081
   88.0650000000000        -8.203176928392727E-081
   88.2550000000000        -1.024304428206524E-080
   88.4450000000000        -1.195233573251236E-080
   88.6350000000000        -1.287217361962928E-080
   88.8250000000000        -1.239274675002710E-080
   89.0150000000000        -9.757691585332766E-081
   89.2050000000000        -4.093028224321383E-081
   89.3950000000000         5.529795972619747E-081
   89.5850000000000         1.998695189935032E-080
   89.7750000000000         3.994262224273707E-080
   89.9650000000000         6.563093148145046E-080
   90.1550000000000         9.657897623351557E-080
   90.3450000000000         1.312788712922619E-079
   90.5350000000000         1.668284337425319E-079
   90.7250000000000         1.985752858978487E-079
   90.9150000000000         2.198174177298164E-079
   91.1050000000000         2.216336349948523E-079
   91.2950000000000         1.929380438530961E-079
   91.4850000000000         1.208710258942811E-079
   91.6750000000000        -8.348804333058981E-081
   91.8650000000000        -2.079863323053518E-079
   92.0550000000000        -4.886563065315022E-079
   92.2450000000000        -8.554251602543635E-079
   92.4350000000000        -1.304149185901351E-078
   92.6250000000000        -1.817155894713326E-078
   92.8150000000000        -2.358520834003875E-078
   93.0050000000000        -2.869377111608281E-078
   93.1950000000000        -3.263914049870644E-078
   93.3850000000000        -3.426962116759437E-078
   93.5750000000000        -3.214301740396390E-078
   93.7650000000000        -2.457041265196143E-078
   93.9550000000000        -9.715400397495851E-079
   94.1450000000000         1.423648960181846E-078
   94.3350000000000         4.882541229679432E-078
   94.5250000000000         9.497377556254769E-078
   94.7150000000000         1.525516693583028E-077
   94.9050000000000         2.198630126077314E-077
   95.0950000000000         2.930804793947216E-077
   95.2850000000000         3.656776666080573E-077
   95.4750000000000         4.279309175512752E-077
   95.6650000000000         4.665893104364346E-077
   95.8550000000000         4.648372049671807E-077
   96.0450000000000         4.026959834915129E-077
   96.2350000000000         2.580256551144178E-077
   96.4250000000000         8.287159289191327E-079
   96.6150000000000        -3.667940028988645E-077
   96.8050000000000        -8.815697067258014E-077
   96.9950000000000        -1.539805135189858E-076
   97.1850000000000        -2.329118126422524E-076
   97.3750000000000        -3.214794843860260E-076
   97.5650000000000        -4.133459714804535E-076
   97.7550000000000        -4.987317639803040E-076
   97.9450000000000        -5.639947702476502E-076
   98.1350000000000        -5.914887296314488E-076
   98.3250000000000        -5.598471015511782E-076
   98.5150000000000        -4.448536698851131E-076
   98.7050000000000        -2.210628810663232E-076
   98.8950000000000         1.356843508514247E-076
   99.0850000000000         6.447463768614366E-076
   99.2750000000000         1.316139390716181E-075
   99.4650000000000         2.145051000429935E-075
   99.6550000000000         3.105641064361477E-075
   99.8450000000000         4.144550679195436E-075
   100.035000000000         5.174761578820298E-075
   100.225000000000         6.070690198604591E-075
   100.415000000000         6.665643470070387E-075
   100.605000000000         6.752978635849151E-075
   100.795000000000         6.092459742976694E-075
   100.985000000000         4.423343497438847E-075
   101.175000000000         1.485605041436672E-075
   101.365000000000        -2.949624738218749E-075
   101.555000000000        -9.039946916779714E-075
   101.745000000000        -1.682236413427241E-074
   101.935000000000        -2.615644618269377E-074
   102.125000000000        -3.666329573562676E-074
   102.315000000000        -4.766549724993554E-074
   102.505000000000        -5.813530430077459E-074
   102.695000000000        -6.666042937247824E-074
   102.885000000000        -7.143872021287646E-074
   103.075000000000        -7.031444272432910E-074
   103.265000000000        -6.086948142717908E-074
   103.455000000000        -4.058210399118671E-074
   103.645000000000        -7.063581606767472E-075
   103.835000000000         4.162150669933785E-074
   104.025000000000         1.065523798048300E-073
   104.215000000000         1.874772584221097E-073
   104.405000000000         2.822896217419591E-073
   104.595000000000         3.864931131163693E-073
   104.785000000000         4.927090313795647E-073
   104.975000000000         5.902972533990267E-073
   105.165000000000         6.651772782385178E-073
   105.355000000000         6.999487139685177E-073
   105.545000000000         6.744173158174765E-073
   105.735000000000         5.666306266823641E-073
   105.925000000000         3.545131787048072E-073
   106.115000000000         1.816198879984332E-074
   106.305000000000        -4.571839150522186E-073
   106.495000000000        -1.077552680721105E-072
   106.685000000000        -1.836166502664925E-072
   106.875000000000        -2.709129357723222E-072
   107.065000000000        -3.651236636283538E-072
   107.255000000000        -4.592391770764011E-072
   107.445000000000        -5.435234437862292E-072
   107.635000000000        -6.054685477205073E-072
   107.825000000000        -6.300177779882583E-072
   108.015000000000        -6.001349968260244E-072
   108.205000000000        -4.977909302049057E-072
   108.395000000000        -3.054200962860715E-072
   108.585000000000        -7.873459845102933E-074
   108.775000000000         4.051496573245066E-072
   108.965000000000         9.362616907690454E-072
   109.155000000000         1.577277373846435E-071
   109.345000000000         2.306049985555790E-071
   109.535000000000         3.083550775153309E-071
   109.725000000000         3.851569985040349E-071
   109.915000000000         4.531488932746747E-071
   110.105000000000         5.024623103084682E-071