  -1.42500000000000         0.000000000000000E+000
  -1.23500000000000         0.000000000000000E+000
  -1.04500000000000         0.000000000000000E+000
 -0.855000000000000         0.000000000000000E+000
 -0.665000000000000         0.000000000000000E+000
 -0.475000000000000         0.000000000000000E+000
 -0.285000000000000         0.000000000000000E+000
 -9.499999999999975E-002    0.000000000000000E+000
  9.500000000000020E-002    0.000000000000000E+000
  0.285000000000000         0.000000000000000E+000
  0.475000000000000         0.000000000000000E+000
  0.665000000000000         0.000000000000000E+000
  0.855000000000000         0.000000000000000E+000
   1.04500000000000         0.000000000000000E+000
   1.23500000000000         0.000000000000000E+000
   1.42500000000000         0.000000000000000E+000
   1.61500000000000         0.000000000000000E+000
   1.80500000000000         0.000000000000000E+000
   1.99500000000000         0.000000000000000E+000
   2.18500000000000         0.000000000000000E+000
   2.37500000000000         0.000000000000000E+000
   2.56500000000000         0.000000000000000E+000
   2.75500000000000         0.000000000000000E+000
   2.94500000000000         0.000000000000000E+000
   3.13500000000000         0.000000000000000E+000
   3.32500000000000         0.000000000000000E+000
   3.51500000000000         0.000000000000000E+000
   3.70500000000000         0.000000000000000E+000
   3.89500000000000         0.000000000000000E+000
   4.08500000000000         0.000000000000000E+000
   4.27500000000000         0.000000000000000E+000
   4.46500000000000         0.000000000000000E+000
   4.65500000000000         0.000000000000000E+000
   4.84500000000000         0.000000000000000E+000
   5.03500000000000         0.000000000000000E+000
   5.22500000000000         0.000000000000000E+000
   5.41500000000000         0.000000000000000E+000
   5.60500000000000         0.000000000000000E+000
   5.79500000000000         0.000000000000000E+000
   5.98500000000000         0.000000000000000E+000
   6.17500000000000         0.000000000000000E+000
   6.36500000000000         0.000000000000000E+000
   6.55500000000000         0.000000000000000E+000
   6.74500000000000         0.000000000000000E+000
   6.93500000000000         1.006853835511069E-193
   7.12500000000000         9.636116570447237E-188
   7.31500000000000         5.944919678314990E-184
   7.50500000000000         3.508615520961534E-182
   7.69500000000000        -6.496133282501930E-180
   7.88500000000000        -5.688544835748302E-178
   8.07500000000000        -2.283130902131608E-176
   8.26500000000000        -6.036374688125480E-175
   8.45500000000000        -1.194362343901747E-173
   8.64500000000000        -1.889589396659242E-172
   8.83500000000000        -2.489119618760754E-171
   9.02500000000000        -2.804633054880584E-170
   9.21500000000000        -2.754241041982914E-169
   9.40500000000000        -2.388534508184059E-168
   9.59500000000000        -1.845348725792631E-167
   9.78500000000000        -1.276200062702070E-166
   9.97500000000000        -7.902281686360439E-166
   10.1650000000000        -4.353048390906665E-165
   10.3550000000000        -2.093035326126003E-164
   10.5450000000000        -8.346586730280464E-164
   10.7350000000000        -2.308714025875779E-163
   10.9250000000000         6.295442047327210E-164
   11.1150000000000         6.900615595619553E-162
   11.3050000000000         6.479740253114516E-161
   11.4950000000000         4.404397185664370E-160
   11.6850000000000         2.542591261802546E-159
   11.8750000000000         1.312982991307961E-158
   12.0650000000000         6.208742413987538E-158
   12.2550000000000         2.721537082166329E-157
   12.4450000000000         1.113085521637302E-156
   12.6350000000000         4.259943308125866E-156
   12.8250000000000         1.525355347964866E-155
   13.0150000000000         5.091633758691176E-155
   13.2050000000000         1.570478694179652E-154
   13.3950000000000         4.392938710201009E-154
   13.5850000000000         1.067474163823303E-153
   13.7750000000000         1.982420359301661E-153
   13.9650000000000         1.069477143740716E-153
   14.1550000000000        -1.393291256174487E-152
   14.3450000000000        -9.598183326073850E-152
   14.5350000000000        -4.425367047399186E-151
   14.7250000000000        -1.720382971060468E-150
   14.9150000000000        -6.011360300539363E-150
   15.1050000000000        -1.938374571494556E-149
   15.2950000000000        -5.841117790761406E-149
   15.4850000000000        -1.654653171201592E-148
   15.6750000000000        -4.413202275448775E-148
   15.8650000000000        -1.105705666587874E-147
   16.0550000000000        -2.583548308686761E-147
   16.2450000000000        -5.540915598851707E-147
   16.4350000000000        -1.052509069992555E-146
   16.6250000000000        -1.603521265815911E-146
   16.8150000000000        -1.155104601098927E-146
   17.0050000000000         4.391605895606253E-146
   17.1950000000000         2.819295477105483E-145
   17.3850000000000         1.082815870575909E-144
   17.5750000000000         3.473758025320487E-144
   17.7650000000000         1.009857274913861E-143
   17.9550000000000         2.752442023735182E-143
   18.1450000000000         7.162804752399670E-143
   18.3350000000000         1.799634134690845E-142
   18.5250000000000         4.396151225688720E-142
   18.7150000000000         1.048273318810287E-141
   18.9050000000000         2.442918607298256E-141
   19.0950000000000         5.554697580756724E-141
   19.2850000000000         1.226436573915780E-140
   19.4750000000000         2.606560241909455E-140
   19.6650000000000         5.254303960798446E-140
   19.8550000000000         9.781767172243258E-140
   20.0450000000000         1.587414363040353E-139
   20.2350000000000         1.869146359559749E-139
   20.4250000000000        -2.012998165948480E-140
   20.6150000000000        -1.112517568219508E-138
   20.8050000000000        -4.915950941020957E-138
   20.9950000000000        -1.611087915789687E-137
   21.1850000000000        -4.584991046623853E-137
   21.3750000000000        -1.190152225584520E-136
   21.5650000000000        -2.876339789531090E-136
   21.7550000000000        -6.531596986946699E-136
   21.9450000000000        -1.397684374613284E-135
   22.1350000000000        -2.813206374624872E-135
   22.3250000000000        -5.286993464593585E-135
   22.5150000000000        -9.126912192331045E-135
   22.7050000000000        -1.395404047334188E-134
   22.8950000000000        -1.709391909174302E-134
   23.0850000000000        -9.903057522005524E-135
   23.2750000000000         2.972610352631299E-134
   23.4650000000000         1.511020988288660E-133
   23.6550000000000         4.529238587411434E-133
   23.8450000000000         1.112812216066459E-132
   24.0350000000000         2.411597073058737E-132
   24.2250000000000         4.710034061980072E-132
   24.4150000000000         8.269385879732966E-132
   24.6050000000000         1.267525573969785E-131
   24.7950000000000         1.538598372596512E-131
   24.9850000000000         8.542254488971203E-132
   25.1750000000000        -2.736150647143323E-131
   25.3650000000000        -1.349107412670230E-130
   25.5550000000000        -3.984425205276597E-130
   25.7450000000000        -9.707607924067344E-130
   25.9350000000000        -2.103544376520003E-129
   26.1250000000000        -4.163690055319286E-129
   26.3150000000000        -7.588647770690640E-129
   26.5050000000000        -1.267745815509379E-128
   26.6950000000000        -1.901610525947817E-128
   26.8850000000000        -2.418260081874003E-128
   27.0750000000000        -2.116948560526048E-128
   27.2650000000000         6.258191506621026E-129
   27.4550000000000         9.114406320497089E-128
   27.6450000000000         2.943738003874475E-127
   27.8350000000000         7.182012028257139E-127
   28.0250000000000         1.517555926606654E-126
   28.2150000000000         2.896528760984954E-126
   28.4050000000000         5.062785255172871E-126
   28.5950000000000         8.088245124117462E-126
   28.7850000000000         1.158801064865386E-125
   28.9750000000000         1.408289572075129E-125
   29.1650000000000         1.186545901441730E-125
   29.3550000000000        -2.823106192425474E-126
   29.5450000000000        -4.440919856956986E-125
   29.7350000000000        -1.371827701945536E-124
   29.9250000000000        -3.181014001414062E-124
   30.1150000000000        -6.367160524360573E-124
   30.3050000000000        -1.147052506546893E-123
   30.4950000000000        -1.882021165382189E-123
   30.6850000000000        -2.794888606190255E-123
   30.8750000000000        -3.645034013116461E-123
   31.0650000000000        -3.798720922669983E-123
   31.2550000000000        -1.915030266624926E-123
   31.4450000000000         4.497429635751450E-123
   31.6350000000000         1.961812289109227E-122
   31.8250000000000         4.980051959737994E-122
   32.0150000000000         1.036483473161466E-121
   32.2050000000000         1.909637030880111E-121
   32.3950000000000         3.192960579552457E-121
   32.5850000000000         4.860648554600109E-121
   32.7750000000000         6.633427100991887E-121
   32.9650000000000         7.716238360448424E-121
   33.1550000000000         6.388340595705812E-121
   33.3450000000000        -5.745708302991460E-122
   33.5350000000000        -1.861379166907104E-120
   33.7250000000000        -5.608830141198180E-120
   33.9150000000000        -1.245987763705250E-119
   34.1050000000000        -2.382127620996146E-119
   34.2950000000000        -4.103304908208067E-119
   34.4850000000000        -6.462040385503521E-119
   34.6750000000000        -9.282721016363971E-119
   34.8650000000000        -1.190707382656385E-118
   35.0550000000000        -1.279349145120624E-118
   35.2450000000000        -8.943464844840106E-119
   35.4350000000000         4.832656251673920E-119
   35.6250000000000         3.671178114329356E-118
   35.8150000000000         9.845630166291278E-118
   36.0050000000000         2.052882607282518E-117
   36.1950000000000         3.741134242368234E-117
   36.3850000000000         6.186255154678288E-117
   36.5750000000000         9.391670128417205E-117
   36.7650000000000         1.304577903547359E-116
   36.9550000000000         1.622891062975937E-116
   37.1450000000000         1.698116210150897E-116
   37.3350000000000         1.172282214896429E-116
   37.5250000000000        -5.434539952566010E-117
   37.7150000000000        -4.335909682358611E-116
   37.9050000000000        -1.142741119688056E-115
   38.0950000000000        -2.333293162864821E-115
   38.2850000000000        -4.165378832011332E-115
   38.4750000000000        -6.758420255846353E-115
   38.6650000000000        -1.009624415999466E-114
   38.8550000000000        -1.386608244364940E-114
   39.0450000000000        -1.720998410634724E-114
   39.2350000000000        -1.837267372588093E-114
   39.4250000000000        -1.424725391909304E-114
   39.6150000000000         1.430645661911131E-116
   39.8050000000000         3.212324256448251E-114
   39.9950000000000         9.159533668804544E-114
   40.1850000000000         1.906542769500417E-113
   40.3750000000000         3.420194801937154E-113
   40.5650000000000         5.554604416009062E-113
   40.7550000000000         8.311332928200450E-113
   40.9450000000000         1.148546770954699E-112
   41.1350000000000         1.449872311926309E-112
   41.3250000000000         1.616717600593176E-112
   41.5150000000000         1.440610798438461E-112
   41.7050000000000         5.897197117717547E-113
   41.8950000000000        -1.421721938495415E-112
   42.0850000000000        -5.248634299285453E-112
   42.2750000000000        -1.169345704588830E-111
   42.4650000000000        -2.161453433809157E-111
   42.6550000000000        -3.571766706639345E-111
   42.8450000000000        -5.417020534545397E-111
   43.0350000000000        -7.596747280089647E-111
   43.2250000000000        -9.798335865601161E-111
   43.4150000000000        -1.136622478574912E-110
   43.6050000000000        -1.113747872531072E-110
   43.7950000000000        -7.258711890196112E-111
   43.9850000000000         2.979240465983435E-111
   44.1750000000000         2.321984637144082E-110
   44.3650000000000         5.791806916689097E-110
   44.5550000000000         1.118441231235945E-109
   44.7450000000000         1.889772157485534E-109
   44.9350000000000         2.904940453360562E-109
   45.1250000000000         4.115279714863862E-109
   45.3150000000000         5.364150725302794E-109
   45.5050000000000         6.323109061429165E-109
   45.6950000000000         6.414347765721311E-109
   45.8850000000000         4.728707110831024E-109
   46.0750000000000        -4.076765722165844E-111
   46.2650000000000        -9.614352098785489E-109
   46.4550000000000        -2.603476018067516E-108
   46.6450000000000        -5.139086472466933E-108
   46.8350000000000        -8.725388385113828E-108
   47.0250000000000        -1.337083701082651E-107
   47.2150000000000        -1.878645189887962E-107
   47.4050000000000        -2.417801315021698E-107
   47.5950000000000        -2.798240682537591E-107
   47.7850000000000        -2.757070778371708E-107
   47.9750000000000        -1.897201622749354E-107
   48.1650000000000         3.282229462410919E-108
   48.3550000000000         4.603355121161857E-107
   48.5450000000000         1.168605783025105E-106
   48.7350000000000         2.226302545256230E-106
   48.9250000000000         3.668833856100989E-106
   49.1150000000000         5.457041716246427E-106
   49.3050000000000         7.418274480109531E-106
   49.4950000000000         9.170067777267657E-106
   49.6850000000000         1.003175772602894E-105
   49.8750000000000         8.937580835586026E-106
   50.0650000000000         4.376707057664547E-106
   50.2550000000000        -5.598825989087817E-106
   50.4450000000000        -2.323922476360204E-105
   50.6350000000000        -5.075810523458901E-105
   50.8250000000000        -8.969995606931070E-105
   51.0150000000000        -1.399245309049372E-104
   51.2050000000000        -1.981436069706318E-104
   51.3950000000000        -2.560090776994631E-104
   51.5850000000000        -2.978696531000897E-104
   51.7750000000000        -2.985014780010742E-104
   51.9650000000000        -2.213846973434622E-104
   52.1550000000000        -1.843900990656336E-105
   52.3450000000000         3.674809664760176E-104
   52.5350000000000         9.956574144753835E-104
   52.7250000000000         1.914227059040674E-103
   52.9150000000000         3.138664611585577E-103
   53.1050000000000         4.620702577339208E-103
   53.2950000000000         6.207685893552856E-103
   53.4850000000000         7.594742744596093E-103
   53.6750000000000         8.275818200650123E-103
   53.8650000000000         7.504643576521135E-103
   54.0550000000000         4.282896375229460E-103
   54.2450000000000        -2.600510551781972E-103
   54.4350000000000        -1.444916350863960E-102
   54.6250000000000        -3.242497123663376E-102
   54.8150000000000        -5.716974391665065E-102
   55.0050000000000        -8.826406011580891E-102
   55.1950000000000        -1.235299688018680E-101
   55.3850000000000        -1.582256660129812E-101
   55.5750000000000        -1.842401965521522E-101
   55.7650000000000        -1.894728091985261E-101
   55.9550000000000        -1.576677169113101E-101
   56.1450000000000        -6.905591403672705E-102
   56.3350000000000         9.779277205905162E-102
   56.5250000000000         3.625160972567301E-101
   56.7150000000000         7.376303190194782E-101
   56.9050000000000         1.221318976787837E-100
   57.0950000000000         1.788786760547214E-100
   57.2850000000000         2.383278257855853E-100
   57.4750000000000         2.908678107288755E-100
   57.6650000000000         3.226482282690817E-100
   57.8550000000000         3.160652508023544E-100
   58.0450000000000         2.514111336770029E-100
   58.2350000000000         1.099960564450613E-100
   58.4250000000000        -1.211615505313832E-100
   58.6150000000000        -4.433886946011841E-100
   58.8050000000000        -8.401083835540054E-100
   58.9950000000000        -1.272105912182565E-099
   59.1850000000000        -1.677141148868695E-099
   59.3750000000000        -1.977700857081240E-099
   59.5650000000000        -2.101256624367814E-099
   59.7550000000000        -2.017050112476666E-099
   59.9450000000000        -1.791467557395180E-099
   60.1350000000000        -1.659664754910891E-099
   60.3250000000000        -2.103445229452684E-099
   60.5150000000000        -3.913910187238064E-099
   60.7050000000000        -8.202143885722702E-099
   60.8950000000000        -1.630336128053771E-098
   61.0850000000000        -2.950247581513152E-098
   61.2750000000000        -4.849731969165658E-098
   61.4650000000000        -7.251812905080189E-098
   61.6550000000000        -9.804996306737904E-098
   61.8450000000000        -1.171727926162132E-097
   62.0350000000000        -1.156576329651065E-097
   62.2250000000000        -7.115000088700650E-098
   62.4150000000000         4.795912881640559E-098
   62.6050000000000         2.820374731840916E-097
   62.7950000000000         6.767794765142033E-097
   62.9850000000000         1.275183621998155E-096
   63.1750000000000         2.103085176536686E-096
   63.3650000000000         3.146504507973247E-096
   63.5550000000000         4.319724548355296E-096
   63.7450000000000         5.424476570145588E-096
   63.9350000000000         6.103180143805342E-096
   64.1250000000000         5.793098793081881E-096
   64.3150000000000         3.693652824349171E-096
   64.5050000000000        -1.234171430876028E-096
   64.6950000000000        -1.020993514807682E-095
   64.8850000000000        -2.448400885692053E-095
   65.0750000000000        -4.505806114423554E-095
   65.2650000000000        -7.223870220929224E-095
   65.4550000000000        -1.049973901707971E-094
   65.6450000000000        -1.401339703404130E-094
   65.8350000000000        -1.712846598224581E-094
   66.0250000000000        -1.878824606365399E-094
   66.2150000000000        -1.742714652098537E-094
   66.4050000000000        -1.092949160692804E-094
   66.5950000000000         3.318773825945698E-095
   66.7850000000000         2.822646347250926E-094
   66.9750000000000         6.657215003164050E-094
   67.1650000000000         1.202854118261741E-093
   67.3550000000000         1.893726554944797E-093
   67.5450000000000         2.704576550366692E-093
   67.7350000000000         3.549681562111260E-093
   67.9250000000000         4.270984114723175E-093
   68.1150000000000         4.618189371132923E-093
   68.3050000000000         4.233896639080977E-093
   68.4950000000000         2.650528932628032E-093
   68.6850000000000        -6.918286694940923E-094
   68.8750000000000        -6.395462320261775E-093
   69.0650000000000        -1.501043707795961E-092
   69.2550000000000        -2.688326116835534E-092
   69.4450000000000        -4.193977410228036E-092
   69.6350000000000        -5.940022532936521E-092
   69.8250000000000        -7.743665960741268E-092
   70.0150000000000        -9.280106264077913E-092
   70.2050000000000        -1.004777553088524E-091
   70.3950000000000        -9.344479999331839E-092
   70.5850000000000        -6.266474547204210E-092
   70.7750000000000         2.539136055078174E-093
   70.9650000000000         1.135355099866462E-091
   71.1550000000000         2.806674712097400E-091
   71.3450000000000         5.105810172232449E-091
   71.5350000000000         8.024747897782426E-091
   71.7250000000000         1.143265997283254E-090
   71.9150000000000         1.501863203071221E-090
   72.1050000000000         1.823019943432769E-090
   72.2950000000000         2.021616371351440E-090
   72.4850000000000         1.978667153887656E-090
   72.6750000000000         1.540849570079923E-090
   72.8650000000000         5.258258264547207E-091
   73.0550000000000        -1.263994516744621E-090
   73.2450000000000        -4.016469298239091E-090
   73.4350000000000        -7.870989668362621E-090
   73.6250000000000        -1.286430164078638E-089
   73.8150000000000        -1.886077540930177E-089
   74.0050000000000        -2.546951634122922E-089
   74.1950000000000        -3.195421771684699E-089
   74.3850000000000        -3.714613925395072E-089
   74.5750000000000        -3.937585807492986E-089
   74.7650000000000        -3.644505363815988E-089
   74.9550000000000        -2.566485849882329E-089
   75.1450000000000        -3.991247370848156E-090
   75.3350000000000         3.171070310403791E-089
   75.5250000000000         8.424450926842217E-089
   75.7150000000000         1.554809044213417E-088
   75.9050000000000         2.455712903355041E-088
   76.0950000000000         3.519924123749877E-088
   76.2850000000000         4.684686961166971E-088
   76.4750000000000         5.838550719198715E-088
   76.6650000000000         6.811032162359280E-088
   76.8550000000000         7.364737910073766E-088
   77.0450000000000         7.191909618210113E-088
   77.2350000000000         5.917569713793403E-088
   77.4250000000000         3.111479264622319E-088
   77.6150000000000        -1.689067412648796E-088
   77.8050000000000        -8.943994336931801E-088
   77.9950000000000        -1.906169022340734E-087
   78.1850000000000        -3.233627780615721E-087
   78.3750000000000        -4.887079240958800E-087
   78.5650000000000        -6.848597614205454E-087
   78.7550000000000        -9.061332041228409E-087
   78.9450000000000        -1.141687131032287E-086
   79.1350000000000        -1.373994467409580E-086
   79.3250000000000        -1.576926893825782E-086
   79.5150000000000        -1.713287277630689E-086
   79.7050000000000        -1.731592207350201E-086
   79.8950000000000        -1.561924337824598E-086
   80.0850000000000        -1.110784727703420E-086
   80.2750000000000        -2.551384562533046E-087
   80.4650000000000         1.163666795924731E-086
   80.6550000000000         3.344646213010748E-086
   80.8450000000000         6.527982637073152E-086
   81.0350000000000         1.098775990165365E-085
   81.2250000000000         1.701062619852720E-085
   81.4150000000000         2.485233308363583E-085
   81.6050000000000         3.466216515011170E-085
   81.7950000000000         4.636399455675768E-085
   81.9850000000000         5.948284265483904E-085
   82.1750000000000         7.290846480978685E-085
   82.3650000000000         8.459391262890917E-085
   82.5550000000000         9.119877171388848E-085
   82.7450000000000         8.770534028133835E-085
   82.9350000000000         6.706265566661690E-085
   83.1250000000000         1.994855641973781E-085
   83.3150000000000        -6.521680400819603E-085
   83.5050000000000        -2.018240578795422E-084
   83.6950000000000        -4.039640323809613E-084
   83.8850000000000        -6.843839839559045E-084
   84.0750000000000        -1.051224565339965E-083
   84.2650000000000        -1.503275497026517E-083
   84.4550000000000        -2.023575305399090E-083
   84.6450000000000        -2.571357318349814E-083
   84.8350000000000        -3.072637574145268E-083
   85.0250000000000        -3.410174656581800E-083
   85.2150000000000        -3.414122027026388E-083
   85.4050000000000        -2.855438381585843E-083
   85.5950000000000        -1.444991774466408E-083
   85.7850000000000         1.157779617544771E-083
   85.9750000000000         5.321923126326110E-083
   86.1650000000000         1.140239855987316E-082
   86.3550000000000         1.967241301832826E-082
   86.5450000000000         3.022590651342431E-082
   86.7350000000000         4.284734906190432E-082
   86.9250000000000         5.684956030541405E-082
   87.1150000000000         7.088585510577011E-082
   87.3050000000000         8.275077798405518E-082
   87.4950000000000         8.919415587663438E-082
   87.6850000000000         8.578599887998330E-082
   87.8750000000000         6.688427193277837E-082
   88.0650000000000         2.577247204026847E-082
   88.2550000000000        -4.495279656373915E-082
   88.4450000000000        -1.526554550260023E-081
   88.6350000000000        -3.035060454826351E-081
   88.8250000000000        -5.008251827061297E-081
   89.0150000000000        -7.428821356972218E-081
   89.2050000000000        -1.020164355311366E-080
   89.3950000000000        -1.312222406815309E-080
   89.5850000000000        -1.584317894858096E-080
   89.7750000000000        -1.784260486544227E-080
   89.9650000000000        -1.840010211934078E-080
   90.1550000000000        -1.658832274675893E-080
   90.3450000000000        -1.129004233214716E-080
   90.5350000000000        -1.252594663884744E-081
   90.7250000000000         1.480735946248307E-080
   90.9150000000000         3.803588140976324E-080
   91.1050000000000         6.919981213708978E-080
   91.2950000000000         1.083647170877304E-079
   91.4850000000000         1.544946854214679E-079
   91.6750000000000         2.049880977899889E-079
   91.8650000000000         2.551801183220866E-079
   92.0550000000000         2.978638322579610E-079
   92.2450000000000         3.229070535280481E-079
   92.4350000000000         3.170694265129528E-079
   92.6250000000000         2.641520138868187E-079
   92.8150000000000         1.456352734615335E-079
   93.0050000000000        -5.802406907129157E-080
   93.1950000000000        -3.652679253331755E-079
   93.3850000000000        -7.903390787953898E-079
   93.5750000000000        -1.339123564672620E-078
   93.7650000000000        -2.003944343378160E-078
   93.9550000000000        -2.757464311757280E-078
   94.1450000000000        -3.546056875571361E-078
   94.3350000000000        -4.283255711922877E-078
   94.5250000000000        -4.844194809882965E-078
   94.7150000000000        -5.062278578062255E-078
   94.9050000000000        -4.729650819858073E-078
   95.0950000000000        -3.603317586139982E-078
   95.2850000000000        -1.418963821806945E-078
   95.4750000000000         2.085486318981180E-078
   95.6650000000000         7.134767072129407E-078
   95.8550000000000         1.386843523595316E-077
   96.0450000000000         2.228016570970844E-077
   96.2350000000000         3.214562868386807E-077
   96.4250000000000         4.294256427299076E-077
   96.6150000000000         5.376941650714744E-077
   96.8050000000000         6.327214239083920E-077
   96.9950000000000         6.959240163325083E-077
   97.1850000000000         7.035396433762703E-077
   97.3750000000000         6.270741060561797E-077
   97.5650000000000         4.345544748727336E-077
   97.7550000000000         9.281694798484379E-078
   97.9450000000000        -4.289627456999360E-077
   98.1350000000000        -1.154344551444117E-076
   98.3250000000000        -2.093253788585252E-076
   98.5150000000000        -3.234267829386361E-076
   98.7050000000000        -4.535874045015996E-076
   98.8950000000000        -5.917283960710575E-076
   99.0850000000000        -7.249711825747788E-076
   99.2750000000000        -8.349386248738025E-076
   99.4650000000000        -8.973934351679720E-076
   99.6550000000000        -8.824119043466205E-076
   99.8450000000000        -7.553167311018203E-076
   100.035000000000        -4.786032783380646E-076
   100.225000000000        -1.508093257889613E-077
   100.415000000000         6.675933293498980E-076
   100.605000000000         1.590897320548233E-075
   100.795000000000         2.757983840500722E-075
   100.985000000000         4.145008157174671E-075
   101.175000000000         5.691715174106162E-075
   101.365000000000         7.292052533033518E-075
   101.555000000000         8.785908438911175E-075
   101.745000000000         9.953422261093085E-075
   101.935000000000         1.051364873802776E-074
   102.125000000000         1.012962750776719E-074
   102.315000000000         8.422061301450498E-075
   102.505000000000         4.993770644411131E-075
   102.695000000000        -5.332044978861990E-076
   102.885000000000        -8.466621140529995E-075
   103.075000000000        -1.897897558285862E-074
   103.265000000000        -3.202968140753553E-074
   103.455000000000        -4.727777551173362E-074
   103.645000000000        -6.399088357001353E-074
   103.835000000000        -8.095898692429774E-074
   104.025000000000        -9.642455388673586E-074
   104.215000000000        -1.080435799382196E-073
   104.405000000000        -1.128946769606652E-073
   104.595000000000        -1.075551186382261E-073
   104.785000000000        -8.826315893228605E-074
   104.975000000000        -5.118440319354369E-074
   105.165000000000         7.204083392903504E-075
   105.355000000000         8.960546972376122E-074
   105.545000000000         1.972750046288823E-073
   105.735000000000         3.292910046350144E-073
   105.925000000000         4.817623702643797E-073
   106.115000000000         6.470316616449889E-073
   106.305000000000         8.129566008212722E-073
   106.495000000000         9.623772006641704E-073
   106.685000000000         1.072898148733037E-072
   106.875000000000         1.117133486055699E-072
   107.065000000000         1.063569253564553E-072
   107.255000000000         8.781953785035719E-073
   107.445000000000         5.270361605180099E-073
   107.635000000000        -2.033502067438099E-074
   107.825000000000        -7.862803475938752E-073
   108.015000000000        -1.779662092367130E-072
   108.205000000000        -2.989692570994581E-072
   108.395000000000        -4.379425575426003E-072
   108.585000000000        -5.879415234616694E-072
   108.775000000000        -7.382247212811470E-072
   108.965000000000        -8.738820164712097E-072
   109.155000000000        -9.757402646245101E-072
   109.345000000000        -1.020658799581954E-071
   109.535000000000        -9.823289300608342E-072
   109.725000000000        -8.326828775566796E-072
   109.915000000000        -5.439951485925689E-072
   110.105000000000        -9.172066915630024E-073