  -1.42500000000000         0.000000000000000E+000
  -1.23500000000000         0.000000000000000E+000
  -1.04500000000000         0.000000000000000E+000
 -0.855000000000000         0.000000000000000E+000
 -0.665000000000000         0.000000000000000E+000
 -0.475000000000000         0.000000000000000E+000
 -0.285000000000000         0.000000000000000E+000
 -9.499999999999975E-002    0.000000000000000E+000
  9.500000000000020E-002    0.000000000000000E+000
  0.285000000000000         0.000000000000000E+000
  0.475000000000000         0.000000000000000E+000
  0.665000000000000         0.000000000000000E+000
  0.855000000000000         0.000000000000000E+000
   1.04500000000000         0.000000000000000E+000
   1.23500000000000         0.000000000000000E+000
   1.42500000000000         0.000000000000000E+000
   1.61500000000000         0.000000000000000E+000
   1.80500000000000         0.000000000000000E+000
   1.99500000000000         0.000000000000000E+000
   2.18500000000000         0.000000000000000E+000
   2.37500000000000         0.000000000000000E+000
   2.56500000000000         0.000000000000000E+000
   2.75500000000000         0.000000000000000E+000
   2.94500000000000         0.000000000000000E+000
   3.13500000000000         0.000000000000000E+000
   3.32500000000000         0.000000000000000E+000
   3.51500000000000         0.000000000000000E+000
   3.70500000000000         0.000000000000000E+000
   3.89500000000000         0.000000000000000E+000
   4.08500000000000         0.000000000000000E+000
   4.27500000000000         0.000000000000000E+000
   4.46500000000000         0.000000000000000E+000
   4.65500000000000         0.000000000000000E+000
   4.84500000000000         0.000000000000000E+000
   5.03500000000000         0.000000000000000E+000
   5.22500000000000         0.000000000000000E+000
   5.41500000000000         0.000000000000000E+000
   5.60500000000000         0.000000000000000E+000
   5.79500000000000         0.000000000000000E+000
   5.98500000000000         0.000000000000000E+000
   6.17500000000000         0.000000000000000E+000
   6.36500000000000         0.000000000000000E+000
   6.55500000000000         0.000000000000000E+000
   6.74500000000000         0.000000000000000E+000
   6.93500000000000         0.000000000000000E+000
   7.12500000000000        -1.398031912295808E-194
   7.31500000000000         5.173606983039619E-188
   7.50500000000000         2.255918460662558E-186
   7.69500000000000        -1.642609361534064E-184
   7.88500000000000        -1.631434162868164E-182
   8.07500000000000        -6.780506424415142E-181
   8.26500000000000        -1.849187351625835E-179
   8.45500000000000        -3.786287017822427E-178
   8.64500000000000        -6.224808815318611E-177
   8.83500000000000        -8.558948390705643E-176
   9.02500000000000        -1.011611121824696E-174
   9.21500000000000        -1.048195860978286E-173
   9.40500000000000        -9.661920818978776E-173
   9.59500000000000        -8.011503111592442E-172
   9.78500000000000        -6.026924278649877E-171
   9.97500000000000        -4.139948862858327E-170
   10.1650000000000        -2.608488245095764E-169
   10.3550000000000        -1.511643746246069E-168
   10.5450000000000        -8.061601997775753E-168
   10.7350000000000        -3.947206427777439E-167
   10.9250000000000        -1.762014269782332E-166
   11.1150000000000        -7.056911169408269E-166
   11.3050000000000        -2.442026328335576E-165
   11.4950000000000        -6.541684458910834E-165
   11.6850000000000        -6.918697267280056E-165
   11.8750000000000         6.816409846255470E-164
   12.0650000000000         6.909324674401886E-163
   12.2550000000000         4.387582253614123E-162
   12.4450000000000         2.312808387283605E-161
   12.6350000000000         1.089205928190437E-160
   12.8250000000000         4.726928313802169E-160
   13.0150000000000         1.921434276482850E-159
   13.2050000000000         7.387778735864590E-159
   13.3950000000000         2.704242369002625E-158
   13.5850000000000         9.465839049546927E-158
   13.7750000000000         3.178460693145779E-157
   13.9650000000000         1.025981500963454E-156
   14.1550000000000         3.187496055296973E-156
   14.3450000000000         9.533337472288303E-156
   14.5350000000000         2.742185623908825E-155
   14.7250000000000         7.565517006037362E-155
   14.9150000000000         1.991362102734252E-154
   15.1050000000000         4.951017685292580E-154
   15.2950000000000         1.140455269435450E-153
   15.4850000000000         2.333282797018910E-153
   15.6750000000000         3.757559070339918E-153
   15.8650000000000         2.130613363086809E-153
   16.0550000000000        -1.790467217962412E-152
   16.2450000000000        -1.138930740748782E-151
   16.4350000000000        -4.771880324080788E-151
   16.6250000000000        -1.692876819791708E-150
   16.8150000000000        -5.429758786411436E-150
   17.0050000000000        -1.614771957703045E-149
   17.1950000000000        -4.498648518018407E-149
   17.3850000000000        -1.176771472070979E-148
   17.5750000000000        -2.878240177581080E-148
   17.7650000000000        -6.499953087479852E-148
   17.9550000000000        -1.316433756350916E-147
   18.1450000000000        -2.216585321524348E-147
   18.3350000000000        -2.267174488388524E-147
   18.5250000000000         3.381087105728121E-147
   18.7150000000000         3.140991998450242E-146
   18.9050000000000         1.319265974256008E-145
   19.0950000000000         4.419825926240591E-145
   19.2850000000000         1.308691495690304E-144
   19.4750000000000         3.550328601851406E-144
   19.6650000000000         8.956340733815607E-144
   19.8550000000000         2.110681150251651E-143
   20.0450000000000         4.632851198315676E-143
   20.2350000000000         9.355163130530019E-143
   20.4250000000000         1.685860208010030E-142
   20.6150000000000         2.495947323232894E-142
   20.8050000000000         2.090844661681988E-142
   20.9950000000000        -4.011181138153534E-142
   21.1850000000000        -2.889222182904034E-141
   21.3750000000000        -1.068004210959349E-140
   21.5650000000000        -3.205780379561174E-140
   21.7550000000000        -8.578583905931882E-140
   21.9450000000000        -2.118705377394088E-139
   22.1350000000000        -4.906044036746405E-139
   22.3250000000000        -1.072834720316625E-138
   22.5150000000000        -2.220231611461295E-138
   22.7050000000000        -4.339206061126911E-138
   22.8950000000000        -7.951224509736215E-138
   23.0850000000000        -1.344686161949994E-137
   23.2750000000000        -2.027052640809271E-137
   23.4650000000000        -2.479849541556420E-137
   23.6550000000000        -1.550218016386151E-137
   23.8450000000000         3.705341866113079E-137
   24.0350000000000         1.991749634962777E-136
   24.2250000000000         6.068851084795323E-136
   24.4150000000000         1.516732042308542E-135
   24.6050000000000         3.371638334145503E-135
   24.7950000000000         6.856549364683989E-135
   24.9850000000000         1.286334391488613E-134
   25.1750000000000         2.216504228935885E-134
   25.3650000000000         3.436647115539225E-134
   25.5550000000000         4.528472060952006E-134
   25.7450000000000         4.124789430828765E-134
   25.9350000000000        -1.213387383700470E-134
   26.1250000000000        -1.902080570862103E-133
   26.3150000000000        -6.425122148506182E-133
   26.5050000000000        -1.641284368620582E-132
   26.6950000000000        -3.640021680421247E-132
   26.8850000000000        -7.316472239925179E-132
   27.0750000000000        -1.352870101043532E-131
   27.2650000000000        -2.302169247421395E-131
   27.4550000000000        -3.555662918028994E-131
   27.6450000000000        -4.786128204100173E-131
   27.8350000000000        -4.939158036015937E-131
   28.0250000000000        -1.436824150597357E-131
   28.2150000000000         1.119561333035868E-130
   28.4050000000000         4.349370943074473E-130
   28.5950000000000         1.140994080472329E-129
   28.7850000000000         2.533440730895789E-129
   28.9750000000000         5.059560065335064E-129
   29.1650000000000         9.292529973392473E-129
   29.3550000000000         1.579028728041169E-128
   29.5450000000000         2.468289805362235E-128
   29.7350000000000         3.473101014949345E-128
   29.9250000000000         4.144783800636257E-128
   30.1150000000000         3.370419440232548E-128
   30.3050000000000        -1.189342373934148E-128
   30.4950000000000        -1.394875732277356E-127
   30.6850000000000        -4.253500435319539E-127
   30.8750000000000        -9.904680403456767E-127
   31.0650000000000        -2.008836212994037E-126
   31.2550000000000        -3.698608605108842E-126
   31.4450000000000        -6.270472838142269E-126
   31.6350000000000        -9.787290274543682E-126
   31.8250000000000        -1.385983444291097E-125
   32.0150000000000        -1.706666444722085E-125
   32.2050000000000        -1.594950270496953E-125
   32.3950000000000        -3.419420097218283E-126
   32.5850000000000         3.354327246342287E-125
   32.7750000000000         1.168219636401660E-124
   32.9650000000000         2.801905403783127E-124
   33.1550000000000         5.709548625205276E-124
   33.3450000000000         1.047043220105782E-123
   33.5350000000000         1.763629753488168E-123
   33.7250000000000         2.739285827193971E-123
   33.9150000000000         3.886196646382370E-123
   34.1050000000000         4.882755679754369E-123
   34.2950000000000         4.961750467470883E-123
   34.4850000000000         2.587581920416388E-123
   34.6750000000000        -4.990554432248403E-123
   34.8650000000000        -2.228245365047271E-122
   35.0550000000000        -5.608319490080974E-122
   35.2450000000000        -1.157041937826824E-121
   35.4350000000000        -2.123568410677667E-121
   35.6250000000000        -3.567157740365791E-121
   35.8150000000000        -5.531021564919900E-121
   36.0050000000000        -7.880014201009590E-121
   36.1950000000000        -1.009889663717097E-120
   36.3850000000000        -1.096892153098548E-120
   36.5750000000000        -8.092319471373160E-121
   36.7650000000000         2.742243514861988E-121
   36.9550000000000         2.830143241431099E-120
   37.1450000000000         7.858750932514046E-120
   37.3350000000000         1.670839106800028E-119
   37.5250000000000         3.098686966748032E-119
   37.7150000000000         5.224284784800549E-119
   37.9050000000000         8.123885368115959E-119
   38.0950000000000         1.165666267064197E-118
   38.2850000000000         1.522916132142646E-118
   38.4750000000000         1.742902626241764E-118
   38.6650000000000         1.550217013004473E-118
   38.8550000000000         4.675124889838111E-119
   39.0450000000000        -2.261412280503898E-118
   39.2350000000000        -7.739916741633383E-118
   39.4250000000000        -1.744151176402200E-117
   39.6150000000000        -3.312226231757748E-117
   39.8050000000000        -5.651785143099952E-117
   39.9950000000000        -8.867139752836804E-117
   40.1850000000000        -1.286852817373421E-116
   40.3750000000000        -1.716480301227080E-116
   40.5650000000000        -2.054828253714170E-116
   40.7550000000000        -2.065427052633150E-116
   40.9450000000000        -1.340073255418696E-116
   41.1350000000000         7.638813605889952E-117
   41.3250000000000         5.179214324554709E-116
   41.5150000000000         1.315044914764064E-115
   41.7050000000000         2.617498220990392E-115
   41.8950000000000         4.579151401705766E-115
   42.0850000000000         7.311269841191221E-115
   42.2750000000000         1.079672835001038E-114
   42.4650000000000         1.474938397358089E-114
   42.6550000000000         1.840298338482371E-114
   42.8450000000000         2.021922932655438E-114
   43.0350000000000         1.751872394572748E-114
   43.2250000000000         6.066435212500672E-115
   43.4150000000000        -2.030892363443872E-114
   43.6050000000000        -6.990844976479466E-114
   43.7950000000000        -1.529117842535401E-113
   43.9850000000000        -2.802871574193592E-113
   44.1750000000000        -4.613091157934592E-113
   44.3650000000000        -6.989694096760140E-113
   44.5550000000000        -9.824497545736415E-113
   44.7450000000000        -1.275829976861567E-112
   44.9350000000000        -1.502450666706843E-112
   45.1250000000000        -1.525004279543610E-112
   45.3150000000000        -1.122711034712172E-112
   45.5050000000000         3.089755426517812E-114
   45.6950000000000         2.382752839593891E-112
   45.8850000000000         6.496088688927041E-112
   46.0750000000000         1.300982260802767E-111
   46.2650000000000         2.253685933871337E-111
   46.4550000000000         3.546942464888397E-111
   46.6450000000000         5.165384351591708E-111
   46.8350000000000         6.989604196876232E-111
   47.0250000000000         8.726702546035061E-111
   47.2150000000000         9.820105736055924E-111
   47.4050000000000         9.342649969347035E-111
   47.5950000000000         5.885004763101575E-111
   47.7850000000000        -2.536046421170696E-111
   47.9750000000000        -1.850730399875768E-110
   48.1650000000000        -4.512152938632241E-110
   48.3550000000000        -8.565939725553818E-110
   48.5450000000000        -1.429281403498968E-109
   48.7350000000000        -2.181078236394240E-109
   48.9250000000000        -3.089432147861945E-109
   49.1150000000000        -4.071343246529016E-109
   49.3050000000000        -4.948429967874115E-109
   49.4950000000000        -5.403741915092743E-109
   49.6850000000000        -4.933423959282628E-109
   49.8750000000000        -2.800323292807703E-109
   50.0650000000000         1.997579403971958E-109
   50.2550000000000         1.072324530180257E-108
   50.4450000000000         2.483080229019390E-108
   50.6350000000000         4.578859702145198E-108
   50.8250000000000         7.474294797812221E-108
   51.0150000000000         1.119624438428005E-107
   51.2050000000000         1.560015475651606E-107
   51.3950000000000         2.025342133600073E-107
   51.5850000000000         2.428414221200191E-107
   51.7750000000000         2.620012821667106E-107
   51.9650000000000         2.369384253776376E-107
   52.1550000000000         1.346528211061183E-107
   52.3450000000000        -8.882346495250074E-108
   52.5350000000000        -4.878960572553121E-107
   52.7250000000000        -1.124101728062470E-106
   52.9150000000000        -2.058432429570243E-106
   53.1050000000000        -3.337330037542701E-106
   53.2950000000000        -4.970144641201080E-106
   53.4850000000000        -6.895868362838826E-106
   53.6750000000000        -8.937450025606179E-106
   53.8650000000000        -1.074323727359960E-105
   54.0550000000000        -1.171741830984353E-105
   54.2450000000000        -1.094512623399735E-105
   54.4350000000000        -7.123511198884247E-106
   54.6250000000000         1.482098760424519E-106
   54.8150000000000         1.702768891322155E-105
   55.0050000000000         4.198415980186899E-105
   55.1950000000000         7.887979292006054E-105
   55.3850000000000         1.298227332037120E-104
   55.5750000000000         1.957238140340272E-104
   55.7650000000000         2.751361669990521E-104
   55.9550000000000         3.626371780339008E-104
   56.1450000000000         4.467087642102239E-104
   56.3350000000000         5.071343962831043E-104
   56.5250000000000         5.120389550169055E-104
   56.7150000000000         4.148655274801498E-104
   56.9050000000000         1.518275787573826E-104
   57.0950000000000        -3.592898696967292E-104
   57.2850000000000        -1.217670950105801E-103
   57.4750000000000        -2.533508294301155E-103
   57.6650000000000        -4.415086267968787E-103
   57.8550000000000        -6.945817853887084E-103
   58.0450000000000        -1.014758741224517E-102
   58.2350000000000        -1.392644375376939E-102
   58.4250000000000        -1.799689700144273E-102
   58.6150000000000        -2.178218900493954E-102
   58.8050000000000        -2.429047087959722E-102
   58.9950000000000        -2.397154027953841E-102
   59.1850000000000        -1.856653670434845E-102
   59.3750000000000        -4.974756759209894E-103
   59.5650000000000         2.082146661471955E-102
   59.7550000000000         6.371027888861812E-102
   59.9450000000000         1.291900188992345E-101
   60.1350000000000         2.227691040378345E-101
   60.3250000000000         3.488637914732957E-101
   60.5150000000000         5.089985104444252E-101
   60.7050000000000         6.990935907474361E-101
   60.8950000000000         9.056340161008958E-101
   61.0850000000000         1.100572889633594E-100
   61.2750000000000         1.234965259111203E-100
   61.4650000000000         1.231590592588235E-100
   61.6550000000000         9.772507441996033E-101
   61.8450000000000         3.160718292200117E-101
   62.0350000000000        -9.539666711290017E-101
   62.2250000000000        -3.077885001592411E-100
   62.4150000000000        -6.329132052188179E-100
   62.6050000000000        -1.097721581419870E-099
   62.7950000000000        -1.722964810828091E-099
   62.9850000000000        -2.513922071001135E-099
   63.1750000000000        -3.446751649578999E-099
   63.3650000000000        -4.449723600606833E-099
   63.5550000000000        -5.379046046850840E-099
   63.7450000000000        -5.989869954243297E-099
   63.9350000000000        -5.904497728580246E-099
   64.1250000000000        -4.581977722346427E-099
   64.3150000000000        -1.296256640398742E-099
   64.5050000000000         4.866076951151386E-099
   64.6950000000000         1.497279953482882E-098
   64.8850000000000         3.015710144746255E-098
   65.0750000000000         5.144716948217782E-098
   65.2650000000000         7.948537046040611E-098
   65.4550000000000         1.141077335609074E-097
   65.6450000000000         1.537594274401012E-097
   65.8350000000000         1.947352462559265E-097
   66.0250000000000         2.302592409641511E-097
   66.2150000000000         2.494582925537299E-097
   66.4050000000000         2.363440822140051E-097
   66.5950000000000         1.689989268495439E-097
   66.7850000000000         1.926338499700216E-098
   66.9750000000000        -2.466563854233206E-097
   67.1650000000000        -6.661153584985615E-097
   67.3550000000000        -1.275825441213461E-096
   67.5450000000000        -2.104773189747946E-096
   67.7350000000000        -3.163505998983425E-096
   67.9250000000000        -4.429154497722815E-096
   68.1150000000000        -5.825870770239836E-096
   68.3050000000000        -7.200936140705181E-096
   68.4950000000000        -8.297701552470752E-096
   68.6850000000000        -8.727831229142330E-096
   68.8750000000000        -7.947063398799447E-096
   69.0650000000000        -5.240869608029177E-096
   69.2550000000000         2.710989405679250E-097
   69.4450000000000         9.600234221975568E-096
   69.6350000000000         2.380984312637537E-095
   69.8250000000000         4.387584247925660E-095
   70.0150000000000         7.047099332412228E-095
   70.2050000000000         1.036581404272155E-094
   70.3950000000000         1.424829045324773E-094
   70.5850000000000         1.844656143578397E-094
   70.7750000000000         2.250070900527769E-094
   70.9650000000000         2.567441769123800E-094
   71.1550000000000         2.689193019634394E-094
   71.3450000000000         2.468638094330191E-094
   71.5350000000000         1.717365623245738E-094
   71.7250000000000         2.070523379561880E-095
   71.9150000000000        -2.321956503067200E-094
   72.1050000000000        -6.142537144705345E-094
   72.2950000000000        -1.151007970999022E-093
   72.4850000000000        -1.861601327331851E-093
   72.6750000000000        -2.752260426372314E-093
   72.8650000000000        -3.807671456036201E-093
   73.0550000000000        -4.980142475979811E-093
   73.2450000000000        -6.176637130953602E-093
   73.4350000000000        -7.244047722918573E-093
   73.6250000000000        -7.953465479611924E-093
   73.8150000000000        -7.984722722644200E-093
   74.0050000000000        -6.913148869898838E-093
   74.1950000000000        -4.201327018619378E-093
   74.3850000000000         8.003089484583697E-094
   74.5750000000000         8.838903461758875E-093
   74.7650000000000         2.072394233054127E-092
   74.9550000000000         3.726282839291232E-092
   75.1450000000000         5.915669139574686E-092
   75.3350000000000         8.684369948687034E-092
   75.5250000000000         1.202751673517083E-091
   75.7150000000000         1.586084755573757E-091
   75.9050000000000         1.998010707191676E-091
   76.0950000000000         2.400929013158174E-091
   76.2850000000000         2.733724217149780E-091
   76.4750000000000         2.904362864015962E-091
   76.6650000000000         2.781782524477193E-091
   76.8550000000000         2.187823697293146E-091
   77.0450000000000         8.905326558119569E-092
   77.2350000000000        -1.399041642437682E-091
   77.4250000000000        -5.023398818544498E-091
   77.6150000000000        -1.036406257364023E-090
   77.8050000000000        -1.781011821992038E-090
   77.9950000000000        -2.770247787623793E-090
   78.1850000000000        -4.024528246174489E-090
   78.3750000000000        -5.537520455889910E-090
   78.5650000000000        -7.257995712431578E-090
   78.7550000000000        -9.065981541940462E-090
   78.9450000000000        -1.074314006293077E-089
   79.1350000000000        -1.193824965311492E-089
   79.3250000000000        -1.213014933618452E-089
   79.5150000000000        -1.059263019202245E-089
   79.7050000000000        -6.368602587580892E-090
   79.8950000000000         1.735564505239899E-090
   80.0850000000000         1.512046620829214E-089
   80.2750000000000         3.530931632355997E-089
   80.4650000000000         6.378511071685353E-089
   80.6550000000000         1.017225530309909E-088
   80.8450000000000         1.495874388906446E-088
   81.0350000000000         2.065798386002307E-088
   81.2250000000000         2.699074302682031E-088
   81.4150000000000         3.338942300010749E-088
   81.6050000000000         3.889604108041291E-088
   81.7950000000000         4.205533741477063E-088
   81.9850000000000         4.081704970697619E-088
   82.1750000000000         3.246903257304070E-088
   82.3650000000000         1.363193087715295E-088
   82.5550000000000        -1.964402338849862E-088
   82.7450000000000        -7.162989039695888E-088
   82.9350000000000        -1.464586534280400E-087
   83.1250000000000        -2.473942683958570E-087
   83.3150000000000        -3.757719126875538E-087
   83.5050000000000        -5.295678330688125E-087
   83.6950000000000        -7.015889207851859E-087
   83.8850000000000        -8.773248609945699E-087
   84.0750000000000        -1.032583981373666E-086
   84.2650000000000        -1.131141126265650E-086
   84.4550000000000        -1.122762943681366E-086
   84.6450000000000        -9.421398279061198E-087
   84.8350000000000        -5.094354697952979E-087
   85.0250000000000         2.666523562380442E-087
   85.2150000000000         1.482269391463662E-086
   85.4050000000000         3.227078334721489E-086
   85.5950000000000         5.567109394645044E-086
   85.7850000000000         8.520872802347279E-086
   85.9750000000000         1.202827530220340E-085
   86.1650000000000         1.591267203387716E-085
   86.3550000000000         1.983758150339520E-085
   86.5450000000000         2.326125204587922E-085
   86.7350000000000         2.539441574214366E-085
   86.9250000000000         2.516916467602559E-085
   87.1150000000000         2.122981423943489E-085
   87.3050000000000         1.195964376139297E-085
   87.4950000000000        -4.439853284975280E-086
   87.6850000000000        -2.979866742032819E-085
   87.8750000000000        -6.573803223812980E-085
   88.0650000000000        -1.133234887114838E-084
   88.2550000000000        -1.726001694518711E-084
   88.4450000000000        -2.420095691954674E-084
   88.6350000000000        -3.177032069204378E-084
   88.8250000000000        -3.927914086319249E-084
   89.0150000000000        -4.565953987311994E-084
   89.2050000000000        -4.940076865747988E-084
   89.3950000000000        -4.851079766849498E-084
   89.5850000000000        -4.052266283476598E-084
   89.7750000000000        -2.256902747955786E-084
   89.9650000000000         8.448240025809765E-085
   90.1550000000000         5.556519479395478E-084
   90.3450000000000         1.213129359558657E-083
   90.5350000000000         2.071039991434951E-083
   90.7250000000000         3.124392391998588E-083
   90.9150000000000         4.339458054143318E-083
   91.1050000000000         5.642849228435524E-083
   91.2950000000000         6.910058098450270E-083
   91.4850000000000         7.954690980569321E-083
   91.6750000000000         8.520181993646017E-083
   91.8650000000000         8.276370436962206E-083
   92.0550000000000         6.823921100043819E-083
   92.2450000000000         3.710076475590626E-083
   92.4350000000000        -1.540455499287131E-083
   92.6250000000000        -9.375694639945734E-083
   92.8150000000000        -2.014440007030713E-082
   93.0050000000000        -3.399984355007233E-082
   93.1950000000000        -5.077936635509989E-082
   93.3850000000000        -6.986286016318458E-082
   93.5750000000000        -9.001758873149334E-082
   93.7650000000000        -1.092422281449666E-081
   93.9550000000000        -1.246295381159208E-081
   94.1450000000000        -1.322743833241778E-081
   94.3350000000000        -1.272613549796229E-081
   94.5250000000000        -1.037731570510699E-081
   94.7150000000000        -5.536604721042909E-082
   94.9050000000000         2.453955334833783E-082
   95.0950000000000         1.419084717178699E-081
   95.2850000000000         3.010459035918082E-081
   95.4750000000000         5.032437701260187E-081
   95.6650000000000         7.451350431224844E-081
   95.8550000000000         1.016816904536196E-080
   96.0450000000000         1.299861382866518E-080
   96.2350000000000         1.565402893606542E-080
   96.4250000000000         1.772573370981655E-080
   96.6150000000000         1.867642407866584E-080
   96.8050000000000         1.784304003521443E-080
   96.9950000000000         1.445621710664153E-080
   97.1850000000000         7.681851129706942E-081
   97.3750000000000        -3.309758641018431E-081
   97.5650000000000        -1.924247614103155E-080
   97.7550000000000        -4.059756286590839E-080
   97.9450000000000        -6.744134743024572E-080
   98.1350000000000        -9.922123398441257E-080
   98.3250000000000        -1.345395303852569E-079
   98.5150000000000        -1.709215891691918E-079
   98.7050000000000        -2.046030217485036E-079
   98.8950000000000        -2.303698588474754E-079
   99.0850000000000        -2.414947932359495E-079
   99.2750000000000        -2.298210298520761E-079
   99.4650000000000        -1.860514035707770E-079
   99.6550000000000        -1.003025757844726E-079
   99.8450000000000         3.701974493983575E-080
   100.035000000000         2.339807252089272E-079
   100.225000000000         4.954902505325225E-079
   100.415000000000         8.213046015647429E-079
   100.605000000000         1.203718984759654E-078
   100.795000000000         1.625077503001695E-078
   100.985000000000         2.055304180195064E-078
   101.175000000000         2.449746176741106E-078
   101.365000000000         2.747712885065714E-078
   101.555000000000         2.872183771034052E-078
   101.745000000000         2.731231987714515E-078
   101.935000000000         2.221755005984000E-078
   102.125000000000         1.236099874069695E-078
   102.315000000000        -3.279008793016280E-079
   102.505000000000        -2.553127214453970E-078
   102.695000000000        -5.485517207593894E-078
   102.885000000000        -9.112868031650376E-078
   103.075000000000        -1.334092712102616E-077
   103.265000000000        -1.796826591920890E-077
   103.455000000000        -2.266219804031360E-077
   103.645000000000        -2.693884613100012E-077
   103.835000000000        -3.015131404029307E-077
   104.025000000000        -3.149069262594369E-077
   104.215000000000        -3.000519971200604E-077
   104.405000000000        -2.464298150167807E-077
   104.595000000000        -1.432381652674654E-077
   104.785000000000         1.956015695062985E-078
   104.975000000000         2.498328749572234E-077
   105.165000000000         5.515225461367810E-077
   105.355000000000         9.225842059087048E-077
   105.545000000000         1.352712326219437E-076
   105.735000000000         1.821015047152743E-076
   105.925000000000         2.293863662855894E-076
   106.115000000000         2.723219069554099E-076
   106.305000000000         3.045807829239221E-076
   106.495000000000         3.183579901607393E-076
   106.685000000000         3.045916951538498E-076
   106.875000000000         2.534061533695625E-076
   107.065000000000         1.548189198621036E-076
   107.255000000000        -2.566776208069539E-079
   107.445000000000        -2.187017962507520E-076
   107.635000000000        -5.035907618637208E-076
   107.825000000000        -8.523507827570409E-076
   108.015000000000        -1.254781078674622E-075
   108.205000000000        -1.691083055783284E-075
   108.395000000000        -2.130111122914324E-075
   108.585000000000        -2.528112125015605E-075
   108.775000000000        -2.828274170710641E-075
   108.965000000000        -2.961445155990867E-075
   109.155000000000        -2.848398311439084E-075
   109.345000000000        -2.404006274885125E-075
   109.535000000000        -1.543625708619824E-075
   109.725000000000        -1.918810513645015E-076
   109.915000000000         1.706139869008893E-075
   110.105000000000         4.171509054949988E-075