  -1.42500000000000         0.000000000000000E+000
  -1.23500000000000         0.000000000000000E+000
  -1.04500000000000         0.000000000000000E+000
 -0.855000000000000         0.000000000000000E+000
 -0.665000000000000         0.000000000000000E+000
 -0.475000000000000         0.000000000000000E+000
 -0.285000000000000         0.000000000000000E+000
 -9.499999999999975E-002    0.000000000000000E+000
  9.500000000000020E-002    0.000000000000000E+000
  0.285000000000000         0.000000000000000E+000
  0.475000000000000         0.000000000000000E+000
  0.665000000000000         0.000000000000000E+000
  0.855000000000000         0.000000000000000E+000
   1.04500000000000         0.000000000000000E+000
   1.23500000000000         0.000000000000000E+000
   1.42500000000000         0.000000000000000E+000
   1.61500000000000         0.000000000000000E+000
   1.80500000000000         0.000000000000000E+000
   1.99500000000000         0.000000000000000E+000
   2.18500000000000         0.000000000000000E+000
   2.37500000000000         0.000000000000000E+000
   2.56500000000000         0.000000000000000E+000
   2.75500000000000         0.000000000000000E+000
   2.94500000000000         0.000000000000000E+000
   3.13500000000000         0.000000000000000E+000
   3.32500000000000         0.000000000000000E+000
   3.51500000000000         0.000000000000000E+000
   3.70500000000000         0.000000000000000E+000
   3.89500000000000         0.000000000000000E+000
   4.08500000000000         0.000000000000000E+000
   4.27500000000000         0.000000000000000E+000
   4.46500000000000         0.000000000000000E+000
   4.65500000000000         0.000000000000000E+000
   4.84500000000000         0.000000000000000E+000
   5.03500000000000         0.000000000000000E+000
   5.22500000000000         0.000000000000000E+000
   5.41500000000000         0.000000000000000E+000
   5.60500000000000         0.000000000000000E+000
   5.79500000000000         0.000000000000000E+000
   5.98500000000000         0.000000000000000E+000
   6.17500000000000         0.000000000000000E+000
   6.36500000000000         0.000000000000000E+000
   6.55500000000000         0.000000000000000E+000
   6.74500000000000         0.000000000000000E+000
   6.93500000000000         0.000000000000000E+000
   7.12500000000000         1.717354714934922E-194
   7.31500000000000        -4.918984581144551E-187
   7.50500000000000        -2.210454781001082E-185
   7.69500000000000         2.986149841457829E-184
   7.88500000000000         6.623443391700216E-182
   8.07500000000000         3.311045781730381E-180
   8.26500000000000         1.028526314788496E-178
   8.45500000000000         2.350282655211331E-177
   8.64500000000000         4.255032111404635E-176
   8.83500000000000         6.374234424886233E-175
   9.02500000000000         8.133882535214170E-174
   9.21500000000000         9.027152146800592E-173
   9.40500000000000         8.849920852929684E-172
   9.59500000000000         7.755698441400968E-171
   9.78500000000000         6.131340957706788E-170
   9.97500000000000         4.402873917178519E-169
   10.1650000000000         2.886043504423509E-168
   10.3550000000000         1.732009599241226E-167
   10.5450000000000         9.523777880581919E-167
   10.7350000000000         4.787551610645045E-166
   10.9250000000000         2.184845491363201E-165
   11.1150000000000         8.906293215903941E-165
   11.3050000000000         3.121365540681614E-164
   11.4950000000000         8.407003124053296E-164
   11.6850000000000         8.593081396201853E-164
   11.8750000000000        -9.145424482654794E-163
   12.0650000000000        -9.127058614504229E-162
   12.2550000000000        -5.734228076030219E-161
   12.4450000000000        -2.980539024538099E-160
   12.6350000000000        -1.377360559797647E-159
   12.8250000000000        -5.832290835742586E-159
   13.0150000000000        -2.298710445336294E-158
   13.2050000000000        -8.511427784060746E-158
   13.3950000000000        -2.978234739901793E-157
   13.5850000000000        -9.887091577611832E-157
   13.7750000000000        -3.122438694294260E-156
   13.9650000000000        -9.397102620205117E-156
   14.1550000000000        -2.697610750839939E-155
   14.3450000000000        -7.387246947351310E-155
   14.5350000000000        -1.927578810500444E-154
   14.7250000000000        -4.777370470576820E-154
   14.9150000000000        -1.116642908032111E-153
   15.1050000000000        -2.422923388409204E-153
   15.2950000000000        -4.699243378733945E-153
   15.4850000000000        -7.268318162305148E-153
   15.6750000000000        -4.234885094705422E-153
   15.8650000000000         3.126122944205464E-152
   16.0550000000000         2.004985611010696E-151
   16.2450000000000         8.490207895506819E-151
   16.4350000000000         3.075980948788460E-150
   16.6250000000000         1.017746693387126E-149
   16.8150000000000         3.149975441833292E-149
   17.0050000000000         9.206286589322959E-149
   17.1950000000000         2.547436404250265E-148
   17.3850000000000         6.661973903367350E-148
   17.5750000000000         1.636750085542084E-147
   17.7650000000000         3.731695766927284E-147
   17.9550000000000         7.699684536185850E-147
   18.1450000000000         1.354314269945263E-146
   18.3350000000000         1.649333780282224E-146
   18.5250000000000        -6.487140111603840E-147
   18.7150000000000        -1.363387604614798E-145
   18.9050000000000        -6.182522828810341E-145
   19.0950000000000        -2.127550477381610E-144
   19.2850000000000        -6.395373188780760E-144
   19.4750000000000        -1.760212662951298E-143
   19.6650000000000        -4.532240217307233E-143
   19.8550000000000        -1.104365299088307E-142
   20.0450000000000        -2.563980772563357E-142
   20.2350000000000        -5.696023027641888E-142
   20.4250000000000        -1.214267270979860E-141
   20.6150000000000        -2.489054895387383E-141
   20.8050000000000        -4.914766137633348E-141
   20.9950000000000        -9.366791862154836E-141
   21.1850000000000        -1.728039516816656E-140
   21.3750000000000        -3.100389794745113E-140
   21.5650000000000        -5.450783603402741E-140
   21.7550000000000        -9.498352702434837E-140
   21.9450000000000        -1.665550654375996E-139
   22.1350000000000        -2.985757435791863E-139
   22.3250000000000        -5.527440953624592E-139
   22.5150000000000        -1.054523702131197E-138
   22.7050000000000        -2.041164539007813E-138
   22.8950000000000        -3.910099305728326E-138
   23.0850000000000        -7.191872614500521E-138
   23.2750000000000        -1.221708310129320E-137
   23.4650000000000        -1.789554697140680E-137
   23.6550000000000        -1.830806781178397E-137
   23.8450000000000         5.516660363639238E-138
   24.0350000000000         1.034668387331842E-136
   24.2250000000000         3.918185733973807E-136
   24.4150000000000         1.117676114227842E-135
   24.6050000000000         2.764798224675444E-135
   24.7950000000000         6.205173785860510E-135
   24.9850000000000         1.286891366310056E-134
   25.1750000000000         2.482164101069964E-134
   25.3650000000000         4.445646121271491E-134
   25.5550000000000         7.315698086948729E-134
   25.7450000000000         1.076839890912803E-133
   25.9350000000000         1.321176306967396E-133
   26.1250000000000         1.020010834541664E-133
   26.3150000000000        -8.375187077781116E-134
   26.5050000000000        -6.275560977511418E-133
   26.6950000000000        -1.895295269506142E-132
   26.8850000000000        -4.485317194182571E-132
   27.0750000000000        -9.266966160637436E-132
   27.2650000000000        -1.729827327250894E-131
   27.4550000000000        -2.943924018739679E-131
   27.6450000000000        -4.533138680316937E-131
   27.8350000000000        -6.121540075097973E-131
   28.0250000000000        -6.583997719485128E-131
   28.2150000000000        -3.358116485078151E-131
   28.4050000000000         8.592173319488714E-131
   28.5950000000000         3.813553683529533E-130
   28.7850000000000         9.938304991624355E-130
   28.9750000000000         2.123720430599672E-129
   29.1650000000000         4.013440249105769E-129
   29.3550000000000         6.874977052989086E-129
   29.5450000000000         1.071059373561762E-128
   29.7350000000000         1.495029568779606E-128
   29.9250000000000         1.780654732608483E-128
   30.1150000000000         1.523978951019379E-128
   30.3050000000000        -5.349432468510391E-130
   30.4950000000000        -4.294341556640721E-128
   30.6850000000000        -1.330062597223851E-127
   30.8750000000000        -3.004652654400115E-127
   31.0650000000000        -5.822739658669846E-127
   31.2550000000000        -1.015208570788826E-126
   31.4450000000000        -1.617277280831271E-126
   31.6350000000000        -2.349811802687276E-126
   31.8250000000000        -3.048678646625670E-126
   32.0150000000000        -3.309327075349613E-126
   32.2050000000000        -2.307467330525993E-126
   32.3950000000000         1.462352707494961E-126
   32.5850000000000         1.053824699121657E-125
   32.7750000000000         2.890886335236353E-125
   32.9650000000000         6.239461190312483E-125
   33.1550000000000         1.187130295231586E-124
   33.3450000000000         2.065878759537751E-124
   33.5350000000000         3.325701685836391E-124
   33.7250000000000         4.930021403434643E-124
   33.9150000000000         6.564986393523293E-124
   34.1050000000000         7.291959151985959E-124
   34.2950000000000         4.908328193983673E-124
   34.4850000000000        -5.147395984570823E-124
   34.6750000000000        -3.153255316887323E-123
   34.8650000000000        -8.950632627483074E-123
   35.0550000000000        -2.040717434302402E-122
   35.2450000000000        -4.129478624427543E-122
   35.4350000000000        -7.671382109384834E-122
   35.6250000000000        -1.324183005429169E-121
   35.8150000000000        -2.124633933424123E-121
   36.0050000000000        -3.135273322314520E-121
   36.1950000000000        -4.132911962151213E-121
   36.3850000000000        -4.491194749306307E-121
   36.5750000000000        -2.823172153141666E-121
   36.7650000000000         3.567472259200749E-121
   36.9550000000000         1.944804402990983E-120
   37.1450000000000         5.257485481515172E-120
   37.3350000000000         1.145393728607390E-119
   37.5250000000000         2.209913443540569E-119
   37.7150000000000         3.901455514661226E-119
   37.9050000000000         6.376553240466273E-119
   38.0950000000000         9.648130993752132E-119
   38.2850000000000         1.335713278367454E-118
   38.4750000000000         1.637812634784892E-118
   38.6650000000000         1.619973620062602E-118
   38.8550000000000         8.039129924710838E-119
   39.0450000000000        -1.628821784508315E-118
   39.2350000000000        -6.958490964048805E-118
   39.4250000000000        -1.701619206368988E-117
   39.6150000000000        -3.415760043906016E-117
   39.8050000000000        -6.097780468245745E-117
   39.9950000000000        -9.954366780930478E-117
   40.1850000000000        -1.498301308619785E-116
   40.3750000000000        -2.069710846202661E-116
   40.5650000000000        -2.569223506829513E-116
   40.7550000000000        -2.702662963625724E-116
   40.9450000000000        -1.942883552595251E-116
   41.1350000000000         5.571025068713177E-117
   41.3250000000000         6.034444923945067E-116
   41.5150000000000         1.612365481488836E-115
   41.7050000000000         3.272349943473607E-115
   41.8950000000000         5.760993437079754E-115
   42.0850000000000         9.164658447430126E-115
   42.2750000000000         1.334266648174740E-114
   42.4650000000000         1.772065891910827E-114
   42.6550000000000         2.101020208962216E-114
   42.8450000000000         2.087646712558372E-114
   43.0350000000000         1.362016186133480E-114
   43.2250000000000        -5.991397745925364E-115
   43.4150000000000        -4.451573425205724E-114
   43.6050000000000        -1.089119728107969E-113
   43.7950000000000        -2.044681544937470E-113
   43.9850000000000        -3.311116144489651E-113
   44.1750000000000        -4.777572463100361E-113
   44.3650000000000        -6.147588649532898E-113
   44.5550000000000        -6.853995236307069E-113
   44.7450000000000        -5.988746542919142E-113
   44.9350000000000        -2.295305960171696E-113
   45.1250000000000         5.697904838105670E-113
   45.3150000000000         1.928924180357003E-112
   45.5050000000000         3.881675284749325E-112
   45.6950000000000         6.232149245476480E-112
   45.8850000000000         8.355831412306032E-112
   46.0750000000000         8.940014263847563E-112
   46.2650000000000         5.699334289175099E-112
   46.4550000000000        -4.843307577650118E-112
   46.6450000000000        -2.733592705370937E-111
   46.8350000000000        -6.704578051076598E-111
   47.0250000000000        -1.283440287970867E-110
   47.2150000000000        -2.116507867168572E-110
   47.4050000000000        -3.081722536611438E-110
   47.5950000000000        -3.918128046264091E-110
   47.7850000000000        -4.079851747453000E-110
   47.9750000000000        -2.598766284204631E-110
   48.1650000000000         2.056822100608533E-110
   48.3550000000000         1.207973164553360E-109
   48.5450000000000         3.029098804925885E-109
   48.7350000000000         5.983738763768207E-109
   48.9250000000000         1.034180918041015E-108
   49.1150000000000         1.617763894568883E-108
   49.3050000000000         2.311510906054375E-108
   49.4950000000000         2.993969094723739E-108
   49.6850000000000         3.406096636266503E-108
   49.8750000000000         3.084065615056157E-108
   50.0650000000000         1.286098855199702E-108
   50.2550000000000        -3.069314790256022E-108
   50.4450000000000        -1.142183748986658E-107
   50.6350000000000        -2.549257235361820E-107
   50.8250000000000        -4.703644427795582E-107
   51.0150000000000        -7.732263395545727E-107
   51.2050000000000        -1.162218947657213E-106
   51.3950000000000        -1.607756237160549E-106
   51.5850000000000        -2.031508009350843E-106
   51.7750000000000        -2.279711373247496E-106
   51.9650000000000        -2.091880837289000E-106
   52.1550000000000        -1.069495812185428E-106
   52.3450000000000         1.346289534895717E-106
   52.5350000000000         5.872697624082637E-106
   52.7250000000000         1.333617155794162E-105
   52.9150000000000         2.454438820060138E-105
   53.1050000000000         4.003980423461820E-105
   53.2950000000000         5.969051131274208E-105
   53.4850000000000         8.207738842517415E-105
   53.6750000000000         1.036537734357339E-104
   53.8650000000000         1.176931850745582E-104
   54.0550000000000         1.131113883899211E-104
   54.2450000000000         7.336071646730752E-105
   54.4350000000000        -2.424594334756993E-105
   54.6250000000000        -2.082159624286980E-104
   54.8150000000000        -5.107513580505775E-104
   55.0050000000000        -9.627524580663434E-104
   55.1950000000000        -1.584683952931489E-103
   55.3850000000000        -2.371978686989720E-103
   55.5750000000000        -3.273879521919042E-103
   55.7650000000000        -4.165310877431814E-103
   55.9550000000000        -4.812750928472972E-103
   56.1450000000000        -4.837380215080690E-103
   56.3350000000000        -3.682220384976984E-103
   56.5250000000000        -5.946520085312184E-104
   56.7150000000000         5.358495613768884E-103
   56.9050000000000         1.521962303862562E-102
   57.0950000000000         2.998301748584530E-102
   57.2850000000000         5.031762277942480E-102
   57.4750000000000         7.613664470987133E-102
   57.6650000000000         1.059895470271450E-101
   57.8550000000000         1.362735645553336E-101
   58.0450000000000         1.603012436582192E-101
   58.2350000000000         1.673226590536414E-101
   58.4250000000000         1.416894348049484E-101
   58.6150000000000         6.246289606922903E-102
   58.8050000000000        -9.609474651206226E-102
   58.9950000000000        -3.625635156438898E-101
   59.1850000000000        -7.642359914045194E-101
   59.3750000000000        -1.320044804566239E-100
   59.5650000000000        -2.029835969761227E-100
   59.7550000000000        -2.859535301715500E-100
   59.9450000000000        -3.722306112393331E-100
   60.1350000000000        -4.456736916355956E-100
   60.3250000000000        -4.804512296502648E-100
   60.5150000000000        -4.391952501993382E-100
   60.7050000000000        -2.722223419640898E-100
   60.8950000000000         8.122431089279346E-101
   61.0850000000000         6.884862413504362E-100
   61.2750000000000         1.614317705595273E-099
   61.4650000000000         2.905530196887915E-099
   61.6550000000000         4.568154437155933E-099
   61.8450000000000         6.536430862870898E-099
   62.0350000000000         8.634118647690400E-099
   62.2250000000000         1.053051534237866E-098
   62.4150000000000         1.169631671324159E-098
   62.6050000000000         1.136803928846252E-098
   62.7950000000000         8.534037860184259E-099
   62.9850000000000         1.959801675756064E-099
   63.1750000000000        -9.725486777423900E-099
   63.3650000000000        -2.785627982468563E-098
   63.5550000000000        -5.344710665006954E-098
   63.7450000000000        -8.677829775420997E-098
   63.9350000000000        -1.268431775420122E-097
   64.1250000000000        -1.706702630432505E-097
   64.3150000000000        -2.125665859191850E-097
   64.5050000000000        -2.433729826309166E-097
   64.6950000000000        -2.498782336977002E-097
   64.8850000000000        -2.146027343600372E-097
   65.0750000000000        -1.162267049013401E-097
   65.2650000000000         6.900902320671035E-098
   65.4550000000000         3.645768105364509E-097
   65.6450000000000         7.892830806334351E-097
   65.8350000000000         1.351009762115452E-096
   66.0250000000000         2.038553135719770E-096
   66.2150000000000         2.811865556608080E-096
   66.4050000000000         3.591472214596892E-096
   66.5950000000000         4.248433687919824E-096
   66.7850000000000         4.596920377438565E-096
   66.9750000000000         4.392182446509555E-096
   67.1650000000000         3.337316102712972E-096
   67.3550000000000         1.102569374173235E-096
   67.5450000000000        -2.639224356481615E-096
   67.7350000000000        -8.158402045212066E-096
   67.9250000000000        -1.559463863562019E-095
   68.1150000000000        -2.486584849719343E-095
   68.3050000000000        -3.556649460007069E-095
   68.4950000000000        -4.686741593572611E-095
   68.6850000000000        -5.743530236103400E-095
   68.8750000000000        -6.539561092425900E-095
   69.0650000000000        -6.836659130592654E-095
   69.2550000000000        -6.359223085959658E-095
   69.4450000000000        -4.819601336673563E-095
   69.6350000000000        -1.956296905661573E-095
   69.8250000000000         2.416748749689594E-095
   70.0150000000000         8.355193069287938E-095
   70.2050000000000         1.573373652179326E-094
   70.3950000000000         2.421533616008529E-094
   70.5850000000000         3.326051710679284E-094
   70.7750000000000         4.220029300006165E-094
   70.9650000000000         5.039550009829002E-094
   71.1550000000000         5.749805071454300E-094
   71.3450000000000         6.381261108174628E-094
   71.5350000000000         7.072741276973311E-094
   71.7250000000000         8.113795004269627E-094
   71.9150000000000         9.972661945826590E-094
   72.1050000000000         1.328875477729940E-093
   72.2950000000000         1.880064844952863E-093
   72.4850000000000         2.717350769314206E-093
   72.6750000000000         3.868600523919648E-093
   72.8650000000000         5.273935447520638E-093
   73.0550000000000         6.716435547613066E-093
   73.2450000000000         7.733136481553729E-093
   73.4350000000000         7.511816030056511E-093
   73.6250000000000         4.786647745965616E-093
   73.8150000000000        -2.243776690346947E-093
   74.0050000000000        -1.593941387226241E-092
   74.1950000000000        -3.913099250128972E-092
   74.3850000000000        -7.485443022357879E-092
   74.5750000000000        -1.258277450789030E-091
   74.7650000000000        -1.935852848171982E-091
   74.9550000000000        -2.771919110573877E-091
   75.1450000000000        -3.714886581255015E-091
   75.3350000000000        -4.648803830247783E-091
   75.5250000000000        -5.367744910604400E-091
   75.7150000000000        -5.549263412895250E-091
   75.9050000000000        -4.731464441116014E-091
   76.0950000000000        -2.300756249676246E-091
   76.2850000000000         2.499749460229678E-091
   76.4750000000000         1.052818582665530E-090
   76.6650000000000         2.265253575738557E-090
   76.8550000000000         3.959257483852264E-090
   77.0450000000000         6.167826554736409E-090
   77.2350000000000         8.851148448460053E-090
   77.4250000000000         1.185265843131361E-089
   77.6150000000000         1.484604040135298E-089
   77.8050000000000         1.727655065977893E-089
   77.9950000000000         1.830328082741220E-089
   78.1850000000000         1.675316903205297E-089
   78.3750000000000         1.110260547053794E-089
   78.5650000000000        -4.919624997811581E-091
   78.7550000000000        -2.008755119329475E-089
   78.9450000000000        -4.974101098908282E-089
   79.1350000000000        -9.115504271623461E-089
   79.3250000000000        -1.451530708166946E-088
   79.5150000000000        -2.109612413443246E-088
   79.7050000000000        -2.852941376684600E-088
   79.8950000000000        -3.612711172001560E-088
   80.0850000000000        -4.272348983573685E-088
   80.2750000000000        -4.656047471482810E-088
   80.4650000000000        -4.519732941446255E-088
   80.6550000000000        -3.547460550876152E-088
   80.8450000000000        -1.357198512093315E-088
   81.0350000000000         2.479106226536490E-088
   81.2250000000000         8.395570006766271E-088
   81.4150000000000         1.676664518397205E-087
   81.6050000000000         2.781024377398635E-087
   81.7950000000000         4.145596908161459E-087
   81.9850000000000         5.717790967991677E-087
   82.1750000000000         7.379663489537179E-087
   82.3650000000000         8.926257462181114E-087
   82.5550000000000         1.004430960348729E-086
   82.7450000000000         1.029482711621496E-086
   82.9350000000000         9.104512125839070E-087
   83.1250000000000         5.772601268886585E-087
   83.3150000000000        -4.987896910531299E-088
   83.5050000000000        -1.054153751855156E-086
   83.6950000000000        -2.511583540041698E-086
   83.8850000000000        -4.475289916853824E-086
   84.0750000000000        -6.953943094614732E-086
   84.2650000000000        -9.884204754153898E-086
   84.4550000000000        -1.309777444909233E-085
   84.6450000000000        -1.628479234101528E-085
   84.8350000000000        -1.895689117137830E-085
   85.0250000000000        -2.041512224713573E-085
   85.2150000000000        -1.973024255647070E-085
   85.4050000000000        -1.574529958054146E-085
   85.5950000000000        -7.112836799688620E-086
   85.7850000000000         7.619013426496037E-086
   85.9750000000000         2.985630806299361E-085
   86.1650000000000         6.073037239045239E-085
   86.3550000000000         1.007787412980049E-084
   86.5450000000000         1.495310271356024E-084
   86.7350000000000         2.050055810625965E-084
   86.9250000000000         2.631387433606971E-084
   87.1150000000000         3.171900825705410E-084
   87.3050000000000         3.571943507632051E-084
   87.4950000000000         3.695631992711767E-084
   87.6850000000000         3.369751745800638E-084
   87.8750000000000         2.387278865432038E-084
   88.0650000000000         5.175650992220927E-085
   88.2550000000000        -2.474590254436811E-084
   88.4450000000000        -6.798787003777890E-084
   88.6350000000000        -1.259594369628807E-083
   88.8250000000000        -1.988123631061176E-083
   89.0150000000000        -2.847336312702449E-083
   89.2050000000000        -3.791248849534723E-083
   89.3950000000000        -4.737203018843028E-083
   89.5850000000000        -5.557305300186931E-083
   89.7750000000000        -6.071433745506268E-083
   89.9650000000000        -6.043599145819509E-083
   90.1550000000000        -5.183936937540953E-083
   90.3450000000000        -3.159044242975313E-083
   90.5350000000000         3.863237050496406E-084
   90.7250000000000         5.793134209702698E-083
   90.9150000000000         1.333480927288740E-082
   91.1050000000000         2.314496394207390E-082
   91.2950000000000         3.512588955254028E-082
   91.4850000000000         4.883995828062051E-082
   91.6750000000000         6.338952873598613E-082
   91.8650000000000         7.729534100066262E-082
   92.0550000000000         8.838872921036444E-082
   92.2450000000000         9.373901423113594E-082
   92.4350000000000         8.964371998939091E-082
   92.6250000000000         7.171507745838695E-082
   92.8150000000000         3.510063836029399E-082
   93.0050000000000        -2.512259472401324E-082
   93.1950000000000        -1.133439048014967E-081
   93.3850000000000        -2.325768336942191E-081
   93.5750000000000        -3.833688627973469E-081
   93.7650000000000        -5.624792875206053E-081
   93.9550000000000        -7.613800966330733E-081
   94.1450000000000        -9.646849077184544E-081
   94.3350000000000        -1.148672514543526E-080
   94.5250000000000        -1.280141936893549E-080
   94.7150000000000        -1.315910257693440E-080
   94.9050000000000        -1.203335364595578E-080
   95.0950000000000        -8.823021196140095E-081
   95.2850000000000        -2.891381949445944E-081
   95.4750000000000         6.370926263370398E-081
   95.6650000000000         1.945556420471762E-080
   95.8550000000000         3.661682769473951E-080
   96.0450000000000         5.772353255706365E-080
   96.2350000000000         8.208733652293009E-080
   96.4250000000000         1.082777091583854E-079
   96.6150000000000         1.339403363739899E-079
   96.8050000000000         1.556433375378927E-079
   96.9950000000000         1.687838033438532E-079
   97.1850000000000         1.675950617012432E-079
   97.3750000000000         1.453016458572840E-079
   97.5650000000000         9.447272592703386E-080
   97.7550000000000         7.623999225934673E-081
   97.9450000000000        -1.218893087176179E-079
   98.1350000000000        -2.986617410793666E-079
   98.3250000000000        -5.237094285426119E-079
   98.5150000000000        -7.926638593527770E-079
   98.7050000000000        -1.093779469859991E-078
   98.8950000000000        -1.405912187340524E-078
   99.0850000000000        -1.696701954979731E-078
   99.2750000000000        -1.921274307822836E-078
   99.4650000000000        -2.021856961402017E-078
   99.6550000000000        -1.928776687330590E-078
   99.8450000000000        -1.563345776479034E-078
   100.035000000000        -8.431493778148335E-079
   100.225000000000         3.098141488047849E-079
   100.415000000000         1.957828158746318E-078
   100.605000000000         4.132917120281806E-078
   100.795000000000         6.819356509281610E-078
   100.985000000000         9.934000209914511E-078
   101.175000000000         1.330579435756344E-077
   101.365000000000         1.665655019328281E-077
   101.555000000000         1.958581391508002E-077
   101.745000000000         2.156343394530385E-077
   101.935000000000         2.193409294199840E-077
   102.125000000000         1.993852210638961E-077
   102.315000000000         1.475620136815993E-077
   102.505000000000         5.573903414789291E-078
   102.695000000000        -8.316713570155564E-078
   102.885000000000        -2.739128694769993E-077
   103.075000000000        -5.173656244562381E-077
   103.265000000000        -8.087181160826667E-077
   103.455000000000        -1.135589943473602E-076
   103.645000000000        -1.476188652376700E-076
   103.835000000000        -1.797768352775163E-076
   104.025000000000        -2.055690269878640E-076
   104.215000000000        -2.193448299991771E-076
   104.405000000000        -2.144063746227569E-076
   104.595000000000        -1.833264800595833E-076
   104.785000000000        -1.184834351468931E-076
   104.975000000000        -1.284200861467548E-077
   105.165000000000         1.390059757056461E-076
   105.355000000000         3.395523861509660E-076
   105.545000000000         5.868786703516043E-076
   105.735000000000         8.730420940982460E-076
   105.925000000000         1.182476080711240E-075
   106.115000000000         1.490591394307312E-075
   106.305000000000         1.762818078477076E-075
   106.495000000000         1.954375373756849E-075
   106.685000000000         2.011090517014423E-075
   106.875000000000         1.871598053660593E-075
   107.065000000000         1.471228667779947E-075
   107.255000000000         7.478298431654177E-076
   107.445000000000        -3.503600022318449E-076
   107.635000000000        -1.854844569097351E-075
   107.825000000000        -3.765318141137339E-075
   108.015000000000        -6.037048113890639E-075
   108.205000000000        -8.568173032329888E-075
   108.395000000000        -1.118829216823472E-074
   108.585000000000        -1.365011685287866E-074
   108.775000000000        -1.562630290512638E-074
   108.965000000000        -1.671383071949181E-074
   109.155000000000        -1.644837766511229E-074
   109.345000000000        -1.433096242195834E-074
   109.535000000000        -9.868657876140182E-075
   109.725000000000        -2.630300622915090E-075
   109.915000000000         7.683178862686176E-075
   110.105000000000         2.115594041895091E-074