  -1.42500000000000         0.000000000000000E+000
  -1.23500000000000         0.000000000000000E+000
  -1.04500000000000         0.000000000000000E+000
 -0.855000000000000         0.000000000000000E+000
 -0.665000000000000         0.000000000000000E+000
 -0.475000000000000         0.000000000000000E+000
 -0.285000000000000         0.000000000000000E+000
 -9.499999999999975E-002    0.000000000000000E+000
  9.500000000000020E-002    0.000000000000000E+000
  0.285000000000000         0.000000000000000E+000
  0.475000000000000         0.000000000000000E+000
  0.665000000000000         0.000000000000000E+000
  0.855000000000000         0.000000000000000E+000
   1.04500000000000         0.000000000000000E+000
   1.23500000000000         0.000000000000000E+000
   1.42500000000000         0.000000000000000E+000
   1.61500000000000         0.000000000000000E+000
   1.80500000000000         0.000000000000000E+000
   1.99500000000000         0.000000000000000E+000
   2.18500000000000         0.000000000000000E+000
   2.37500000000000         0.000000000000000E+000
   2.56500000000000         0.000000000000000E+000
   2.75500000000000         0.000000000000000E+000
   2.94500000000000         0.000000000000000E+000
   3.13500000000000         0.000000000000000E+000
   3.32500000000000         0.000000000000000E+000
   3.51500000000000         0.000000000000000E+000
   3.70500000000000         0.000000000000000E+000
   3.89500000000000         0.000000000000000E+000
   4.08500000000000         0.000000000000000E+000
   4.27500000000000         0.000000000000000E+000
   4.46500000000000         0.000000000000000E+000
   4.65500000000000         0.000000000000000E+000
   4.84500000000000         0.000000000000000E+000
   5.03500000000000         0.000000000000000E+000
   5.22500000000000         0.000000000000000E+000
   5.41500000000000         0.000000000000000E+000
   5.60500000000000         0.000000000000000E+000
   5.79500000000000         0.000000000000000E+000
   5.98500000000000         0.000000000000000E+000
   6.17500000000000         0.000000000000000E+000
   6.36500000000000         0.000000000000000E+000
   6.55500000000000         0.000000000000000E+000
   6.74500000000000         0.000000000000000E+000
   6.93500000000000         0.000000000000000E+000
   7.12500000000000         2.219353077079117E-194
   7.31500000000000         2.905192980888654E-188
   7.50500000000000         1.271270138760080E-186
   7.69500000000000        -1.885653152268633E-184
   7.88500000000000        -1.688025792930465E-182
   8.07500000000000        -6.899012199683233E-181
   8.26500000000000        -1.863400985448652E-179
   8.45500000000000        -3.774900051682860E-178
   8.64500000000000        -6.123782646193957E-177
   8.83500000000000        -8.281282704172655E-176
   9.02500000000000        -9.591215171668462E-175
   9.21500000000000        -9.697730534969192E-174
   9.40500000000000        -8.680671302102533E-173
   9.59500000000000        -6.949554275343249E-172
   9.78500000000000        -5.012014756764410E-171
   9.97500000000000        -3.270981952527770E-170
   10.1650000000000        -1.934997641424974E-169
   10.3550000000000        -1.035585579483518E-168
   10.5450000000000        -4.976808229397919E-168
   10.7350000000000        -2.109281476985769E-167
   10.9250000000000        -7.545557714112117E-167
   11.1150000000000        -1.989236799098999E-166
   11.3050000000000        -1.206896915602452E-166
   11.4950000000000         2.971838068064808E-165
   11.6850000000000         2.652029312712676E-164
   11.8750000000000         1.567284526185644E-163
   12.0650000000000         7.544015568901324E-163
   12.2550000000000         3.100073994531178E-162
   12.4450000000000         1.082833952458048E-161
   12.6350000000000         3.009898174591997E-161
   12.8250000000000         4.761063290752092E-161
   13.0150000000000        -1.366938887079298E-160
   13.2050000000000        -1.813349630872845E-159
   13.3950000000000        -1.151195364118296E-158
   13.5850000000000        -5.812445499756248E-158
   13.7750000000000        -2.580874632305274E-157
   13.9650000000000        -1.047347111625682E-156
   14.1550000000000        -3.959162611072602E-156
   14.3450000000000        -1.409248280137507E-155
   14.5350000000000        -4.754072211981583E-155
   14.7250000000000        -1.525879741494848E-154
   14.9150000000000        -4.668681461743411E-154
   15.1050000000000        -1.361965654021148E-153
   15.2950000000000        -3.781278712439211E-153
   15.4850000000000        -9.944362074678672E-153
   15.6750000000000        -2.453881426996169E-152
   15.8650000000000        -5.573616456331390E-152
   16.0550000000000        -1.115956996676119E-151
   16.2450000000000        -1.732892586162819E-151
   16.4350000000000        -7.986437973262928E-152
   16.6250000000000         8.829320159630747E-151
   16.8150000000000         5.303148030148180E-150
   17.0050000000000         2.158148068203987E-149
   17.1950000000000         7.500193326646739E-149
   17.3850000000000         2.372439475504315E-148
   17.5750000000000         7.011459452757305E-148
   17.7650000000000         1.960369529002125E-147
   17.9550000000000         5.216494383220652E-147
   18.1450000000000         1.323779306970010E-146
   18.3350000000000         3.200184295413761E-146
   18.5250000000000         7.336733095040082E-146
   18.7150000000000         1.580021048123858E-145
   18.9050000000000         3.136066961895384E-145
   19.0950000000000         5.500295084418264E-145
   19.2850000000000         7.549096186428591E-145
   19.4750000000000         3.552371170588537E-145
   19.6650000000000        -2.647051574263499E-144
   19.8550000000000        -1.419637163592178E-143
   20.0450000000000        -5.034729176483954E-143
   20.2350000000000        -1.514830405949657E-142
   20.4250000000000        -4.133745650320864E-142
   20.6150000000000        -1.051397907064048E-141
   20.8050000000000        -2.525621924096747E-141
   20.9950000000000        -5.767864992427206E-141
   21.1850000000000        -1.255697144207771E-140
   21.3750000000000        -2.605331633680290E-140
   21.5650000000000        -5.134476468909971E-140
   21.7550000000000        -9.538242964943912E-140
   21.9450000000000        -1.644906776486061E-139
   22.1350000000000        -2.549281522809152E-139
   22.3250000000000        -3.263118872561867E-139
   22.5150000000000        -2.366862090727115E-139
   22.7050000000000         4.019627673828417E-139
   22.8950000000000         2.522271302845408E-138
   23.0850000000000         8.178453532701253E-138
   23.2750000000000         2.158783526040853E-137
   23.4650000000000         5.087016965926997E-137
   23.6550000000000         1.106682677125494E-136
   23.8450000000000         2.254871393711458E-136
   24.0350000000000         4.325136966433928E-136
   24.2250000000000         7.800225378722782E-136
   24.4150000000000         1.311683887019381E-135
   24.6050000000000         2.015570826981051E-135
   24.7950000000000         2.695491345457020E-135
   24.9850000000000         2.686364352980770E-135
   25.1750000000000         2.799939212155974E-136
   25.3650000000000        -8.346874180384410E-135
   25.5550000000000        -3.098709951581874E-134
   25.7450000000000        -8.234709659716323E-134
   25.9350000000000        -1.882111519367054E-133
   26.1250000000000        -3.902762357752375E-133
   26.3150000000000        -7.493266762163432E-133
   26.5050000000000        -1.340485563367924E-132
   26.6950000000000        -2.226503642665272E-132
   26.8850000000000        -3.381010484840476E-132
   27.0750000000000        -4.510511091122392E-132
   27.2650000000000        -4.689654929604719E-132
   27.4550000000000        -1.681118389610287E-132
   27.6450000000000         9.226933906464502E-132
   27.8350000000000         3.702678746662241E-131
   28.0250000000000         9.746022085589051E-131
   28.2150000000000         2.157113909250673E-130
   28.4050000000000         4.277755936136496E-130
   28.5950000000000         7.766465135109206E-130
   28.7850000000000         1.295129232398597E-129
   28.9750000000000         1.959650729339698E-129
   29.1650000000000         2.587827839087602E-129
   29.3550000000000         2.636423693627481E-129
   29.5450000000000         8.377549387065283E-130
   29.7350000000000        -5.400563660042996E-129
   29.9250000000000        -2.089587996060381E-128
   30.1150000000000        -5.387641018708073E-128
   30.3050000000000        -1.172180771240126E-127
   30.4950000000000        -2.290037002788937E-127
   30.6850000000000        -4.107048238504055E-127
   30.8750000000000        -6.795531856557486E-127
   31.0650000000000        -1.028833297780106E-126
   31.2550000000000        -1.385599769420385E-126
   31.4450000000000        -1.529725178290769E-126
   31.6350000000000        -9.520923650231998E-127
   31.8250000000000         1.374119598035512E-126
   32.0150000000000         7.330522784268780E-126
   32.2050000000000         2.009517883175668E-125
   32.3950000000000         4.461737509914271E-125
   32.5850000000000         8.790883915824247E-125
   32.7750000000000         1.586597717895564E-124
   32.9650000000000         2.652142748139458E-124
   33.1550000000000         4.101897620899479E-124
   33.3450000000000         5.789407345583555E-124
   33.5350000000000         7.176717739294653E-124
   33.7250000000000         6.955201730460618E-124
   33.9150000000000         2.439823228376339E-124
   34.1050000000000        -1.131994243893595E-123
   34.2950000000000        -4.271537127271448E-123
   34.4850000000000        -1.049008680401182E-122
   34.6750000000000        -2.168265374585166E-122
   34.8650000000000        -4.029932088529960E-122
   35.0550000000000        -6.900147215244099E-122
   35.2450000000000        -1.096636510073993E-121
   35.4350000000000        -1.611825889170328E-121
   35.6250000000000        -2.152975203542706E-121
   35.8150000000000        -2.493539052333366E-121
   36.0050000000000        -2.147608151321497E-121
   36.1950000000000        -2.001786900949669E-122
   36.3850000000000         4.919842231818374E-121
   36.5750000000000         1.570503296362490E-120
   36.7650000000000         3.580918328711943E-120
   36.9550000000000         7.011510088220582E-120
   37.1450000000000         1.243484660643685E-119
   37.3350000000000         2.037495228601324E-119
   37.5250000000000         3.100278460982317E-119
   37.7150000000000         4.354689477282588E-119
   37.9050000000000         5.526893798310189E-119
   38.0950000000000         5.982841478741287E-119
   38.2850000000000         4.487446893103537E-119
   38.4750000000000        -1.119837079144806E-119
   38.6650000000000        -1.431344190041461E-118
   38.8550000000000        -4.026171746722536E-118
   39.0450000000000        -8.603222763423238E-118
   39.2350000000000        -1.603041512599891E-117
   39.4250000000000        -2.720445484849831E-117
   39.6150000000000        -4.273002217931332E-117
   39.8050000000000        -6.228876689625313E-117
   39.9950000000000        -8.353904144203253E-117
   40.1850000000000        -1.003633021840250E-116
   40.3750000000000        -1.002951980364998E-116
   40.5650000000000        -6.105550387075776E-117
   40.7550000000000         5.362956434910842E-117
   40.9450000000000         2.982721348668841E-116
   41.1350000000000         7.484406198221522E-116
   41.3250000000000         1.499359555226545E-115
   41.5150000000000         2.655626046514780E-115
   41.7050000000000         4.304926361314709E-115
   41.8950000000000         6.465789493550659E-115
   42.0850000000000         8.996703743810706E-115
   42.2750000000000         1.145244229520373E-114
   42.4650000000000         1.287511507975134E-114
   42.6550000000000         1.151530893057734E-114
   42.8450000000000         4.497029578847851E-115
   43.0350000000000        -1.252533326467049E-114
   43.2250000000000        -4.561259202810595E-114
   43.4150000000000        -1.024973112657929E-113
   43.6050000000000        -1.919409660033437E-113
   43.7950000000000        -3.220328967787738E-113
   43.9850000000000        -4.968096082155420E-113
   44.1750000000000        -7.104325171608570E-113
   44.3650000000000        -9.381116049873183E-113
   44.5550000000000        -1.123111539081562E-112
   44.7450000000000        -1.159687519670437E-112
   44.9350000000000        -8.728871776536591E-113
   45.1250000000000         1.916341866970704E-115
   45.3150000000000         1.833854629029406E-112
   45.5050000000000         5.095488709884128E-112
   45.6950000000000         1.032984328435495E-111
   45.8850000000000         1.806283481451407E-111
   46.0750000000000         2.863159343060405E-111
   46.2650000000000         4.189424315592338E-111
   46.4550000000000         5.678680873757820E-111
   46.6450000000000         7.070284129937317E-111
   46.8350000000000         7.869760267525327E-111
   47.0250000000000         7.256921519625493E-111
   47.2150000000000         3.995270112601970E-111
   47.4050000000000        -3.631323248603241E-111
   47.5950000000000        -1.781192573212493E-110
   47.7850000000000        -4.106854766128593E-110
   47.9750000000000        -7.589732191504196E-110
   48.1650000000000        -1.240857932263119E-109
   48.3550000000000        -1.855919232759087E-109
   48.5450000000000        -2.568826140772319E-109
   48.7350000000000        -3.286786636672438E-109
   48.9250000000000        -3.831579666646621E-109
   49.1150000000000        -3.908498212898855E-109
   49.3050000000000        -3.077282317699155E-109
   49.4950000000000        -7.338972974744395E-110
   49.6850000000000         3.883287739190138E-109
   49.8750000000000         1.164415988104659E-108
   50.0650000000000         2.341076486501801E-108
   50.2550000000000         3.982787163526684E-108
   50.4450000000000         6.099466450640460E-108
   50.6350000000000         8.599997899036102E-108
   50.8250000000000         1.123217331625188E-107
   51.0150000000000         1.351231477500692E-107
   51.2050000000000         1.465266188422952E-107
   51.3950000000000         1.350112643493569E-107
   51.5850000000000         8.515899740583970E-108
   51.7750000000000        -2.194250299385938E-108
   51.9650000000000        -2.072601294648009E-107
   52.1550000000000        -4.909258907671480E-107
   52.3450000000000        -8.875247222132908E-107
   52.5350000000000        -1.399342499102357E-106
   52.7250000000000        -2.007671737388088E-106
   52.9150000000000        -2.662778080454772E-106
   53.1050000000000        -3.273832080170291E-106
   53.2950000000000        -3.700962232808859E-106
   53.4850000000000        -3.752463981085115E-106
   53.6750000000000        -3.190880156437004E-106
   53.8650000000000        -1.751806958869190E-106
   54.0550000000000         8.215816385897980E-107
   54.2450000000000         4.727686985796542E-106
   54.4350000000000         1.004312569760764E-105
   54.6250000000000         1.665739309892312E-105
   54.8150000000000         2.422494388951750E-105
   55.0050000000000         3.216406075860323E-105
   55.1950000000000         3.974073302536495E-105
   55.3850000000000         4.627961235520707E-105
   55.5750000000000         5.153717022063384E-105
   55.7650000000000         5.624682796310908E-105
   55.9550000000000         6.279323287425575E-105
   56.1450000000000         7.588449341408167E-105
   56.3350000000000         1.029615858956628E-104
   56.5250000000000         1.539150639383865E-104
   56.7150000000000         2.394853835344959E-104
   56.9050000000000         3.675393566996686E-104
   57.0950000000000         5.363037409016285E-104
   57.2850000000000         7.236939541311935E-104
   57.4750000000000         8.722342238110821E-104
   57.6650000000000         8.698900505699267E-104
   57.8550000000000         5.286051139078826E-104
   58.0450000000000        -4.353853098434928E-104
   58.2350000000000        -2.412216474779099E-103
   58.4250000000000        -5.888782215360260E-103
   58.6150000000000        -1.140310810167497E-102
   58.8050000000000        -1.944271957967875E-102
   58.9950000000000        -3.026426758617999E-102
   59.1850000000000        -4.361232708254180E-102
   59.3750000000000        -5.832191650284486E-102
   59.5650000000000        -7.180507319314318E-102
   59.7550000000000        -7.945024468470869E-102
   59.9450000000000        -7.400753698121482E-102
   60.1350000000000        -4.509501834359117E-102
   60.3250000000000         2.095921935362954E-102
   60.5150000000000         1.406325283672265E-101
   60.7050000000000         3.316806898260655E-101
   60.8950000000000         6.100935700289219E-101
   61.0850000000000         9.850323383532725E-101
   61.2750000000000         1.451310756206216E-100
   61.4650000000000         1.979188141416929E-100
   61.6550000000000         2.501646297278962E-100
   61.8450000000000         2.899983924382093E-100
   62.0350000000000         2.989522971195389E-100
   62.2250000000000         2.508493169276818E-100
   62.4150000000000         1.114699006200491E-100
   62.6050000000000        -1.603750815862498E-100
   62.7950000000000        -6.095799368052868E-100
   62.9850000000000        -1.278394290853610E-099
   63.1750000000000        -2.196086722233871E-099
   63.3650000000000        -3.363883523598005E-099
   63.5550000000000        -4.734855335019290E-099
   63.7450000000000        -6.189164894538322E-099
   63.9350000000000        -7.506228298157544E-099
   64.1250000000000        -8.336917353923989E-099
   64.3150000000000        -8.180921378375910E-099
   64.5050000000000        -6.376684463193864E-099
   64.6950000000000        -2.113710780746521E-099
   64.8850000000000         5.520888188429751E-099
   65.0750000000000         1.744847897140359E-098
   65.2650000000000         3.444476354666535E-098
   65.4550000000000         5.691512978151827E-098
   65.6450000000000         8.459494158908207E-098
   65.8350000000000         1.161798102246818E-097
   66.0250000000000         1.489047878954949E-097
   66.2150000000000         1.781095528510623E-097
   66.4050000000000         1.968481789909782E-097
   66.5950000000000         1.956251959349805E-097
   66.7850000000000         1.623614304058320E-097
   66.9750000000000         8.270957280069088E-098
   67.1650000000000        -5.915428942557145E-098
   67.3550000000000        -2.791458396215898E-097
   67.5450000000000        -5.912055007028406E-097
   67.7350000000000        -1.004510497908835E-096
   67.9250000000000        -1.519997820440062E-096
   68.1150000000000        -2.126313939923739E-096
   68.3050000000000        -2.795391331007904E-096
   68.4950000000000        -3.477915759308310E-096
   68.6850000000000        -4.098965870996357E-096
   68.8750000000000        -4.554049917251696E-096
   69.0650000000000        -4.705610937730067E-096
   69.2550000000000        -4.379815458755979E-096
   69.4450000000000        -3.363107663654801E-096
   69.6350000000000        -1.397677467938231E-096
   69.8250000000000         1.825196366548257E-096
   70.0150000000000         6.674774040479067E-096
   70.2050000000000         1.359339663543473E-095
   70.3950000000000         2.310985594081096E-095
   70.5850000000000         3.584788213681596E-095
   70.7750000000000         5.251837696070822E-095
   70.9650000000000         7.387602445663423E-095
   71.1550000000000         1.006106219566028E-094
   71.3450000000000         1.331315107890397E-094
   71.5350000000000         1.711913520856243E-094
   71.7250000000000         2.132859062080634E-094
   71.9150000000000         2.557636888679101E-094
   72.1050000000000         2.915894204348684E-094
   72.2950000000000         3.087359130744935E-094
   72.4850000000000         2.882398807995741E-094
   72.6750000000000         2.020583867624878E-094
   72.8650000000000         1.101402820853297E-095
   73.0550000000000        -3.366743927084839E-094
   73.2450000000000        -9.055116927052003E-094
   73.4350000000000        -1.770415149510173E-093
   73.6250000000000        -3.010546443938579E-093
   73.8150000000000        -4.697532926994453E-093
   74.0050000000000        -6.876082865766673E-093
   74.1950000000000        -9.534944961687637E-093
   74.3850000000000        -1.256643071982786E-092
   74.5750000000000        -1.571347904725471E-092
   74.7650000000000        -1.850469473479842E-092
   74.9550000000000        -2.018015144237072E-092
   75.1450000000000        -1.961422413074397E-092
   75.3350000000000        -1.524647245915582E-092
   75.5250000000000        -5.037710719595138E-093
   75.7150000000000         1.352421129094562E-092
   75.9050000000000         4.333605224496271E-092
   76.0950000000000         8.746675706386474E-092
   76.2850000000000         1.487716793049112E-091
   76.4750000000000         2.292788741193355E-091
   76.6650000000000         3.292924815879505E-091
   76.8550000000000         4.461658280357423E-091
   77.0450000000000         5.727164418214290E-091
   77.2350000000000         6.952914296722972E-091
   77.4250000000000         7.915499151810775E-091
   77.6150000000000         8.281150800415654E-091
   77.8050000000000         7.583669855587037E-091
   77.9950000000000         5.208026727680228E-091
   78.1850000000000         3.858318334052528E-092
   78.3750000000000        -7.788854717413173E-091
   78.5650000000000        -2.031239670500294E-090
   78.7550000000000        -3.817963729767293E-090
   78.9450000000000        -6.223145673251725E-090
   79.1350000000000        -9.292487478591168E-090
   79.3250000000000        -1.300091576649666E-089
   79.5150000000000        -1.720945751941633E-089
   79.7050000000000        -2.161077901685673E-089
   79.8950000000000        -2.566410271439146E-089
   80.0850000000000        -2.852230799091914E-089
   80.2750000000000        -2.895708848155524E-089
   80.4650000000000        -2.529226482753722E-089
   80.6550000000000        -1.536086134155066E-089
   80.8450000000000         3.491649048118509E-090
   81.0350000000000         3.432764924927240E-089
   81.2250000000000         8.042251000436729E-089
   81.4150000000000         1.449077958381420E-088
   81.6050000000000         2.301997334320107E-088
   81.7950000000000         3.371583582330125E-088
   81.9850000000000         4.639284488656251E-088
   82.1750000000000         6.044306322108496E-088
   82.3650000000000         7.465048871863405E-088
   82.5550000000000         8.697647280469556E-088
   82.7450000000000         9.433043863065875E-088
   82.9350000000000         9.235183959797435E-088
   83.1250000000000         7.524461593522235E-088
   83.3150000000000         3.572425182878727E-088
   83.5050000000000        -3.484079712071096E-088
   83.6950000000000        -1.459886666445443E-087
   83.8850000000000        -3.072987894488378E-087
   84.0750000000000        -5.269607965197095E-087
   84.2650000000000        -8.096339985816023E-087
   84.4550000000000        -1.153471977106421E-086
   84.6450000000000        -1.546236173984013E-086
   84.8350000000000        -1.960514980045588E-086
   85.0250000000000        -2.348213470181656E-086
   85.2150000000000        -2.634695595172622E-086
   85.4050000000000        -2.713254101844293E-086
   85.5950000000000        -2.440955954659503E-086
   85.7850000000000        -1.637353903170922E-086
   85.9750000000000        -8.804318372403479E-088
   86.1650000000000         2.444470967340230E-086
   86.3550000000000         6.199719805082119E-086
   86.5450000000000         1.138493346679548E-085
   86.7350000000000         1.812443163054833E-085
   86.9250000000000         2.639038278690681E-085
   87.1150000000000         3.591393349901826E-085
   87.3050000000000         4.607803601547767E-085
   87.4950000000000         5.579682086916665E-085
   87.6850000000000         6.339125004958167E-085
   87.8750000000000         6.647712581977207E-085
   88.0650000000000         6.188923082930414E-085
   88.2550000000000         4.567409360202400E-085
   88.4450000000000         1.319291746756288E-085
   88.6350000000000        -4.061555858169768E-085
   88.8250000000000        -1.207567552275301E-084
   89.0150000000000        -2.314300021774595E-084
   89.2050000000000        -3.749564653234515E-084
   89.3950000000000        -5.503529978083803E-084
   89.5850000000000        -7.515519766146008E-084
   89.7750000000000        -9.653178514215901E-084
   89.9650000000000        -1.168983213894771E-083
   90.1550000000000        -1.328222402679852E-083
   90.3450000000000        -1.395198349673696E-083
   90.5350000000000        -1.307554349087187E-083
   90.7250000000000        -9.888675870188062E-084
   90.9150000000000        -3.513202014894370E-084
   91.1050000000000         6.985466043238194E-084
   91.2950000000000         2.250080668691154E-083
   91.4850000000000         4.373905740285892E-083
   91.6750000000000         7.101782895249787E-083
   91.8650000000000         1.040068201671812E-082
   92.0550000000000         1.414145196385462E-082
   92.2450000000000         1.806343071275422E-082
   92.4350000000000         2.173761841245470E-082
   92.6250000000000         2.453264684841188E-082
   92.8150000000000         2.558967298205251E-082
   93.0050000000000         2.381439414153032E-082
   93.1950000000000         1.789643952385761E-082
   93.3850000000000         6.368151373563054E-083
   93.5750000000000        -1.228416463401096E-082
   93.7650000000000        -3.944357224627358E-082
   93.9550000000000        -7.610940947693663E-082
   94.1450000000000        -1.225611717514205E-081
   94.3350000000000        -1.779403713771580E-081
   94.5250000000000        -2.397627614991636E-081
   94.7150000000000        -3.033889386137263E-081
   94.9050000000000        -3.615012968021016E-081
   95.0950000000000        -4.036591718627910E-081
   95.2850000000000        -4.160306249807182E-081
   95.4750000000000        -3.814265674869070E-081
   95.6650000000000        -2.797875722798033E-081
   95.8550000000000        -8.929122040660174E-082
   96.0450000000000         2.117476688967808E-081
   96.2350000000000         6.420271620310982E-081
   96.4250000000000         1.213345578072831E-080
   96.6150000000000         1.925592990123758E-080
   96.8050000000000         2.760737762427205E-080
   96.9950000000000         3.676072781543462E-080
   97.1850000000000         4.597211683561248E-080
   97.3750000000000         5.411599430850224E-080
   97.5650000000000         5.963612681345717E-080
   97.7550000000000         6.052651912608344E-080
   97.9450000000000         5.435935208051020E-080
   98.1350000000000         3.837944984266374E-080
   98.3250000000000         9.685911675510174E-081
   98.5150000000000        -3.447938713017906E-080
   98.7050000000000        -9.632056834504036E-080
   98.8950000000000        -1.769456142873181E-079
   99.0850000000000        -2.756974934904788E-079
   99.2750000000000        -3.893804321303072E-079
   99.4650000000000        -5.114266043117011E-079
   99.6550000000000        -6.310773452449449E-079
   99.8450000000000        -7.326862398938910E-079
   100.035000000000        -7.952870572149990E-079
   100.225000000000        -7.926041944118229E-079
   100.415000000000        -6.937123667405464E-079
   100.605000000000        -4.645695543052705E-079
   100.795000000000        -7.064514283302911E-080
   100.985000000000         5.191648672281582E-079
   101.175000000000         1.327210910236716E-078
   101.365000000000         2.360339602947489E-078
   101.555000000000         3.601874803392506E-078
   101.745000000000         5.002707753592777E-078
   101.935000000000         6.472152996797071E-078
   102.125000000000         7.869552906256806E-078
   102.315000000000         8.997968983822862E-078
   102.505000000000         9.601652965560120E-078
   102.695000000000         9.369302488617540E-078
   102.885000000000         7.945318180472672E-078
   103.075000000000         4.951322110218021E-078
   103.265000000000         1.999185926170105E-080
   103.455000000000        -7.157274967453785E-078
   103.645000000000        -1.676830653388632E-077
   103.835000000000        -2.880459409259724E-077
   104.025000000000        -4.297506857042959E-077
   104.215000000000        -5.861455335311483E-077
   104.405000000000        -7.459517553145522E-077
   104.595000000000        -8.925227043399118E-077
   104.785000000000        -1.003396252626497E-076
   104.975000000000        -1.050319152355907E-076
   105.165000000000        -9.999440966608339E-077
   105.355000000000        -8.154087383996202E-077
   105.545000000000        -4.589938386803729E-077
   105.735000000000         1.039822287616641E-077
   105.925000000000         8.999503010096814E-077
   106.115000000000         1.940592152441284E-076
   106.305000000000         3.215251349383225E-076
   106.495000000000         4.682653034455850E-076
   106.685000000000         6.262577994722863E-076
   106.875000000000         7.828410295689908E-076
   107.065000000000         9.201760429249849E-076
   107.255000000000         1.015062863760652E-075
   107.445000000000         1.039277771400016E-075
   107.635000000000         9.606084148110651E-076
   107.825000000000         7.447576920783671E-076
   108.015000000000         3.582596795625858E-076
   108.205000000000        -2.275040732705392E-076
   108.395000000000        -1.031186648079596E-075
   108.585000000000        -2.055377277354430E-075
   108.775000000000        -3.279801009612943E-075
   108.965000000000        -4.654284816035470E-075
   109.155000000000        -6.092171209711672E-075
   109.345000000000        -7.465081753196145E-075
   109.535000000000        -8.600141239264844E-075
   109.725000000000        -9.280940459491423E-075
   109.915000000000        -9.253606476559221E-075
   110.105000000000        -8.239324298853784E-075