  -1.42500000000000         0.000000000000000E+000
  -1.23500000000000         0.000000000000000E+000
  -1.04500000000000         0.000000000000000E+000
 -0.855000000000000         0.000000000000000E+000
 -0.665000000000000         0.000000000000000E+000
 -0.475000000000000         0.000000000000000E+000
 -0.285000000000000         0.000000000000000E+000
 -9.499999999999975E-002    0.000000000000000E+000
  9.500000000000020E-002    0.000000000000000E+000
  0.285000000000000         0.000000000000000E+000
  0.475000000000000         0.000000000000000E+000
  0.665000000000000         0.000000000000000E+000
  0.855000000000000         0.000000000000000E+000
   1.04500000000000         0.000000000000000E+000
   1.23500000000000         0.000000000000000E+000
   1.42500000000000         0.000000000000000E+000
   1.61500000000000         0.000000000000000E+000
   1.80500000000000         0.000000000000000E+000
   1.99500000000000         0.000000000000000E+000
   2.18500000000000         0.000000000000000E+000
   2.37500000000000         0.000000000000000E+000
   2.56500000000000         0.000000000000000E+000
   2.75500000000000         0.000000000000000E+000
   2.94500000000000         0.000000000000000E+000
   3.13500000000000         0.000000000000000E+000
   3.32500000000000         0.000000000000000E+000
   3.51500000000000         0.000000000000000E+000
   3.70500000000000         0.000000000000000E+000
   3.89500000000000         0.000000000000000E+000
   4.08500000000000         0.000000000000000E+000
   4.27500000000000         0.000000000000000E+000
   4.46500000000000         0.000000000000000E+000
   4.65500000000000         0.000000000000000E+000
   4.84500000000000         0.000000000000000E+000
   5.03500000000000         0.000000000000000E+000
   5.22500000000000         0.000000000000000E+000
   5.41500000000000         0.000000000000000E+000
   5.60500000000000         0.000000000000000E+000
   5.79500000000000         0.000000000000000E+000
   5.98500000000000         0.000000000000000E+000
   6.17500000000000         0.000000000000000E+000
   6.36500000000000         0.000000000000000E+000
   6.55500000000000         0.000000000000000E+000
   6.74500000000000         0.000000000000000E+000
   6.93500000000000         0.000000000000000E+000
   7.12500000000000         0.000000000000000E+000
   7.31500000000000        -5.312521266724071E-195
   7.50500000000000         1.965970653555055E-188
   7.69500000000000         8.572490097392504E-187
   7.88500000000000        -6.239949603175887E-185
   8.07500000000000        -6.198592569889280E-183
   8.26500000000000        -2.577216436238072E-181
   8.45500000000000        -7.033110528748063E-180
   8.64500000000000        -1.441366283208760E-178
   8.83500000000000        -2.372460460349820E-177
   9.02500000000000        -3.266814051300232E-176
   9.21500000000000        -3.867846867537346E-175
   9.40500000000000        -4.015812412230489E-174
   9.59500000000000        -3.710208379887307E-173
   9.78500000000000        -3.084529306527433E-172
   9.97500000000000        -2.327333309685826E-171
   10.1650000000000        -1.604025860951439E-170
   10.3550000000000        -1.014498866233249E-169
   10.5450000000000        -5.904648821830210E-169
   10.7350000000000        -3.164858645778111E-168
   10.9250000000000        -1.558984930773730E-167
   11.1150000000000        -7.012140089750675E-167
   11.3050000000000        -2.837524737452515E-166
   11.4950000000000        -9.980914056650258E-166
   11.6850000000000        -2.769592568131370E-165
   11.8750000000000        -3.627196367231446E-165
   12.0650000000000         2.313276484763942E-164
   12.2550000000000         2.589271412600402E-163
   12.4450000000000         1.690414021221006E-162
   12.6350000000000         9.047599012937742E-162
   12.8250000000000         4.308023929245758E-161
   13.0150000000000         1.886708749374202E-160
   13.2050000000000         7.732252643559402E-160
   13.3950000000000         2.996026794565965E-159
   13.5850000000000         1.104934626656592E-158
   13.7750000000000         3.896621518284429E-158
   13.9650000000000         1.318308526061055E-157
   14.1550000000000         4.288391855489568E-157
   14.3450000000000         1.343079353618956E-156
   14.5350000000000         4.051507425018511E-156
   14.7250000000000         1.176338472447249E-155
   14.9150000000000         3.280047204796049E-155
   15.1050000000000         8.743514462837411E-155
   15.2950000000000         2.209391440890785E-154
   15.4850000000000         5.208081470138447E-154
   15.6750000000000         1.107586606956265E-153
   15.8650000000000         1.948680593743014E-153
   16.0550000000000         1.917219684929253E-153
   16.2450000000000        -4.855094834514147E-153
   16.4350000000000        -4.136214846352446E-152
   16.6250000000000        -1.861865471495840E-151
   16.8150000000000        -6.846553399843734E-151
   17.0050000000000        -2.249494885985930E-150
   17.1950000000000        -6.820788779255940E-150
   17.3850000000000        -1.934435925445589E-149
   17.5750000000000        -5.153810471795314E-149
   17.7650000000000        -1.287174860025369E-148
   17.9550000000000        -2.985363220421876E-148
   18.1450000000000        -6.289623134158850E-148
   18.3350000000000        -1.140838744221439E-147
   18.5250000000000        -1.490488619003524E-147
   18.7150000000000         1.439743559552462E-148
   18.9050000000000         1.044528097510739E-146
   19.0950000000000         5.027608137768353E-146
   19.2850000000000         1.783986661722498E-145
   19.4750000000000         5.475788497399991E-145
   19.6650000000000         1.527523534875784E-144
   19.8550000000000         3.950988328589929E-144
   20.0450000000000         9.548111905832054E-144
   20.2350000000000         2.155582288218949E-143
   20.4250000000000         4.509773180184612E-143
   20.6150000000000         8.561851078657064E-143
   20.8050000000000         1.399437300846961E-142
   20.9950000000000         1.650706079304861E-142
   21.1850000000000        -1.248115316513807E-143
   21.3750000000000        -9.328338215730467E-142
   21.5650000000000        -4.070897154810664E-141
   21.7550000000000        -1.311479926390551E-140
   21.9450000000000        -3.666951599735183E-140
   22.1350000000000        -9.362560360488084E-140
   22.3250000000000        -2.230991893937153E-139
   22.5150000000000        -5.013027973251983E-139
   22.7050000000000        -1.066787201749008E-138
   22.8950000000000        -2.150201100553424E-138
   23.0850000000000        -4.088252515448770E-138
   23.2750000000000        -7.260008515963401E-138
   23.4650000000000        -1.179105255052400E-137
   23.6550000000000        -1.668343677387780E-137
   23.8450000000000        -1.768188101279137E-137
   24.0350000000000        -2.603137682648098E-138
   24.2250000000000         5.800460511579415E-137
   24.4150000000000         2.280132035395742E-136
   24.6050000000000         6.343627811930402E-136
   24.7950000000000         1.509235770514865E-135
   24.9850000000000         3.239851539772955E-135
   25.1750000000000         6.397306458171594E-135
   25.3650000000000         1.166256760972931E-134
   25.5550000000000         1.945656549722065E-134
   25.7450000000000         2.887076144134693E-134
   25.9350000000000         3.513076533436994E-134
   26.1250000000000         2.425988938328516E-134
   26.3150000000000        -3.714829635838998E-134
   26.5050000000000        -2.198947522599498E-133
   26.6950000000000        -6.608363564342109E-133
   26.8850000000000        -1.603102990820024E-132
   27.0750000000000        -3.441095807605780E-132
   27.2650000000000        -6.744009374785442E-132
   27.4550000000000        -1.218933894780708E-131
   27.6450000000000        -2.025552846329561E-131
   27.8350000000000        -3.037662612338773E-131
   28.0250000000000        -3.902432900015618E-131
   28.2150000000000        -3.583655789565768E-131
   28.4050000000000         3.519001655206800E-132
   28.5950000000000         1.294395379411723E-130
   28.7850000000000         4.370967522346917E-130
   28.9750000000000         1.092147015681572E-129
   29.1650000000000         2.359729577062014E-129
   29.3550000000000         4.623308405570711E-129
   29.5450000000000         8.360038743618455E-129
   29.7350000000000         1.400280966594720E-128
   29.9250000000000         2.155782260042597E-128
   30.1150000000000         2.975298810836498E-128
   30.3050000000000         3.436541647330966E-128
   30.4950000000000         2.523348708741523E-128
   30.6850000000000        -1.863986135322987E-128
   30.8750000000000        -1.363995294547272E-127
   31.0650000000000        -3.950177166845870E-127
   31.2550000000000        -8.997572903924609E-127
   31.4450000000000        -1.800488986625947E-126
   31.6350000000000        -3.282536968886523E-126
   31.8250000000000        -5.519659290952545E-126
   32.0150000000000        -8.549274057192692E-126
   32.2050000000000        -1.200499178089646E-125
   32.3950000000000        -1.461008508508111E-125
   32.5850000000000        -1.330437141783941E-125
   32.7750000000000        -1.863641548980429E-126
   32.9650000000000         3.108797476542364E-125
   33.1550000000000         1.046087637947784E-124
   33.3450000000000         2.480508225232241E-124
   33.5350000000000         5.024851874349753E-124
   33.7250000000000         9.182301288487278E-124
   33.9150000000000         1.543413801768685E-123
   34.1050000000000         2.394984854474029E-123
   34.2950000000000         3.398860960075343E-123
   34.4850000000000         4.280450032112963E-123
   34.6750000000000         4.382142089833572E-123
   34.8650000000000         2.384039347858571E-123
   35.0550000000000        -4.085190297346051E-123
   35.2450000000000        -1.892757471444913E-122
   35.4350000000000        -4.805278393476537E-122
   35.6250000000000        -9.962317432020045E-122
   35.8150000000000        -1.836047780686654E-121
   36.0050000000000        -3.098019937871567E-121
   36.1950000000000        -4.830453177070298E-121
   36.3850000000000        -6.935600659996532E-121
   36.5750000000000        -8.998643358844775E-121
   36.7650000000000        -1.001068205911833E-120
   36.9550000000000        -7.956590823197220E-121
   37.1450000000000         7.438622583198446E-122
   37.3350000000000         2.190666272035616E-120
   37.5250000000000         6.423574831672092E-120
   37.7150000000000         1.396567674567814E-119
   37.9050000000000         2.627585701391417E-119
   38.0950000000000         4.483644114451878E-119
   38.2850000000000         7.057117516235365E-119
   38.4750000000000         1.027072541659393E-118
   38.6650000000000         1.368014749595406E-118
   38.8550000000000         1.616155006601093E-118
   39.0450000000000         1.545669495409255E-118
   39.2350000000000         7.568183400096120E-119
   39.4250000000000        -1.395498866411430E-118
   39.6150000000000        -5.870956130318749E-118
   39.8050000000000        -1.398195854709087E-117
   39.9950000000000        -2.734773967409856E-117
   40.1850000000000        -4.767708960787071E-117
   40.3750000000000        -7.624814673428853E-117
   40.5650000000000        -1.129033410544997E-116
   40.7550000000000        -1.543316203754270E-116
   40.9450000000000        -1.913895690545594E-116
   41.1350000000000        -2.052544040813374E-116
   41.3250000000000        -1.623620773521776E-116
   41.5150000000000        -8.444259748258529E-118
   41.7050000000000         3.373549902581670E-116
   41.8950000000000         9.862050642280906E-116
   42.0850000000000         2.077432522906358E-115
   42.2750000000000         3.764487603880755E-115
   42.4650000000000         6.180189295910299E-115
   42.6550000000000         9.369253513841496E-115
   42.8450000000000         1.317332298214331E-114
   43.0350000000000         1.705256065793216E-114
   43.2250000000000         1.983043808151974E-114
   43.4150000000000         1.935780603868240E-114
   43.6050000000000         1.211304710043302E-114
   43.7950000000000        -7.207404871939538E-115
   43.9850000000000        -4.599343091591221E-114
   44.1750000000000        -1.137165246912960E-113
   44.3650000000000        -2.212908949174267E-113
   44.5550000000000        -3.793249003681814E-113
   44.7450000000000        -5.946218016554104E-113
   44.9350000000000        -8.641402915755772E-113
   45.1250000000000        -1.165553055004011E-112
   45.3150000000000        -1.443641917802149E-112
   45.5050000000000        -1.592183248194637E-112
   45.6950000000000        -1.431900847181383E-112
   45.8850000000000        -6.867371691489581E-113
   46.0750000000000         1.036612854610896E-112
   46.2650000000000         4.256995421901552E-112
   46.4550000000000         9.600619403321975E-112
   46.6450000000000         1.773537678847746E-111
   46.8350000000000         2.922907993937047E-111
   47.0250000000000         4.429587273660714E-111
   47.2150000000000         6.239054961430370E-111
   47.4050000000000         8.161227453361966E-111
   47.5950000000000         9.789261949782246E-111
   47.7850000000000         1.039752926334056E-110
   47.9750000000000         8.825564309737372E-111
   48.1650000000000         3.364753743812651E-111
   48.3550000000000        -8.320616857065143E-111
   48.5450000000000        -2.918581721329186E-110
   48.7350000000000        -6.263331019002592E-110
   48.9250000000000        -1.120667901962730E-109
   49.1150000000000        -1.800317318087798E-109
   49.3050000000000        -2.667778335643755E-109
   49.4950000000000        -3.680720705879963E-109
   49.6850000000000        -4.721200263378998E-109
   49.8750000000000        -5.555421810407362E-109
   50.0650000000000        -5.785323114645926E-109
   50.2550000000000        -4.796341636898021E-109
   50.4450000000000        -1.710489899960956E-109
   50.6350000000000         4.639363233375658E-109
   50.8250000000000         1.568917696819080E-108
   51.0150000000000         3.304168346506210E-108
   51.2050000000000         5.823490562845498E-108
   51.3950000000000         9.232227153982312E-108
   51.5850000000000         1.351979067052578E-107
   51.7750000000000         1.846020119454304E-107
   51.9650000000000         2.347583939286078E-107
   52.1550000000000         2.746386135889329E-107
   52.3450000000000         2.859264659489330E-107
   52.5350000000000         2.408856969069827E-107
   52.7250000000000         1.005259641919144E-107
   52.9150000000000        -1.862729597567556E-107
   53.1050000000000        -6.816783590447773E-107
   53.2950000000000        -1.454458374022982E-106
   53.4850000000000        -2.570333322701186E-106
   53.6750000000000        -4.074888351901735E-106
   53.8650000000000        -5.966564332431538E-106
   54.0550000000000        -8.157318515869585E-106
   54.2450000000000        -1.041918329017207E-105
   54.4350000000000        -1.231646648478857E-105
   54.6250000000000        -1.312611754574810E-105
   54.8150000000000        -1.175326895582724E-105
   55.0050000000000        -6.655595758723895E-106
   55.1950000000000         4.200711768882994E-106
   55.3850000000000         2.331872555089912E-105
   55.5750000000000         5.353335038629355E-105
   55.7650000000000         9.769377488382951E-105
   55.9550000000000         1.580850938459333E-104
   56.1450000000000         2.354959025367119E-104
   56.3350000000000         3.278344242458185E-104
   56.5250000000000         4.282069731242917E-104
   56.7150000000000         5.224092271522428E-104
   56.9050000000000         5.858558735667486E-104
   57.0950000000000         5.801037070800482E-104
   57.2850000000000         4.493257230819911E-104
   57.4750000000000         1.173887460398430E-104
   57.6650000000000        -5.134074287524464E-104
   57.8550000000000        -1.560344035788296E-103
   58.0450000000000        -3.152818213229539E-103
   58.2350000000000        -5.416427252441460E-103
   58.4250000000000        -8.444866839661908E-103
   58.6150000000000        -1.225524811298969E-102
   58.8050000000000        -1.672209866153893E-102
   58.9950000000000        -2.148562704723664E-102
   59.1850000000000        -2.583128396776353E-102
   59.3750000000000        -2.854091099488906E-102
   59.5650000000000        -2.772169153626328E-102
   59.7550000000000        -2.062875368129563E-102
   59.9450000000000        -3.511785558588436E-103
   60.1350000000000         2.846345350041341E-102
   60.3250000000000         8.114047397578865E-102
   60.5150000000000         1.610316942602658E-101
   60.7050000000000         2.745599079446703E-101
   60.8950000000000         4.266872587442914E-101
   61.0850000000000         6.187008340630104E-101
   61.2750000000000         8.449049568050571E-101
   61.4650000000000         1.087987632525268E-100
   61.6550000000000         1.312909381988586E-100
   61.8450000000000         1.459342915321118E-100
   62.0350000000000         1.433016677092191E-100
   62.2250000000000         1.096835580292097E-100
   62.4150000000000         2.634203764870749E-101
   62.6050000000000        -1.308234599539410E-100
   62.7950000000000        -3.907921632908429E-100
   62.9850000000000        -7.855500880686156E-100
   63.1750000000000        -1.346082550271274E-099
   63.3650000000000        -2.095315714908635E-099
   63.5550000000000        -3.036977518501870E-099
   63.7450000000000        -4.139353212711954E-099
   63.9350000000000        -5.313128101114323E-099
   64.1250000000000        -6.383062349572448E-099
   64.3150000000000        -7.054279635605964E-099
   64.5050000000000        -6.875639872923969E-099
   64.6950000000000        -5.205170394168440E-099
   64.8850000000000        -1.185976049689019E-099
   65.0750000000000         6.254528155867331E-099
   65.2650000000000         1.836394835353854E-098
   65.4550000000000         3.645896893082165E-098
   65.6450000000000         6.172488710668338E-098
   65.8350000000000         9.488755135806009E-098
   66.0250000000000         1.357242806839354E-097
   66.2150000000000         1.823860629244375E-097
   66.4050000000000         2.305184318543528E-097
   66.5950000000000         2.721968141657593E-097
   66.7850000000000         2.947380240571795E-097
   66.9750000000000         2.795169004646203E-097
   67.1650000000000         2.010085975963176E-097
   67.3550000000000         2.639306423516685E-098
   67.5450000000000        -2.838050700647975E-097
   67.7350000000000        -7.734207478690526E-097
   67.9250000000000        -1.485937349678498E-096
   68.1150000000000        -2.456499457003722E-096
   68.3050000000000        -3.699768242369637E-096
   68.4950000000000        -5.192855190471692E-096
   68.6850000000000        -6.852894832308523E-096
   68.8750000000000        -8.509431057545777E-096
   69.0650000000000        -9.872778923852313E-096
   69.2550000000000        -1.050096150859687E-095
   69.4450000000000        -9.769761326436497E-096
   69.6350000000000        -6.852872504246151E-096
   69.8250000000000        -7.220209384138609E-097
   70.0150000000000         9.819947637871350E-096
   70.2050000000000         2.605695652475261E-095
   70.3950000000000         4.921004100021325E-095
   70.5850000000000         8.020046024709397E-095
   70.7750000000000         1.193069744561923E-094
   70.9650000000000         1.657031544671492E-094
   71.1550000000000         2.168697616828967E-094
   71.3450000000000         2.678924892132561E-094
   71.5350000000000         3.106780092674440E-094
   71.7250000000000         3.331523828965942E-094
   71.9150000000000         3.185459981097791E-094
   72.1050000000000         2.449180357800406E-094
   72.2950000000000         8.512958661097604E-095
   72.4850000000000        -1.924649931995876E-094
   72.6750000000000        -6.222789177751270E-094
   72.8650000000000        -1.238323955221066E-093
   73.0550000000000        -2.069194071068883E-093
   73.2450000000000        -3.130778096093395E-093
   73.4350000000000        -4.416316180831252E-093
   73.6250000000000        -5.883516230802453E-093
   73.8150000000000        -7.438633063083783E-093
   74.0050000000000        -8.917710865407249E-093
   74.1950000000000        -1.006562963364534E-092
   74.3850000000000        -1.051421513248261E-092
   74.5750000000000        -9.761512233231163E-093
   74.7650000000000        -7.155431817014240E-093
   74.9550000000000        -1.886414147625480E-093
   75.1450000000000         7.004442972292444E-093
   75.3350000000000         2.059312858275833E-092
   75.5250000000000         4.000504877730317E-092
   75.7150000000000         6.629769217640746E-092
   75.9050000000000         1.002762694891059E-091
   76.0950000000000         1.422220990496911E-091
   76.2850000000000         1.915115719891165E-091
   76.4750000000000         2.461036193013827E-091
   76.6650000000000         3.018773608217232E-091
   76.8550000000000         3.518113552315161E-091
   77.0450000000000         3.850146613188628E-091
   77.2350000000000         3.856515961523705E-091
   77.4250000000000         3.318510789062309E-091
   77.6150000000000         1.947624410476797E-091
   77.8050000000000        -6.198329889209806E-092
   77.9950000000000        -4.820220513092945E-091
   78.1850000000000        -1.114677458189139E-090
   78.3750000000000        -2.011342784855600E-090
   78.5650000000000        -3.218935231427304E-090
   78.7550000000000        -4.769381155579601E-090
   78.9450000000000        -6.664008217364679E-090
   79.1350000000000        -8.851774379493291E-090
   79.3250000000000        -1.120054308554835E-089
   79.5150000000000        -1.346123112724341E-089
   79.7050000000000        -1.522574255851688E-089
   79.8950000000000        -1.588130011052415E-089
   80.0850000000000        -1.456622804652572E-089
   80.2750000000000        -1.013552295137314E-089
   80.4650000000000        -1.148687843572929E-090
   80.6550000000000         1.410281912103119E-089
   80.8450000000000         3.750588230820360E-089
   81.0350000000000         7.094604589947611E-089
   81.2250000000000         1.160062209762913E-088
   81.4150000000000         1.735108694013933E-088
   81.6050000000000         2.428860283766997E-088
   81.7950000000000         3.213158255069622E-088
   81.9850000000000         4.026963105528280E-088
   82.1750000000000         4.764206143934717E-088
   82.3650000000000         5.260786343303827E-088
   82.5550000000000         5.282219517266529E-088
   82.7450000000000         4.514313454540880E-088
   82.9350000000000         2.560283682182094E-088
   83.1250000000000        -1.051115375724639E-088
   83.3150000000000        -6.840698516860466E-088
   83.5050000000000        -1.533044805785168E-087
   83.6950000000000        -2.696427617347534E-087
   83.8850000000000        -4.199082704768874E-087
   84.0750000000000        -6.030262089126899E-087
   84.2650000000000        -8.122901833988805E-087
   84.4550000000000        -1.032859836893637E-086
   84.6450000000000        -1.238940101997799E-086
   84.8350000000000        -1.390872971497963E-086
   85.0250000000000        -1.432525580520012E-086
   85.2150000000000        -1.289545076127506E-086
   85.4050000000000        -8.692632117638210E-087
   85.5950000000000        -6.325530893334028E-088
   85.7850000000000         1.246238358201296E-086
   85.9750000000000         3.174676355958624E-086
   86.1650000000000         5.816982973038586E-086
   86.3550000000000         9.221491728831945E-086
   86.5450000000000         1.335526394432876E-085
   86.7350000000000         1.806076750626605E-085
   86.9250000000000         2.300514192634335E-085
   87.1150000000000         2.762505008315577E-085
   87.3050000000000         3.107247133732861E-085
   87.4950000000000         3.216971471248510E-085
   87.6850000000000         2.938532708903801E-085
   87.8750000000000         2.084622109276040E-085
   88.0650000000000         4.404874838548688E-086
   88.2550000000000        -2.221670461760347E-085
   88.4450000000000        -6.118318955316231E-085
   88.6350000000000        -1.141803409118811E-084
   88.8250000000000        -1.819104081829287E-084
   89.0150000000000        -2.634410761920125E-084
   89.2050000000000        -3.554166597007844E-084
   89.3950000000000        -4.511639970904361E-084
   89.5850000000000        -5.397576908410655E-084
   89.7750000000000        -6.051501158625469E-084
   89.9650000000000        -6.255199952633854E-084
   90.1550000000000        -5.730468037644696E-084
   90.3450000000000        -4.143722550463572E-084
   90.5350000000000        -1.120576471321803E-084
   90.7250000000000         3.726229416989241E-084
   90.9150000000000         1.075211461827284E-083
   91.1050000000000         2.021617002273385E-083
   91.2950000000000         3.219494168632781E-083
   91.4850000000000         4.647439079684487E-083
   91.6750000000000         6.242276741249124E-083
   91.8650000000000         7.885108237269974E-083
   92.0550000000000         9.387297507294762E-083
   92.2450000000000         1.047819825528662E-082
   92.4350000000000         1.079712656801920E-082
   92.6250000000000         9.892825165557514E-083
   92.8150000000000         7.234362604839821E-083
   93.0050000000000         2.237953138840801E-083
   93.1950000000000        -5.685577944187669E-083
   93.3850000000000        -1.705820607609716E-082
   93.5750000000000        -3.223346480619781E-082
   93.7650000000000        -5.126488979406462E-082
   93.9550000000000        -7.374551150128511E-082
   94.1450000000000        -9.862411427811457E-082
   94.3350000000000        -1.240097771644727E-081
   94.5250000000000        -1.469834291703712E-081
   94.7150000000000        -1.634435768438793E-081
   94.9050000000000        -1.680225271103343E-081
   95.0950000000000        -1.541185465715109E-081
   95.2850000000000        -1.140973078575438E-081
   95.4750000000000        -3.972110320662378E-082
   95.6650000000000         7.713532479034325E-082
   95.8550000000000         2.434302131799203E-081
   96.0450000000000         4.635257485140979E-081
   96.2350000000000         7.373775386691970E-081
   96.4250000000000         1.058378848084584E-080
   96.6150000000000         1.410955419642226E-080
   96.8050000000000         1.768082963073886E-080
   96.9950000000000         2.088990940980375E-080
   97.1850000000000         2.317419213126264E-080
   97.3750000000000         2.380901283909237E-080
   97.5650000000000         2.191648384767564E-080
   97.7550000000000         1.649687190550039E-080
   97.9450000000000         6.489409958630448E-081
   98.1350000000000        -9.130840117992971E-081
   98.3250000000000        -3.121465895544633E-080
   98.5150000000000        -6.025586166439057E-080
   98.7050000000000        -9.616486283973919E-080
   98.8950000000000        -1.380050099288219E-079
   99.0850000000000        -1.837054092017798E-079
   99.2750000000000        -2.297730313584827E-079
   99.4650000000000        -2.710374005455687E-079
   99.6550000000000        -3.004725647153780E-079
   99.8450000000000        -3.091523793436683E-079
   100.035000000000        -2.864050616382404E-079
   100.225000000000        -2.202397037642760E-079
   100.415000000000        -9.811876643588187E-080
   100.605000000000         9.185604483032636E-080
   100.795000000000         3.592944477727869E-079
   100.985000000000         7.093854959709705E-079
   101.175000000000         1.140310036246911E-078
   101.365000000000         1.640289043132591E-078
   101.555000000000         2.184440932571882E-078
   101.745000000000         2.731718876125531E-078
   101.935000000000         3.222309087903398E-078
   102.125000000000         3.575985778399451E-078
   102.315000000000         3.692027040049881E-078
   102.505000000000         3.451383444264832E-078
   102.695000000000         2.721838698557372E-078
   102.885000000000         1.366886905379152E-078
   103.075000000000        -7.410511534697700E-079
   103.265000000000        -3.702665400610788E-078
   103.455000000000        -7.568992202769151E-078
   103.645000000000        -1.231430065592996E-077
   103.835000000000        -1.780575373254920E-077
   104.025000000000        -2.377179999124132E-077
   104.215000000000        -2.977221693040781E-077
   104.405000000000        -3.517377588180361E-077
   104.595000000000        -3.913654990104546E-077
   104.785000000000        -4.061682616196729E-077
   104.975000000000        -3.839326393692153E-077
   105.165000000000        -3.112317691359280E-077
   105.355000000000        -1.743540718372385E-077
   105.545000000000         3.935022910937970E-078
   105.735000000000         3.396766121261475E-077
   105.925000000000         7.313359470274219E-077
   106.115000000000         1.211344804011387E-076
   106.305000000000         1.766159193457980E-076
   106.495000000000         2.368751779122291E-076
   106.685000000000         2.975919556068790E-076
   106.875000000000         3.526200220706921E-076
   107.065000000000         3.938862938873127E-076
   107.255000000000         4.114512116182915E-076
   107.445000000000         3.937887563914060E-076
   107.635000000000         3.283445290430057E-076
   107.825000000000         2.024242668831921E-076
   108.015000000000         4.451231595330207E-078
   108.205000000000        -2.743925430131640E-076
   108.395000000000        -6.381603296023176E-076
   108.585000000000        -1.083834769720607E-075
   108.775000000000        -1.598842937108247E-075
   108.965000000000        -2.158578954590651E-075
   109.155000000000        -2.724192096384777E-075
   109.345000000000        -3.240970312937502E-075
   109.535000000000        -3.637714480841125E-075
   109.725000000000        -3.827548082213037E-075
   109.915000000000        -3.710629280359636E-075
   110.105000000000        -3.179214931989658E-075