  -1.42500000000000         0.000000000000000E+000
  -1.23500000000000         0.000000000000000E+000
  -1.04500000000000         0.000000000000000E+000
 -0.855000000000000         0.000000000000000E+000
 -0.665000000000000         0.000000000000000E+000
 -0.475000000000000         0.000000000000000E+000
 -0.285000000000000         0.000000000000000E+000
 -9.499999999999975E-002    0.000000000000000E+000
  9.500000000000020E-002    0.000000000000000E+000
  0.285000000000000         0.000000000000000E+000
  0.475000000000000         0.000000000000000E+000
  0.665000000000000         0.000000000000000E+000
  0.855000000000000         0.000000000000000E+000
   1.04500000000000         0.000000000000000E+000
   1.23500000000000         0.000000000000000E+000
   1.42500000000000         0.000000000000000E+000
   1.61500000000000         0.000000000000000E+000
   1.80500000000000         0.000000000000000E+000
   1.99500000000000         0.000000000000000E+000
   2.18500000000000         0.000000000000000E+000
   2.37500000000000         0.000000000000000E+000
   2.56500000000000         0.000000000000000E+000
   2.75500000000000         0.000000000000000E+000
   2.94500000000000         0.000000000000000E+000
   3.13500000000000         0.000000000000000E+000
   3.32500000000000         0.000000000000000E+000
   3.51500000000000         0.000000000000000E+000
   3.70500000000000         0.000000000000000E+000
   3.89500000000000         0.000000000000000E+000
   4.08500000000000         0.000000000000000E+000
   4.27500000000000         0.000000000000000E+000
   4.46500000000000         0.000000000000000E+000
   4.65500000000000         0.000000000000000E+000
   4.84500000000000         0.000000000000000E+000
   5.03500000000000         0.000000000000000E+000
   5.22500000000000         0.000000000000000E+000
   5.41500000000000         0.000000000000000E+000
   5.60500000000000         0.000000000000000E+000
   5.79500000000000         0.000000000000000E+000
   5.98500000000000         0.000000000000000E+000
   6.17500000000000         0.000000000000000E+000
   6.36500000000000         0.000000000000000E+000
   6.55500000000000         0.000000000000000E+000
   6.74500000000000         0.000000000000000E+000
   6.93500000000000         0.000000000000000E+000
   7.12500000000000         0.000000000000000E+000
   7.31500000000000         8.433541692900645E-195
   7.50500000000000         1.103973332737689E-188
   7.69500000000000         4.830826611623721E-187
   7.88500000000000        -7.164378005288063E-185
   8.07500000000000        -6.414014930474603E-183
   8.26500000000000        -2.622341073680157E-181
   8.45500000000000        -7.087337759635352E-180
   8.64500000000000        -1.437084360713167E-178
   8.83500000000000        -2.334124743313338E-177
   9.02500000000000        -3.161258271192740E-176
   9.21500000000000        -3.668003012667149E-175
   9.40500000000000        -3.716750186000220E-174
   9.59500000000000        -3.335335124925633E-173
   9.78500000000000        -2.677998126490437E-172
   9.97500000000000        -1.937918958819733E-171
   10.1650000000000        -1.269753123225456E-170
   10.3550000000000        -7.546782933296875E-170
   10.5450000000000        -4.062200514359913E-169
   10.7350000000000        -1.966654956504178E-168
   10.9250000000000        -8.421489663981911E-168
   11.1150000000000        -3.063977427013020E-167
   11.3050000000000        -8.401248802974402E-167
   11.4950000000000        -7.650185706302389E-167
   11.6850000000000         1.045285977834884E-165
   11.8750000000000         1.000120953124514E-164
   12.0650000000000         6.060209797288937E-164
   12.2550000000000         2.966738011494954E-163
   12.4450000000000         1.238630215894737E-162
   12.6350000000000         4.411442820490078E-162
   12.8250000000000         1.267624327934435E-161
   13.0150000000000         2.250348332534805E-161
   13.2050000000000        -3.926743442966899E-161
   13.3950000000000        -6.665693764063328E-160
   13.5850000000000        -4.413809818079193E-159
   13.7750000000000        -2.275386227548008E-158
   13.9650000000000        -1.024870458456797E-157
   14.1550000000000        -4.207457646932389E-157
   14.3450000000000        -1.606968838053268E-156
   14.5350000000000        -5.775889229215769E-156
   14.7250000000000        -1.967244324358328E-155
   14.9150000000000        -6.375931940601999E-155
   15.1050000000000        -1.970823387898329E-154
   15.2950000000000        -5.813062679340562E-154
   15.4850000000000        -1.633968249516733E-153
   15.6750000000000        -4.360163856311952E-153
   15.8650000000000        -1.095871767210217E-152
   16.0550000000000        -2.553990639037123E-152
   16.2450000000000        -5.336508354579469E-152
   16.4350000000000        -9.138982466455835E-152
   16.6250000000000        -8.371354784419378E-152
   16.8150000000000         2.441243414014101E-151
   17.0050000000000         1.931482703612116E-150
   17.1950000000000         8.445087000576557E-150
   17.3850000000000         3.043221734486973E-149
   17.5750000000000         9.859778706974056E-149
   17.7650000000000         2.968676765496474E-148
   17.9550000000000         8.435382080905478E-148
   18.1450000000000         2.279135542173495E-147
   18.3350000000000         5.873899574576585E-147
   18.5250000000000         1.443983586474579E-146
   18.7150000000000         3.375348533572890E-146
   18.9050000000000         7.448063569345239E-146
   19.0950000000000         1.529240298877535E-145
   19.2850000000000         2.834918489013464E-145
   19.4750000000000         4.397896849720399E-145
   19.6650000000000         4.184819533837107E-145
   19.8550000000000        -5.660899132480894E-145
   20.0450000000000        -4.976139268266564E-144
   20.2350000000000        -1.969806078388712E-143
   20.4250000000000        -6.253969469435352E-143
   20.6150000000000        -1.767803954960800E-142
   20.8050000000000        -4.620708993786919E-142
   20.9950000000000        -1.136516726652843E-141
   21.1850000000000        -2.653859596501030E-141
   21.3750000000000        -5.908165874642373E-141
   21.5650000000000        -1.255411980448613E-140
   21.7550000000000        -2.541917645650026E-140
   21.9450000000000        -4.879944307127299E-140
   22.1350000000000        -8.792563396297059E-140
   22.3250000000000        -1.456721409380207E-139
   22.5150000000000        -2.119241511203214E-139
   22.7050000000000        -2.356129003856511E-139
   22.8950000000000        -5.917829951484145E-140
   23.0850000000000         7.228501946956036E-139
   23.2750000000000         3.048634042911634E-138
   23.4650000000000         8.926227593650842E-138
   23.6550000000000         2.237929851343423E-137
   23.8450000000000         5.098016932441962E-137
   24.0350000000000         1.080644114744696E-136
   24.2250000000000         2.153353740489089E-136
   24.4150000000000         4.044729758659353E-136
   24.6050000000000         7.137752511162736E-136
   24.7950000000000         1.170389890118735E-135
   24.9850000000000         1.738061962389941E-135
   25.1750000000000         2.191208344251428E-135
   25.3650000000000         1.844459652451867E-135
   25.5550000000000        -9.806038442946486E-136
   25.7450000000000        -9.930638163559250E-135
   25.9350000000000        -3.227250055121668E-134
   26.1250000000000        -8.145087589950730E-134
   26.3150000000000        -1.805774701458069E-133
   26.5050000000000        -3.661950128617176E-133
   26.6950000000000        -6.899619842256183E-133
   26.8850000000000        -1.212266397074521E-132
   27.0750000000000        -1.974745968464999E-132
   27.2650000000000        -2.926260611701029E-132
   27.4550000000000        -3.756814841714791E-132
   27.6450000000000        -3.565085599752939E-132
   27.8350000000000        -2.505799572582833E-133
   28.0250000000000         1.050509363756357E-131
   28.2150000000000         3.678430396798011E-131
   28.4050000000000         9.247542218908916E-131
   28.5950000000000         1.993390295411670E-130
   28.7850000000000         3.876010973232389E-130
   28.9750000000000         6.914881378526341E-130
   29.1650000000000         1.132268374472324E-129
   29.3550000000000         1.674862716705922E-129
   29.5450000000000         2.134109378050767E-129
   29.7350000000000         1.993209593414403E-129
   29.9250000000000         8.189518723442721E-131
   30.1150000000000        -5.947224791615044E-129
   30.3050000000000        -2.039114068385625E-128
   30.4950000000000        -5.049009409873983E-128
   30.6850000000000        -1.074125467898358E-127
   30.8750000000000        -2.065579271618939E-127
   31.0650000000000        -3.656427573390204E-127
   31.2550000000000        -5.975145803183340E-127
   31.4450000000000        -8.921706697187665E-127
   31.6350000000000        -1.178810148068826E-126
   31.8250000000000        -1.253965768427582E-126
   32.0150000000000        -6.566447008153317E-127
   32.2050000000000         1.531632889594553E-126
   32.3950000000000         6.979523255252206E-126
   32.5850000000000         1.848623542726878E-125
   32.7750000000000         4.038488213538435E-125
   32.9650000000000         7.877694870730021E-125
   33.1550000000000         1.411663065646838E-124
   33.3450000000000         2.346490583014804E-124
   33.5350000000000         3.611637856968588E-124
   33.7250000000000         5.073643323946772E-124
   33.9150000000000         6.254614514543623E-124
   34.1050000000000         6.000776150729780E-124
   34.2950000000000         1.953036387747963E-124
   34.4850000000000        -1.023106493290172E-123
   34.6750000000000        -3.790929346749693E-123
   34.8650000000000        -9.262514916713803E-123
   35.0550000000000        -1.910467128316354E-122
   35.2450000000000        -3.548307433464138E-122
   35.4350000000000        -6.077685866597527E-122
   35.6250000000000        -9.673245812311385E-122
   35.8150000000000        -1.425899164005981E-121
   36.0050000000000        -1.914869421117817E-121
   36.1950000000000        -2.241990261508150E-121
   36.3850000000000        -1.990937323353905E-121
   36.5750000000000        -3.724502134171672E-122
   36.7650000000000         3.976975202823556E-121
   36.9550000000000         1.323503943568821E-120
   37.1450000000000         3.062071353806176E-120
   37.3350000000000         6.048745654014826E-120
   37.5250000000000         1.080455322249121E-119
   37.7150000000000         1.782980380574763E-119
   37.9050000000000         2.735237323616504E-119
   38.0950000000000         3.883200023932634E-119
   38.2850000000000         5.008717085538193E-119
   38.4750000000000         5.588429843311979E-119
   38.6650000000000         4.583178995463169E-119
   38.8550000000000         1.493219211544277E-120
   39.0450000000000        -1.071627364208247E-118
   39.2350000000000        -3.254292457985387E-118
   39.4250000000000        -7.163185112087833E-118
   39.6150000000000        -1.359198530041474E-117
   39.8050000000000        -2.340059354022690E-117
   39.9950000000000        -3.726171672099093E-117
   40.1850000000000        -5.514542928819926E-117
   40.3750000000000        -7.539977155092042E-117
   40.5650000000000        -9.325760454206915E-117
   40.7550000000000        -9.860086302180837E-117
   40.9450000000000        -7.287837008940794E-117
   41.1350000000000         1.474254822760758E-117
   41.3250000000000         2.115290654430100E-116
   41.5150000000000         5.844991792136949E-116
   41.7050000000000         1.220666963118626E-115
   41.8950000000000         2.220371196513284E-115
   42.0850000000000         3.677666970667877E-115
   42.2750000000000         5.639118619161352E-115
   42.4650000000000         8.029595042845297E-115
   42.6550000000000         1.053166234946686E-114
   42.8450000000000         1.240541243646468E-114
   43.0350000000000         1.224053358942905E-114
   43.2250000000000         7.645785795889902E-115
   43.4150000000000        -5.092251381251212E-115
   43.6050000000000        -3.130319248511138E-114
   43.7950000000000        -7.802981846252182E-114
   43.9850000000000        -1.536756932610454E-113
   44.1750000000000        -2.668174695844278E-113
   44.3650000000000        -4.236400497821710E-113
   44.5550000000000        -6.232998794796086E-113
   44.7450000000000        -8.504224346331643E-113
   44.9350000000000        -1.063981136954375E-112
   45.1250000000000        -1.182119562141555E-112
   45.3150000000000        -1.063252927044926E-112
   45.5050000000000        -4.852548031103803E-113
   45.6950000000000         8.730327827110430E-113
   45.8850000000000         3.440085644944499E-112
   46.0750000000000         7.736910012226390E-112
   46.2650000000000         1.432009114857404E-111
   46.4550000000000         2.365672241147728E-111
   46.6450000000000         3.589907846885376E-111
   46.8350000000000         5.052380210523908E-111
   47.0250000000000         6.580416748544999E-111
   47.2150000000000         7.810010387981596E-111
   47.4050000000000         8.098619391333748E-111
   47.5950000000000         6.430107553512362E-111
   47.7850000000000         1.330087613126275E-111
   47.9750000000000        -9.175940557776295E-111
   48.1650000000000        -2.751089471458967E-110
   48.3550000000000        -5.632854198377484E-110
   48.5450000000000        -9.803582555943494E-110
   48.7350000000000        -1.539439353331229E-109
   48.9250000000000        -2.229337177529876E-109
   49.1150000000000        -2.995439626656945E-109
   49.3050000000000        -3.714566498431440E-109
   49.4950000000000        -4.164806907382624E-109
   49.6850000000000        -3.993447471471726E-109
   49.8750000000000        -2.689157566490370E-109
   50.0650000000000         4.313332833259743E-110
   50.2550000000000         6.206933082216475E-109
   50.4450000000000         1.556592450472738E-108
   50.6350000000000         2.938490559465023E-108
   50.8250000000000         4.824591652106458E-108
   51.0150000000000         7.206716419640734E-108
   51.2050000000000         9.959271266609081E-108
   51.3950000000000         1.277472793564795E-107
   51.5850000000000         1.508969931188464E-107
   51.7750000000000         1.601076983706986E-107
   51.9650000000000         1.425588419811797E-107
   52.1550000000000         8.134884917407434E-108
   52.3450000000000        -4.399299651033639E-108
   52.5350000000000        -2.559105452669764E-107
   52.7250000000000        -5.757431461692322E-107
   52.9150000000000        -1.018825805474450E-106
   53.1050000000000        -1.587598816742045E-106
   53.2950000000000        -2.262881995939161E-106
   53.4850000000000        -2.993964465209412E-106
   53.6750000000000        -3.688818308751507E-106
   53.8650000000000        -4.206498924655478E-106
   54.0550000000000        -4.354504953121804E-106
   54.2450000000000        -3.894297901991366E-106
   54.4350000000000        -2.557983898519123E-106
   54.6250000000000        -7.791013690046317E-108
   54.8150000000000         3.771825479071671E-106
   55.0050000000000         9.127568541116198E-106
   55.1950000000000         1.599416856734088E-105
   55.3850000000000         2.422904709075487E-105
   55.5750000000000         3.358042126231953E-105
   55.7650000000000         4.381317177459577E-105
   55.9550000000000         5.495421588830094E-105
   56.1450000000000         6.767460026681333E-105
   56.3350000000000         8.379032338565232E-105
   56.5250000000000         1.068000029071646E-104
   56.7150000000000         1.422780476822389E-104
   56.9050000000000         1.978044486502731E-104
   57.0950000000000         2.819430032281129E-104
   57.2850000000000         4.015998701928926E-104
   57.4750000000000         5.569467057979664E-104
   57.6650000000000         7.330488752411034E-104
   57.8550000000000         8.875049250145393E-104
   58.0450000000000         9.339188185260976E-104
   58.2350000000000         7.220585072740056E-104
   58.4250000000000         1.727655811003252E-105
   58.6150000000000        -1.515678734562876E-103
   58.8050000000000        -4.315904520526456E-103
   58.9950000000000        -8.903912174840789E-103
   59.1850000000000        -1.581632620327481E-102
   59.3750000000000        -2.547659646620669E-102
   59.5650000000000        -3.797865447435586E-102
   59.7550000000000        -5.276252427960105E-102
   59.9450000000000        -6.816974745454510E-102
   60.1350000000000        -8.088538833246258E-102
   60.3250000000000        -8.530585442510995E-102
   60.5150000000000        -7.292088497808361E-102
   60.7050000000000        -3.186549364556402E-102
   60.8950000000000         5.311777715582108E-102
   61.0850000000000         1.999700629654261E-101
   61.2750000000000         4.274300657300649E-101
   61.4650000000000         7.514681503237875E-101
   61.6550000000000         1.179521559468497E-100
   61.8450000000000         1.702093743289793E-100
   62.0350000000000         2.281515450733691E-100
   62.2250000000000         2.838112472344039E-100
   62.4150000000000         3.234742855058886E-100
   62.6050000000000         3.261698094700221E-100
   62.7950000000000         2.625317545031130E-100
   62.9850000000000         9.452943348401498E-101
   63.1750000000000        -2.232580760212593E-100
   63.3650000000000        -7.399835209648568E-100
   63.5550000000000        -1.501533814988499E-099
   63.7450000000000        -2.539228548272189E-099
   63.9350000000000        -3.853416474913062E-099
   64.1250000000000        -5.391595301572055E-099
   64.3150000000000        -7.021445069404176E-099
   64.5050000000000        -8.500345425354900E-099
   64.6950000000000        -9.444585165417830E-099
   64.8850000000000        -9.303555522038557E-099
   65.0750000000000        -7.346647653814523E-099
   65.2650000000000        -2.673133512905165E-099
   65.4550000000000         5.742362493918322E-099
   65.6450000000000         1.895461580407175E-098
   65.8350000000000         3.788844029776952E-098
   66.0250000000000         6.310294368945082E-098
   66.2150000000000         9.447225969805753E-098
   66.4050000000000         1.307845737728544E-097
   66.5950000000000         1.692745677146292E-097
   66.7850000000000         2.051221482281469E-097
   66.9750000000000         2.309719112688456E-097
   67.1650000000000         2.365517858924093E-097
   67.3550000000000         2.084932812871280E-097
   67.5450000000000         1.304763668362062E-097
   67.7350000000000        -1.616480897995185E-098
   67.9250000000000        -2.512376223691512E-097
   68.1150000000000        -5.937639807471749E-097
   68.3050000000000        -1.059236919540172E-096
   68.4950000000000        -1.656012686530178E-096
   68.6850000000000        -2.380844908077330E-096
   68.8750000000000        -3.213619717508791E-096
   69.0650000000000        -4.111383876632975E-096
   69.2550000000000        -5.001751873846223E-096
   69.4450000000000        -5.775713750960246E-096
   69.6350000000000        -6.279732786035052E-096
   69.8250000000000        -6.306831188776780E-096
   70.0150000000000        -5.586158166746705E-096
   70.2050000000000        -3.770417053394734E-096
   70.3950000000000        -4.206674452815015E-097
   70.5850000000000         5.011328204113426E-096
   70.7750000000000         1.320152776670857E-095
   70.9650000000000         2.496831144918257E-095
   71.1550000000000         4.127441706022957E-095
   71.3450000000000         6.320034779269164E-095
   71.5350000000000         9.186439116006459E-095
   71.7250000000000         1.282530615852288E-094
   71.9150000000000         1.729130355191286E-094
   72.1050000000000         2.254432633550347E-094
   72.2950000000000         2.837170152843788E-094
   72.4850000000000         3.427629103233419E-094
   72.6750000000000         3.932481699882163E-094
   72.8650000000000         4.195450972930878E-094
   73.0550000000000         3.974335007074594E-094
   73.2450000000000         2.916088280638640E-094
   73.4350000000000         5.333905747948317E-095
   73.6250000000000        -3.811489287500009E-094
   73.8150000000000        -1.090668591217175E-093
   74.0050000000000        -2.166211441007893E-093
   74.1950000000000        -3.703580080208511E-093
   74.3850000000000        -5.789490526449198E-093
   74.5750000000000        -8.478823753743097E-093
   74.7650000000000        -1.176061256440599E-092
   74.9550000000000        -1.551060775296650E-092
   75.1450000000000        -1.942907011250686E-092
   75.3350000000000        -2.296401292264920E-092
   75.5250000000000        -2.522272964698606E-092
   75.7150000000000        -2.487834299609535E-092
   75.9050000000000        -2.008352935642674E-092
   76.0950000000000        -8.410643143009552E-093
   76.2850000000000         1.315383832784183E-092
   76.4750000000000         4.812259499285663E-092
   76.6650000000000         1.002798104931893E-091
   76.8550000000000         1.732537379962778E-091
   77.0450000000000         2.698228251467713E-091
   77.2350000000000         3.908859858884209E-091
   77.4250000000000         5.340335684222444E-091
   77.6150000000000         6.916749536572307E-091
   77.8050000000000         8.487172988380393E-091
   77.9950000000000         9.798544081695388E-091
   78.1850000000000         1.046622314489890E-090
   78.3750000000000         9.945160178389378E-091
   78.5650000000000         7.506458352281901E-091
   78.7550000000000         2.226449430488269E-091
   78.9450000000000        -7.001803820833855E-091
   79.1350000000000        -2.142150412786830E-090
   79.3250000000000        -4.231325623948025E-090
   79.5150000000000        -7.082498404055558E-090
   79.7050000000000        -1.077091948132624E-089
   79.8950000000000        -1.529459443046112E-089
   80.0850000000000        -2.052327851279499E-089
   80.2750000000000        -2.613307146701038E-089
   80.4650000000000        -3.152697213578596E-089
   80.6550000000000        -3.574413210147451E-089
   80.8450000000000        -3.736409944557521E-089
   81.0350000000000        -3.441730546318956E-089
   81.2250000000000        -2.431959273085170E-089
   81.4150000000000        -3.856751661529968E-090
   81.6050000000000         3.074536968764217E-089
   81.7950000000000         8.361914704263400E-089
   81.9850000000000         1.588655458161869E-088
   82.1750000000000         2.599119576115717E-088
   82.3650000000000         3.885491860563099E-088
   82.5550000000000         5.435838147423814E-088
   82.7450000000000         7.190597827141531E-088
   82.9350000000000         9.020394815388847E-088
   83.1250000000000         1.069996773186456E-087
   83.3150000000000         1.187969022092730E-087
   83.5050000000000         1.205748930135847E-087
   83.6950000000000         1.055573993034027E-087
   83.8850000000000         6.509919968865776E-088
   84.0750000000000        -1.121614068715558E-088
   84.2650000000000        -1.351459029888316E-087
   84.4550000000000        -3.188770601481649E-087
   84.6450000000000        -5.734652542892713E-087
   84.8350000000000        -9.064468062620898E-087
   85.0250000000000        -1.318460946706595E-086
   85.2150000000000        -1.798767924931119E-086
   85.4050000000000        -2.319645272872190E-086
   85.5950000000000        -2.829804483631949E-086
   85.7850000000000        -3.247208535642798E-086
   85.9750000000000        -3.451998966836896E-086
   86.1650000000000        -3.280664945457933E-086
   86.3550000000000        -2.523099999247611E-086
   86.5450000000000        -9.247714195267267E-087
   86.7350000000000         1.803174718134673E-086
   86.9250000000000         5.962512600081636E-086
   87.1150000000000         1.183152017715926E-085
   87.3050000000000         1.960980732970858E-085
   87.4950000000000         2.934117386304080E-085
   87.6850000000000         4.081259925999190E-085
   87.8750000000000         5.342984888188184E-085
   88.0650000000000         6.607390707150538E-085
   88.2550000000000         7.694775659701738E-085
   88.4450000000000         8.343006264027445E-085
   88.6350000000000         8.196106523469130E-085
   88.8250000000000         6.799615037922935E-085
   89.0150000000000         3.607349824822986E-085
   89.2050000000000        -1.994725044820525E-085
   89.3950000000000        -1.064099585746817E-084
   89.5850000000000        -2.290813896153897E-084
   89.7750000000000        -3.919997096882299E-084
   89.9650000000000        -5.959021731555943E-084
   90.1550000000000        -8.362133309682433E-084
   90.3450000000000        -1.100626686173938E-083
   90.5350000000000        -1.366388703844247E-083
   90.7250000000000        -1.597497338827069E-083
   90.9150000000000        -1.742158386911393E-083
   91.1050000000000        -1.730999015393055E-083
   91.2950000000000        -1.476710677268342E-083
   91.4850000000000        -8.759683612904147E-084
   91.6750000000000         1.853735040402969E-084
   91.8650000000000         1.822709138904500E-083
   92.0550000000000         4.137632670393181E-083
   92.2450000000000         7.196460885169260E-083
   92.4350000000000         1.100173634123978E-082
   92.6250000000000         1.545675588190204E-082
   92.8150000000000         2.032414214363630E-082
   93.0050000000000         2.518083161508200E-082
   93.1950000000000         2.937361191741780E-082
   93.3850000000000         3.198147863414789E-082
   93.5750000000000         3.179350943937178E-082
   93.7650000000000         2.731349607322369E-082
   93.9550000000000         1.680495198578779E-082
   94.1450000000000        -1.608079528012249E-083
   94.3350000000000        -2.976829327975205E-082
   94.5250000000000        -6.922542065133226E-082
   94.7150000000000        -1.208781426494343E-081
   94.9050000000000        -1.845132173245483E-081
   95.0950000000000        -2.582486354342327E-081
   95.2850000000000        -3.379037026324087E-081
   95.4750000000000        -4.163402729269056E-081
   95.6650000000000        -4.828457982774337E-081
   95.8550000000000        -5.226595503932311E-081
   96.0450000000000        -5.167764620319426E-081
   96.2350000000000        -4.421954362124542E-081
   96.4250000000000        -2.728061404601246E-081
   96.6150000000000         1.887588345522187E-082
   96.8050000000000         4.589191957869036E-081
   96.9950000000000         1.067956233177560E-080
   97.1850000000000         1.855826852773420E-080
   97.3750000000000         2.814896672930835E-080
   97.5650000000000         3.912234636496503E-080
   97.7550000000000         5.081069491842207E-080
   97.9450000000000         6.212242363287674E-080
   98.1350000000000         7.146724870901597E-080
   98.3250000000000         7.670661457308899E-080
   98.5150000000000         7.514789514570980E-080
   98.7050000000000         6.360444746362092E-080
   98.8950000000000         3.854607917459450E-080
   99.0850000000000        -3.634885965559957E-081
   99.2750000000000        -6.621896835178742E-080
   99.4650000000000        -1.515994501750767E-079
   99.6550000000000        -2.605610779902338E-079
   99.8450000000000        -3.914088413681558E-079
   100.035000000000        -5.389818491499123E-079
   100.225000000000        -6.936179231098554E-079
   100.415000000000        -8.401714430264051E-079
   100.605000000000        -9.572286224712629E-079
   100.795000000000        -1.016707873662407E-078
   100.985000000000        -9.840737767478140E-079
   101.175000000000        -8.194252241157077E-079
   101.365000000000        -4.797336308578622E-079
   101.555000000000         7.750382500433789E-080
   101.745000000000         8.889787944312898E-079
   101.935000000000         1.978532771369594E-078
   102.125000000000         3.348396933214179E-078
   102.315000000000         4.968962875747178E-078
   102.505000000000         6.767625147066867E-078
   102.695000000000         8.617591002660024E-078
   102.885000000000         1.032796009274154E-077
   103.075000000000         1.163681191123964E-077
   103.265000000000         1.220946249462438E-077
   103.455000000000         1.164440881775909E-077
   103.645000000000         9.489698006991942E-078
   103.835000000000         5.272452334882285E-078
   104.025000000000        -1.456047748195009E-078
   104.215000000000        -1.105807372188095E-077
   104.405000000000        -2.372957802237864E-077
   104.595000000000        -3.940424042383393E-077
   104.785000000000        -5.764544078729529E-077
   104.975000000000        -7.753329802364083E-077
   105.165000000000        -9.755756857681979E-077
   105.355000000000        -1.155311736967526E-076
   105.545000000000        -1.285431006360054E-076
   105.735000000000        -1.329729395666067E-076
   105.925000000000        -1.245917759430620E-076
   106.115000000000        -9.877482812823884E-077
   106.305000000000        -5.084927415029330E-077
   106.495000000000         2.340472314832371E-077
   106.685000000000         1.270915411590291E-076
   106.875000000000         2.613826869477924E-076
   107.065000000000         4.245711323952454E-076
   107.255000000000         6.110495832592869E-076
   107.445000000000         8.102950206242930E-076
   107.635000000000         1.005975136391293E-075
   107.825000000000         1.175326218252498E-075
   108.015000000000         1.288983059381073E-075
   108.205000000000         1.311464896486280E-075
   108.395000000000         1.202531511538267E-075
   108.585000000000         9.196139702160352E-076
   108.775000000000         4.214881461435844E-076
   108.965000000000        -3.267104134368834E-076
   109.155000000000        -1.347140083949895E-075
   109.345000000000        -2.641735473127319E-075
   109.535000000000        -4.183871150164428E-075
   109.725000000000        -5.909789144047958E-075
   109.915000000000        -7.710628524771164E-075
   110.105000000000        -9.426159605140459E-075