  -1.42500000000000         0.000000000000000E+000
  -1.23500000000000         0.000000000000000E+000
  -1.04500000000000         0.000000000000000E+000
 -0.855000000000000         0.000000000000000E+000
 -0.665000000000000         0.000000000000000E+000
 -0.475000000000000         0.000000000000000E+000
 -0.285000000000000         0.000000000000000E+000
 -9.499999999999975E-002    0.000000000000000E+000
  9.500000000000020E-002    0.000000000000000E+000
  0.285000000000000         0.000000000000000E+000
  0.475000000000000         0.000000000000000E+000
  0.665000000000000         0.000000000000000E+000
  0.855000000000000         0.000000000000000E+000
   1.04500000000000         0.000000000000000E+000
   1.23500000000000         0.000000000000000E+000
   1.42500000000000         0.000000000000000E+000
   1.61500000000000         0.000000000000000E+000
   1.80500000000000         0.000000000000000E+000
   1.99500000000000         0.000000000000000E+000
   2.18500000000000         0.000000000000000E+000
   2.37500000000000         0.000000000000000E+000
   2.56500000000000         0.000000000000000E+000
   2.75500000000000         0.000000000000000E+000
   2.94500000000000         0.000000000000000E+000
   3.13500000000000         0.000000000000000E+000
   3.32500000000000         0.000000000000000E+000
   3.51500000000000         0.000000000000000E+000
   3.70500000000000         0.000000000000000E+000
   3.89500000000000         0.000000000000000E+000
   4.08500000000000         0.000000000000000E+000
   4.27500000000000         0.000000000000000E+000
   4.46500000000000         0.000000000000000E+000
   4.65500000000000         0.000000000000000E+000
   4.84500000000000         0.000000000000000E+000
   5.03500000000000         0.000000000000000E+000
   5.22500000000000         0.000000000000000E+000
   5.41500000000000         0.000000000000000E+000
   5.60500000000000         0.000000000000000E+000
   5.79500000000000         0.000000000000000E+000
   5.98500000000000         0.000000000000000E+000
   6.17500000000000         0.000000000000000E+000
   6.36500000000000         0.000000000000000E+000
   6.55500000000000         0.000000000000000E+000
   6.74500000000000         0.000000000000000E+000
   6.93500000000000         0.000000000000000E+000
   7.12500000000000         1.631486979188179E-195
   7.31500000000000        -4.673035025789927E-188
   7.50500000000000        -2.193392745729800E-186
   7.69500000000000         2.407509870616845E-185
   7.88500000000000         6.344714744315229E-183
   8.07500000000000         3.271863352308167E-181
   8.26500000000000         1.041273567498593E-179
   8.45500000000000         2.434605879105530E-178
   8.64500000000000         4.509017945990034E-177
   8.83500000000000         6.910652548824367E-176
   9.02500000000000         9.023805933700090E-175
   9.21500000000000         1.025089397367592E-173
   9.40500000000000         1.029009366159685E-172
   9.59500000000000         9.237665366518922E-172
   9.78500000000000         7.485331798406432E-171
   9.97500000000000         5.513740792142381E-170
   10.1650000000000         3.711388430548531E-169
   10.3550000000000         2.290722095254252E-168
   10.5450000000000         1.298372020108624E-167
   10.7350000000000         6.751304948876698E-167
   10.9250000000000         3.205551114693989E-166
   11.1150000000000         1.374213288659777E-165
   11.3050000000000         5.185608407818185E-165
   11.4950000000000         1.613755863931635E-164
   11.6850000000000         3.228763893355874E-164
   11.8750000000000        -4.643046632526999E-164
   12.0650000000000        -1.000382567288392E-162
   12.2550000000000        -7.314969807895002E-162
   12.4450000000000        -4.107760721323564E-161
   12.6350000000000        -2.002419811271240E-160
   12.8250000000000        -8.851588637034462E-160
   13.0150000000000        -3.623001416168471E-159
   13.2050000000000        -1.389263273409566E-158
   13.3950000000000        -5.027171915802040E-158
   13.5850000000000        -1.724923191743999E-157
   13.7750000000000        -5.630513651196669E-157
   13.9650000000000        -1.752407789997108E-156
   14.1550000000000        -5.207862752214537E-156
   14.3450000000000        -1.478847756549623E-155
   14.5350000000000        -4.011836086523417E-155
   14.7250000000000        -1.038153790354682E-154
   14.9150000000000        -2.552814747689986E-154
   15.1050000000000        -5.915402729309233E-154
   15.2950000000000        -1.268146115809523E-153
   15.4850000000000        -2.405064462208238E-153
   15.6750000000000        -3.497868771624242E-153
   15.8650000000000        -9.303660586260704E-154
   16.0550000000000         2.108681404297074E-152
   16.2450000000000         1.207911523548871E-151
   16.4350000000000         4.936663174971056E-151
   16.6250000000000         1.752743866349779E-150
   16.8150000000000         5.712079894809175E-150
   17.0050000000000         1.745052882440761E-149
   17.1950000000000         5.039714692464198E-149
   17.3850000000000         1.378865448470093E-148
   17.5750000000000         3.566665550554971E-148
   17.7650000000000         8.666689110400874E-148
   17.9550000000000         1.952650039835836E-147
   18.1450000000000         3.970718627221493E-147
   18.3350000000000         6.824184274937603E-147
   18.5250000000000         7.774773055603349E-147
   18.7150000000000        -5.793687498839613E-147
   18.9050000000000        -7.747983661637844E-146
   19.0950000000000        -3.383310988413296E-145
   19.2850000000000        -1.148008847126755E-144
   19.4750000000000        -3.427771329864660E-144
   19.6650000000000        -9.405601566110264E-144
   19.8550000000000        -2.420270011389105E-143
   20.0450000000000        -5.905198779458184E-143
   20.2350000000000        -1.375220238965316E-142
   20.4250000000000        -3.069896334022164E-142
   20.6150000000000        -6.588052392071043E-142
   20.8050000000000        -1.362168237344073E-141
   20.9950000000000        -2.718916247323951E-141
   21.1850000000000        -5.250399015204483E-141
   21.3750000000000        -9.837406861188166E-141
   21.5650000000000        -1.796102158942863E-140
   21.7550000000000        -3.216270107997432E-140
   21.9450000000000        -5.700886736385938E-140
   22.1350000000000        -1.011962942204540E-139
   22.3250000000000        -1.820716789199103E-139
   22.5150000000000        -3.347621196818077E-139
   22.7050000000000        -6.288525025900135E-139
   22.8950000000000        -1.194222567839947E-138
   23.0850000000000        -2.248909900261687E-138
   23.2750000000000        -4.092760693262095E-138
   23.4650000000000        -6.953460550168587E-138
   23.6550000000000        -1.039280395457170E-137
   23.8450000000000        -1.160798766214546E-137
   24.0350000000000        -1.254555247947233E-138
   24.2250000000000         4.579755890445642E-137
   24.4150000000000         1.891995542288527E-136
   24.6050000000000         5.580346164246650E-136
   24.7950000000000         1.410181957425580E-135
   24.9850000000000         3.222220265076881E-135
   25.1750000000000         6.802822959087899E-135
   25.3650000000000         1.338424267031228E-134
   25.5550000000000         2.455751966812148E-134
   25.7450000000000         4.173741181439441E-134
   25.9350000000000         6.451856569425626E-134
   26.1250000000000         8.675984353859226E-134
   26.3150000000000         8.849351874284600E-134
   26.5050000000000         2.091926173259572E-134
   26.6950000000000        -2.187516181568460E-133
   26.8850000000000        -8.249098022072735E-133
   27.0750000000000        -2.131376720915174E-132
   27.2650000000000        -4.655074467064079E-132
   27.4550000000000        -9.095138245755125E-132
   27.6450000000000        -1.619834780985892E-131
   27.8350000000000        -2.632029262750308E-131
   28.0250000000000        -3.839055353235704E-131
   28.2150000000000        -4.783556202669211E-131
   28.4050000000000        -4.286320803400198E-131
   28.5950000000000         1.528116613042956E-132
   28.7850000000000         1.321707740270049E-130
   28.9750000000000         4.283381123544052E-130
   29.1650000000000         1.011368376926422E-129
   29.3550000000000         2.045768020625434E-129
   29.5450000000000         3.716397245543069E-129
   29.7350000000000         6.154181740767364E-129
   29.9250000000000         9.266081827086043E-129
   30.1150000000000         1.240548382653252E-128
   30.3050000000000         1.380244422155007E-128
   30.4950000000000         9.672000134290480E-129
   30.6850000000000        -7.043219018144807E-129
   30.8750000000000        -4.822301390857241E-128
   31.0650000000000        -1.320832408827371E-127
   31.2550000000000        -2.838440818650392E-127
   31.4450000000000        -5.339302377689482E-127
   31.6350000000000        -9.108037007032101E-127
   31.8250000000000        -1.423660293387940E-126
   32.0150000000000        -2.027670836975593E-126
   32.2050000000000        -2.561266305533774E-126
   32.3950000000000        -2.641552194721725E-126
   32.5850000000000        -1.501495223344133E-126
   32.7750000000000         2.245980259295969E-126
   32.9650000000000         1.091981040856739E-125
   33.1550000000000         2.812503634406429E-125
   33.3450000000000         5.902862236437290E-125
   33.5350000000000         1.102486365954272E-124
   33.7250000000000         1.886780059435020E-124
   33.9150000000000         2.978805800146021E-124
   34.1050000000000         4.295215626969405E-124
   34.2950000000000         5.454242924836514E-124
   34.4850000000000         5.431531484730757E-124
   34.6750000000000         1.946936315153593E-124
   34.8650000000000        -9.551757231998278E-124
   35.0550000000000        -3.744167385397999E-123
   35.2450000000000        -9.605853641191440E-123
   35.4350000000000        -2.081667133831320E-122
   35.6250000000000        -4.068422289380588E-122
   35.8150000000000        -7.344798381291215E-122
   36.0050000000000        -1.234171027424292E-121
   36.1950000000000        -1.924648629448537E-121
   36.3850000000000        -2.743938767037003E-121
   36.5750000000000        -3.438803622769556E-121
   36.7650000000000        -3.368095112693943E-121
   36.9550000000000        -1.181621065228440E-121
   37.1450000000000         5.660554325052391E-121
   37.3350000000000         2.153640595426205E-120
   37.5250000000000         5.341182408966762E-120
   37.7150000000000         1.114698291925848E-119
   37.9050000000000         2.091109123662960E-119
   38.0950000000000         3.613454125913708E-119
   38.2850000000000         5.798954184769244E-119
   38.4750000000000         8.623803802263973E-119
   38.6650000000000         1.171870074436909E-118
   38.8550000000000         1.402139302627609E-118
   39.0450000000000         1.323772967384072E-118
   39.2350000000000         5.079782562711438E-119
   39.4250000000000        -1.769616631364027E-118
   39.6150000000000        -6.631126919125278E-118
   39.8050000000000        -1.566899040566945E-117
   39.9950000000000        -3.091853029238687E-117
   40.1850000000000        -5.460904116615879E-117
   40.3750000000000        -8.850515663697206E-117
   40.5650000000000        -1.325750329907777E-116
   40.7550000000000        -1.826579544601025E-116
   40.9450000000000        -2.267906463642017E-116
   41.1350000000000        -2.399555662985791E-116
   41.3250000000000        -1.773358657058233E-116
   41.5150000000000         3.316608181309396E-117
   41.7050000000000         4.972140471845260E-116
   41.8950000000000         1.355381668337095E-115
   42.0850000000000         2.773318597365535E-115
   42.2750000000000         4.911514465637398E-115
   42.4650000000000         7.862530378718689E-115
   42.6550000000000         1.154196217454808E-114
   42.8450000000000         1.552119574999263E-114
   43.0350000000000         1.879837550374990E-114
   43.2250000000000         1.952310809471379E-114
   43.4150000000000         1.472493055490547E-114
   43.6050000000000         1.492983839342976E-116
   43.7950000000000        -2.962181370999739E-114
   43.9850000000000        -8.050189175955509E-114
   44.1750000000000        -1.573444335316602E-113
   44.3650000000000        -2.611334641016760E-113
   44.5550000000000        -3.846485110171559E-113
   44.7450000000000        -5.066545579198048E-113
   44.9350000000000        -5.853530566991676E-113
   45.1250000000000        -5.530283673587948E-113
   45.3150000000000        -3.156504742628760E-113
   45.5050000000000         2.363564749222244E-113
   45.6950000000000         1.197169805293674E-112
   45.8850000000000         2.583027967783011E-112
   46.0750000000000         4.226133307017609E-112
   46.2650000000000         5.616871419554755E-112
   46.4550000000000         5.698193957149627E-112
   46.6450000000000         2.641166667170481E-112
   46.8350000000000        -6.325095551454662E-112
   47.0250000000000        -2.488712743570068E-111
   47.2150000000000        -5.718663490952535E-111
   47.4050000000000        -1.065698237454354E-110
   47.5950000000000        -1.730684042827529E-110
   47.7850000000000        -2.490492123230652E-110
   47.9750000000000        -3.124960836238128E-110
   48.1650000000000        -3.176445533679758E-110
   48.3550000000000        -1.833472927796255E-110
   48.5450000000000         2.191745443209030E-110
   48.7350000000000         1.075394113346841E-109
   48.9250000000000         2.626321168043786E-109
   49.1150000000000         5.145668740023190E-109
   49.3050000000000         8.878479800615284E-109
   49.4950000000000         1.391868580135449E-108
   49.6850000000000         1.999874824579523E-108
   49.8750000000000         2.616440238455175E-108
   50.0650000000000         3.031605863129482E-108
   50.2550000000000         2.862200349299132E-108
   50.4450000000000         1.485540882687484E-108
   50.6350000000000        -2.021328052443571E-108
   50.8250000000000        -8.911584632443103E-108
   51.0150000000000        -2.072569706461735E-107
   51.2050000000000        -3.911242729312931E-107
   51.3950000000000        -6.542719154889805E-107
   51.5850000000000        -1.000002018907563E-106
   51.7750000000000        -1.409567860254405E-106
   51.9650000000000        -1.824869120255373E-106
   52.1550000000000        -2.125199901955443E-106
   52.3450000000000        -2.098904498297965E-106
   52.5350000000000        -1.413100718195022E-106
   52.7250000000000         4.117418540972831E-107
   52.9150000000000         4.010395031158868E-106
   53.1050000000000         1.014589331250473E-105
   53.2950000000000         1.962027328950396E-105
   53.4850000000000         3.308822376460599E-105
   53.6750000000000         5.073268414139227E-105
   53.8650000000000         7.176064519987003E-105
   54.0550000000000         9.368707967899557E-105
   54.2450000000000         1.114019296404323E-104
   54.4350000000000         1.160678330868074E-104
   54.6250000000000         9.398395203806191E-105
   54.8150000000000         2.568205659253074E-105
   55.0050000000000        -1.143008059385767E-104
   55.1950000000000        -3.563072649833708E-104
   55.3850000000000        -7.321902157758856E-104
   55.5750000000000        -1.268546745622218E-103
   55.7650000000000        -1.975269833560549E-103
   55.9550000000000        -2.828185705121503E-103
   56.1450000000000        -3.744948163759101E-103
   56.3350000000000        -4.554310220764581E-103
   56.5250000000000        -4.960613098147860E-103
   56.7150000000000        -4.508047955650281E-103
   56.9050000000000        -2.553126683672803E-103
   57.0950000000000         1.741124166151934E-103
   57.2850000000000         9.369684991352593E-103
   57.4750000000000         2.138284040283573E-102
   57.6650000000000         3.868482861785227E-102
   57.8550000000000         6.169982421818772E-102
   58.0450000000000         8.987443099847525E-102
   58.2350000000000         1.209987017561020E-101
   58.4250000000000         1.503548506726680E-101
   58.6150000000000         1.697493221057149E-101
   58.8050000000000         1.665542963136457E-101
   58.9950000000000         1.229817614088303E-101
   59.1850000000000         1.593580823923141E-102
   59.3750000000000        -1.820708673779906E-101
   59.5650000000000        -5.003095409391000E-101
   59.7550000000000        -9.647998117293892E-101
   59.9450000000000        -1.590074746069728E-100
   60.1350000000000        -2.367083833800911E-100
   60.3250000000000        -3.246902509022477E-100
   60.5150000000000        -4.120566664879600E-100
   60.7050000000000        -4.796413377434857E-100
   60.8950000000000        -4.977861506952588E-100
   61.0850000000000        -4.246636482321521E-100
   61.2750000000000        -2.058972732723097E-100
   61.4650000000000         2.234882774635932E-100
   61.6550000000000         9.334883176977588E-100
   61.8450000000000         1.988423921200308E-099
   62.0350000000000         3.429626124703631E-099
   62.2250000000000         5.250266353760192E-099
   62.4150000000000         7.361815399044115E-099
   62.6050000000000         9.552929219206005E-099
   62.7950000000000         1.144362654832745E-098
   62.9850000000000         1.244054130424178E-098
   63.1750000000000         1.170280121958334E-098
   63.3650000000000         8.132533392382930E-099
   63.5550000000000         4.087116772811877E-100
   63.7450000000000        -1.291270174112536E-098
   63.9350000000000        -3.320674189426648E-098
   64.1250000000000        -6.147051874986644E-098
   64.3150000000000        -9.787801940129783E-098
   64.5050000000000        -1.411922784135575E-097
   64.6950000000000        -1.880511439647760E-097
   64.8850000000000        -2.321768359302612E-097
   65.0750000000000        -2.636056326600920E-097
   65.2650000000000        -2.680913124210818E-097
   65.4550000000000        -2.269006582154815E-097
   65.6450000000000        -1.172839685543423E-097
   65.8350000000000         8.604385150680189E-098
   66.0250000000000         4.080523268011479E-097
   66.2150000000000         8.688421025722936E-097
   66.4050000000000         1.477159190836766E-096
   66.5950000000000         2.221950251575854E-096
   66.7850000000000         3.062258887784901E-096
   66.9750000000000         3.916223656059973E-096
   67.1650000000000         4.650526018236113E-096
   67.3550000000000         5.072315138540302E-096
   67.5450000000000         4.926332915221006E-096
   67.7350000000000         3.900558407060107E-096
   67.9250000000000         1.644019542381043E-096
   68.1150000000000        -2.199726735236250E-096
   68.3050000000000        -7.940799329476341E-096
   68.4950000000000        -1.577202083037704E-095
   68.6850000000000        -2.568077906856925E-095
   68.8750000000000        -3.734971583067209E-095
   69.0650000000000        -5.005712504253972E-095
   69.2550000000000        -6.259321314826442E-095
   69.4450000000000        -7.321309634976598E-095
   69.6350000000000        -7.965019967998437E-095
   69.8250000000000        -7.921277042815775E-095
   70.0150000000000        -6.897942570012908E-095
   70.2050000000000        -4.609494258860195E-095
   70.3950000000000        -8.143323540817337E-096
   70.5850000000000         4.645873706271688E-095
   70.7750000000000         1.181465066642286E-094
   70.9650000000000         2.061125101076628E-094
   71.1550000000000         3.086113833798541E-094
   71.3450000000000         4.238565120863290E-094
   71.5350000000000         5.516695347452343E-094
   71.7250000000000         6.959416294170422E-094
   71.9150000000000         8.677629704429562E-094
   72.1050000000000         1.088746429312653E-093
   72.2950000000000         1.393595759967520E-093
   72.4850000000000         1.830350243322891E-093
   72.6750000000000         2.456015616180107E-093
   72.8650000000000         3.324556533466934E-093
   73.0550000000000         4.463641778004636E-093
   73.2450000000000         5.836351120775481E-093
   73.4350000000000         7.284621609378453E-093
   73.6250000000000         8.452975668100556E-093
   73.8150000000000         8.694548418384330E-093
   74.0050000000000         6.967145314936442E-093
   74.1950000000000         1.735456709448990E-093
   74.3850000000000        -9.093158449413518E-093
   74.5750000000000        -2.815796510314929E-092
   74.7650000000000        -5.850220294327890E-092
   74.9550000000000        -1.032260365513645E-091
   75.1450000000000        -1.648506906237390E-091
   75.3350000000000        -2.443057495330156E-091
   75.5250000000000        -3.394629625711114E-091
   75.7150000000000        -4.431745416443580E-091
   75.9050000000000        -5.408414562574650E-091
   76.0950000000000        -6.076475528199914E-091
   76.2850000000000        -6.057571173197340E-091
   76.4750000000000        -4.819917320943264E-091
   76.6650000000000        -1.667748770459381E-091
   76.8550000000000         4.245536736151897E-091
   77.0450000000000         1.386626657281114E-090
   77.2350000000000         2.813429282584778E-090
   77.4250000000000         4.780290936163276E-090
   77.6150000000000         7.316667325266602E-090
   77.8050000000000         1.036831347607413E-089
   77.9950000000000         1.374839746735729E-089
   78.1850000000000         1.707876020400648E-089
   78.3750000000000         1.972505878175262E-089
   78.5650000000000         2.073306986397451E-089
   78.7550000000000         1.877801606313230E-089
   78.9450000000000         1.214430265580643E-089
   79.1350000000000        -1.240822446198729E-090
   79.3250000000000        -2.369009323182700E-089
   79.5150000000000        -5.752095288712383E-089
   79.7050000000000        -1.046652138933384E-088
   79.8950000000000        -1.660889131058568E-088
   80.0850000000000        -2.409969845838217E-088
   80.2750000000000        -3.258167509068585E-088
   80.4650000000000        -4.129866648296846E-088
   80.6550000000000        -4.896250030067474E-088
   80.8450000000000        -5.362192641049572E-088
   81.0350000000000        -5.255611408177472E-088
   81.2250000000000        -4.222517166013709E-088
   81.4150000000000        -1.832106722893569E-088
   81.6050000000000         2.402697728112479E-088
   81.7950000000000         8.982987949394571E-088
   81.9850000000000         1.835320643174005E-087
   82.1750000000000         3.079578816639247E-087
   82.3650000000000         4.628641307052484E-087
   82.5550000000000         6.430845178290983E-087
   82.7450000000000         8.363063166662695E-087
   82.9350000000000         1.020600039465783E-086
   83.1250000000000         1.161932616715677E-086
   83.3150000000000         1.212033826705094E-086
   83.5050000000000         1.107150718213850E-086
   83.6950000000000         7.684056754836485E-087
   83.8850000000000         1.046526970785740E-087
   84.0750000000000        -9.811244390109387E-087
   84.2650000000000        -2.580748484643958E-086
   84.4550000000000        -4.764036508952351E-086
   84.6450000000000        -7.555380354012572E-086
   84.8350000000000        -1.090334028768996E-085
   85.0250000000000        -1.464368156244880E-085
   85.2150000000000        -1.845749121879140E-085
   85.4050000000000        -2.182766772180756E-085
   85.5950000000000        -2.399919067792942E-085
   85.7850000000000        -2.395110389838272E-085
   85.9750000000000        -2.039094835688120E-085
   86.1650000000000        -1.178521371380383E-085
   86.3550000000000         3.558152086599612E-086
   86.5450000000000         2.733758008779231E-085
   86.7350000000000         6.101855786662121E-085
   86.9250000000000         1.054922686868341E-084
   87.1150000000000         1.606235071503017E-084
   87.3050000000000         2.246900283170076E-084
   87.4950000000000         2.937319955702738E-084
   87.6850000000000         3.608531410861416E-084
   87.8750000000000         4.155449318928521E-084
   88.0650000000000         4.431409495570663E-084
   88.2550000000000         4.245492105825266E-084
   88.4450000000000         3.364521266294869E-084
   88.6350000000000         1.522021849788604E-084
   88.8250000000000        -1.563310250866880E-084
   89.0150000000000        -6.156997197442324E-084
   89.2050000000000        -1.246365310156764E-083
   89.3950000000000        -2.056568237652650E-083
   89.5850000000000        -3.034546527960496E-083
   89.7750000000000        -4.139276737301350E-083
   89.9650000000000        -5.290204861977298E-083
   90.1550000000000        -6.356820789896542E-083
   90.3450000000000        -7.149404002045589E-083
   90.5350000000000        -7.412812453148526E-083
   90.7250000000000        -6.825763951247054E-083
   90.9150000000000        -5.008609320400995E-083
   91.1050000000000        -1.543030864979674E-083
   91.2950000000000         3.992700217008673E-083
   91.4850000000000         1.196945576115895E-082
   91.6750000000000         2.263125702773658E-082
   91.8650000000000         3.599631965271821E-082
   92.0550000000000         5.173630632276578E-082
   92.2450000000000         6.903844194970831E-082
   92.4350000000000         8.645980170065835E-082
   92.6250000000000         1.017888874581973E-081
   92.8150000000000         1.119363804609720E-081
   93.0050000000000         1.128842946064186E-081
   93.1950000000000         9.972997715149518E-082
   93.3850000000000         6.686750699440219E-082
   93.5750000000000         8.352665827703432E-083
   93.7650000000000        -8.150290845250201E-082
   93.9550000000000        -2.072695499471015E-081
   94.1450000000000        -3.712457253604966E-081
   94.3350000000000        -5.720146804753848E-081
   94.5250000000000        -8.027520533619068E-081
   94.7150000000000        -1.049377011847671E-080
   94.9050000000000        -1.288705345965127E-080
   95.0950000000000        -1.486840906965038E-080
   95.2850000000000        -1.598127736848106E-080
   95.4750000000000        -1.565072065865823E-080
   95.6650000000000        -1.319720406418987E-080
   95.8550000000000        -7.870326833741441E-081
   96.0450000000000         1.092007390179855E-081
   96.2350000000000         1.437403995277926E-080
   96.4250000000000         3.245871929250423E-080
   96.6150000000000         5.546943361807988E-080
   96.8050000000000         8.297988263970871E-080
   96.9950000000000         1.138004610234746E-079
   97.1850000000000         1.457564532027587E-079
   97.3750000000000         1.754816404208189E-079
   97.5650000000000         1.982602057403290E-079
   97.7550000000000         2.079593946298611E-079
   97.9450000000000         1.971041902281511E-079
   98.1350000000000         1.571518404974376E-079
   98.3250000000000         7.902657938334966E-080
   98.5150000000000        -4.602888296671227E-080
   98.7050000000000        -2.252409992419253E-079
   98.8950000000000        -4.627117066759742E-079
   99.0850000000000        -7.574600501963985E-079
   99.2750000000000        -1.101167795162642E-078
   99.4650000000000        -1.475765265739003E-078
   99.6550000000000        -1.851075462368601E-078
   99.8450000000000        -2.182827096430516E-078
   100.035000000000        -2.411444136088433E-078
   100.225000000000        -2.462110982844387E-078
   100.415000000000        -2.246684963627033E-078
   100.605000000000        -1.668064162119361E-078
   100.795000000000        -6.275981673108361E-079
   100.985000000000         9.639707210127955E-079
   101.175000000000         3.171751204923201E-078
   101.365000000000         6.018173937253593E-078
   101.555000000000         9.461198527548062E-078
   101.745000000000         1.337037707428453E-077
   101.935000000000         1.750264212857825E-077
   102.125000000000         2.148054055817510E-077
   102.315000000000         2.477653928825731E-077
   102.505000000000         2.670789924263748E-077
   102.695000000000         2.644733227787768E-077
   102.885000000000         2.305507222868141E-077
   103.075000000000         1.553792653631566E-077
   103.265000000000         2.940131001196061E-078
   103.455000000000        -1.553079556458849E-077
   103.645000000000        -4.034269222516634E-077
   103.835000000000        -7.144528377410904E-077
   104.025000000000        -1.080531406893202E-076
   104.215000000000        -1.484199571030891E-076
   104.405000000000        -1.896263215421728E-076
   104.595000000000        -2.274109427369951E-076
   104.785000000000        -2.560828846816104E-076
   104.975000000000        -2.685588018389594E-076
   105.165000000000        -2.565732249653172E-076
   105.355000000000        -2.111101805889390E-076
   105.545000000000        -1.230992302211949E-076
   105.735000000000         1.559324240154089E-077
   105.925000000000         2.108674690084421E-076
   106.115000000000         4.648088791352043E-076
   106.305000000000         7.738827790497213E-076
   106.495000000000         1.127016157011944E-075
   106.685000000000         1.503735416635215E-075
   106.875000000000         1.872590830849341E-075
   107.065000000000         2.190159369386193E-075
   107.255000000000         2.400969927926002E-075
   107.445000000000         2.438729562814691E-075
   107.635000000000         2.229235128538418E-075
   107.825000000000         1.695319671066122E-075
   108.015000000000         7.640948768384644E-076
   108.205000000000        -6.234011320524857E-076
   108.395000000000        -2.500265326106123E-075
   108.585000000000        -4.859914183111894E-075
   108.775000000000        -7.641174060122373E-075
   108.965000000000        -1.071348675446110E-074
   109.155000000000        -1.386389655099849E-074
   109.345000000000        -1.678793385927020E-074
   109.535000000000        -1.908689778758956E-074
   109.725000000000        -2.027429884499981E-074
   109.915000000000        -1.979427541222156E-074
   110.105000000000        -1.705455908046603E-074