  -1.42500000000000         0.000000000000000E+000
  -1.23500000000000         0.000000000000000E+000
  -1.04500000000000         0.000000000000000E+000
 -0.855000000000000         0.000000000000000E+000
 -0.665000000000000         0.000000000000000E+000
 -0.475000000000000         0.000000000000000E+000
 -0.285000000000000         0.000000000000000E+000
 -9.499999999999975E-002    0.000000000000000E+000
  9.500000000000020E-002    0.000000000000000E+000
  0.285000000000000         0.000000000000000E+000
  0.475000000000000         0.000000000000000E+000
  0.665000000000000         0.000000000000000E+000
  0.855000000000000         0.000000000000000E+000
   1.04500000000000         0.000000000000000E+000
   1.23500000000000         0.000000000000000E+000
   1.42500000000000         0.000000000000000E+000
   1.61500000000000         0.000000000000000E+000
   1.80500000000000         0.000000000000000E+000
   1.99500000000000         0.000000000000000E+000
   2.18500000000000         0.000000000000000E+000
   2.37500000000000         0.000000000000000E+000
   2.56500000000000         0.000000000000000E+000
   2.75500000000000         0.000000000000000E+000
   2.94500000000000         0.000000000000000E+000
   3.13500000000000         0.000000000000000E+000
   3.32500000000000         0.000000000000000E+000
   3.51500000000000         0.000000000000000E+000
   3.70500000000000         0.000000000000000E+000
   3.89500000000000         0.000000000000000E+000
   4.08500000000000         0.000000000000000E+000
   4.27500000000000         0.000000000000000E+000
   4.46500000000000         0.000000000000000E+000
   4.65500000000000         0.000000000000000E+000
   4.84500000000000         0.000000000000000E+000
   5.03500000000000         0.000000000000000E+000
   5.22500000000000         0.000000000000000E+000
   5.41500000000000         0.000000000000000E+000
   5.60500000000000         0.000000000000000E+000
   5.79500000000000         0.000000000000000E+000
   5.98500000000000         0.000000000000000E+000
   6.17500000000000         0.000000000000000E+000
   6.36500000000000         0.000000000000000E+000
   6.55500000000000         0.000000000000000E+000
   6.74500000000000         0.000000000000000E+000
   6.93500000000000         0.000000000000000E+000
   7.12500000000000        -1.471612539258746E-193
   7.31500000000000         5.445905030635204E-187
   7.50500000000000         2.265732940043292E-185
   7.69500000000000        -1.775466325338001E-183
   7.88500000000000        -1.682253830696959E-181
   8.07500000000000        -6.797419888644331E-180
   8.26500000000000        -1.807165050989013E-178
   8.45500000000000        -3.610197476648301E-177
   8.64500000000000        -5.792854056057662E-176
   8.83500000000000        -7.774890919840319E-175
   9.02500000000000        -8.970107096622709E-174
   9.21500000000000        -9.071776119767377E-173
   9.40500000000000        -8.159901291181670E-172
   9.59500000000000        -6.600126744244533E-171
   9.78500000000000        -4.840802028197267E-170
   9.97500000000000        -3.239347623489053E-169
   10.1650000000000        -1.986058246924707E-168
   10.3550000000000        -1.118020408714364E-167
   10.5450000000000        -5.776672487632673E-167
   10.7350000000000        -2.728697201762906E-166
   10.9250000000000        -1.166386729302224E-165
   11.1150000000000        -4.407188954514553E-165
   11.3050000000000        -1.387002379700913E-164
   11.4950000000000        -2.928427231430939E-164
   11.6850000000000         2.531571643673863E-164
   11.8750000000000         7.650295017720483E-163
   12.0650000000000         5.790427013781993E-162
   12.2550000000000         3.312167599857522E-161
   12.4450000000000         1.641467620984978E-160
   12.6350000000000         7.389322794405293E-160
   12.8250000000000         3.090249179098136E-159
   13.0150000000000         1.215966076935062E-158
   13.2050000000000         4.538080722414138E-158
   13.3950000000000         1.615101922933497E-157
   13.5850000000000         5.502368267113137E-157
   13.7750000000000         1.799107160858252E-156
   13.9650000000000         5.654950014393076E-156
   14.1550000000000         1.709783476806502E-155
   14.3450000000000         4.970049593710685E-155
   14.5350000000000         1.385997016081558E-154
   14.7250000000000         3.691193912474796E-154
   14.9150000000000         9.306810320478008E-154
   15.1050000000000         2.184745896960964E-153
   15.2950000000000         4.608448849419997E-153
   15.4850000000000         7.947630388300654E-153
   15.6750000000000         7.044751436130999E-153
   15.8650000000000        -2.417049572300583E-152
   16.0550000000000        -1.867272468318460E-151
   16.2450000000000        -8.236769836445126E-151
   16.4350000000000        -3.000480472494441E-150
   16.6250000000000        -9.796243605227967E-150
   16.8150000000000        -2.953935604340077E-149
   17.0050000000000        -8.328128385785193E-149
   17.1950000000000        -2.202846698595549E-148
   17.3850000000000        -5.448801935816434E-148
   17.5750000000000        -1.246139496428988E-147
   17.7650000000000        -2.566189882411827E-147
   17.9550000000000        -4.448951671303232E-147
   18.1450000000000        -5.026327962101318E-147
   18.3350000000000         4.493810416162619E-147
   18.5250000000000         5.496157478506523E-146
   18.7150000000000         2.400787713072958E-145
   18.9050000000000         8.179915175463712E-145
   19.0950000000000         2.445755800332138E-144
   19.2850000000000         6.677495810891492E-144
   19.4750000000000         1.691868425396220E-143
   19.6650000000000         3.998670660881886E-143
   19.8550000000000         8.791298569329585E-143
   20.0450000000000         1.775785983134437E-142
   20.2350000000000         3.195068682354344E-142
   20.4250000000000         4.703288106667004E-142
   20.6150000000000         3.823944685152609E-142
   20.8050000000000        -8.088183227793726E-142
   20.9950000000000        -5.614366729679072E-141
   21.1850000000000        -2.057620241862283E-140
   21.3750000000000        -6.143242838863461E-140
   21.5650000000000        -1.635966419905048E-139
   21.7550000000000        -4.019616239432541E-139
   21.9450000000000        -9.252457305840083E-139
   22.1350000000000        -2.008794963471064E-138
   22.3250000000000        -4.119945211707722E-138
   22.5150000000000        -7.957916800341431E-138
   22.7050000000000        -1.434707740666504E-137
   22.8950000000000        -2.367416942080136E-137
   23.0850000000000        -3.417464226092203E-137
   23.2750000000000        -3.765340814531775E-137
   23.4650000000000        -1.000942351227683E-137
   23.6550000000000         1.078653735301998E-136
   23.8450000000000         4.453514562065612E-136
   24.0350000000000         1.261191121005512E-135
   24.2250000000000         3.030494615660326E-135
   24.4150000000000         6.546841529908202E-135
   24.6050000000000         1.297848785784928E-134
   24.7950000000000         2.370478614781898E-134
   24.9850000000000         3.952463017009832E-134
   25.1750000000000         5.838798429803552E-134
   25.3650000000000         7.004810902863194E-134
   25.5550000000000         4.488083259376597E-134
   25.7450000000000        -8.737374102779126E-134
   25.9350000000000        -4.745396078700227E-133
   26.1250000000000        -1.399925478963721E-132
   26.3150000000000        -3.361170918556362E-132
   26.5050000000000        -7.152220173759043E-132
   26.6950000000000        -1.388711995045849E-131
   26.8850000000000        -2.481235962326710E-131
   27.0750000000000        -4.057952217157644E-131
   27.2650000000000        -5.934670376293542E-131
   27.4550000000000        -7.259999840628566E-131
   27.6450000000000        -5.692266328541741E-131
   27.8350000000000         4.081425992586348E-131
   28.0250000000000         3.278524648550396E-130
   28.2150000000000         1.001877796298228E-129
   28.4050000000000         2.397921793216093E-129
   28.5950000000000         5.034257008519504E-129
   28.7850000000000         9.623076153832711E-129
   28.9750000000000         1.696765368237016E-128
   29.1650000000000         2.758992429718154E-128
   29.3550000000000         4.080752103986281E-128
   29.5450000000000         5.279890815182840E-128
   29.7350000000000         5.297069285734102E-128
   29.9250000000000         1.773275826759694E-128
   30.1150000000000        -9.924479620482952E-128
   30.3050000000000        -3.807301316021912E-127
   30.4950000000000        -9.623661788019572E-127
   30.6850000000000        -2.046712455979288E-126
   30.8750000000000        -3.901898036796742E-126
   31.0650000000000        -6.817766938449148E-126
   31.2550000000000        -1.096931087328565E-125
   31.4450000000000        -1.610294421127675E-125
   31.6350000000000        -2.091618669821178E-125
   31.8250000000000        -2.195269928460181E-125
   32.0150000000000        -1.180340602392312E-125
   32.2050000000000         2.356300331077913E-125
   32.3950000000000         1.083326030866024E-124
   32.5850000000000         2.807483712359360E-124
   32.7750000000000         5.958694306245178E-124
   32.9650000000000         1.123799798198079E-123
   33.1550000000000         1.936877276983131E-123
   33.3450000000000         3.074579118651126E-123
   33.5350000000000         4.468437022216093E-123
   33.7250000000000         5.801626911529210E-123
   33.9150000000000         6.271118553611839E-123
   34.1050000000000         4.218976534514478E-123
   34.2950000000000        -3.387452453288014E-123
   34.4850000000000        -2.160379541044351E-122
   34.6750000000000        -5.816606093339638E-122
   34.8650000000000        -1.238539308373857E-121
   35.0550000000000        -2.319433454819515E-121
   35.2450000000000        -3.956461164324978E-121
   35.4350000000000        -6.217501707789151E-121
   35.6250000000000        -8.978175446822681E-121
   35.8150000000000        -1.169407533795742E-120
   36.0050000000000        -1.303216293667089E-120
   36.1950000000000        -1.032449428608045E-120
   36.3850000000000         1.166337509085591E-121
   36.5750000000000         2.911368417104407E-120
   36.7650000000000         8.493434726301015E-120
   36.9550000000000         1.841097464154004E-119
   37.1450000000000         3.452173789617520E-119
   37.3350000000000         5.863236879315361E-119
   37.5250000000000         9.166740593821521E-119
   37.7150000000000         1.320797328041550E-118
   37.9050000000000         1.731413812290460E-118
   38.0950000000000         1.987299137736919E-118
   38.2850000000000         1.773225757825703E-118
   38.4750000000000         5.424215484808056E-119
   38.6650000000000        -2.570691161504915E-118
   38.8550000000000        -8.826198565028371E-118
   39.0450000000000        -1.989932532431594E-117
   39.2350000000000        -3.776914268757337E-117
   39.4250000000000        -6.435291017967525E-117
   39.6150000000000        -1.007076219630140E-116
   39.8050000000000        -1.455617371256391E-116
   39.9950000000000        -1.928966428466607E-116
   40.1850000000000        -2.283021383004349E-116
   40.3750000000000        -2.239373183876273E-116
   40.5650000000000        -1.322184210724675E-116
   40.7550000000000         1.210617906314375E-116
   40.9450000000000         6.424685222258839E-116
   41.1350000000000         1.572220547255895E-115
   41.3250000000000         3.075498362181699E-115
   41.5150000000000         5.315275135803495E-115
   41.7050000000000         8.394759666578901E-115
   41.8950000000000         1.225422118305662E-114
   42.0850000000000         1.650492028521133E-114
   42.2750000000000         2.018411664972715E-114
   42.4650000000000         2.142278465101518E-114
   42.6550000000000         1.703615651996175E-114
   42.8450000000000         2.082221814045360E-115
   43.0350000000000        -3.050859424380228E-114
   43.2250000000000        -9.004181347437473E-114
   43.4150000000000        -1.875935428091980E-113
   43.6050000000000        -3.345067322471803E-113
   43.7950000000000        -5.392125781606670E-113
   43.9850000000000        -8.015808235847963E-113
   44.1750000000000        -1.103913475089940E-112
   44.3650000000000        -1.397773828936956E-112
   44.5550000000000        -1.586229801564385E-112
   44.7450000000000        -1.501983064624301E-112
   44.9350000000000        -8.834978811154580E-113
   45.1250000000000         6.460914302021259E-113
   45.3150000000000         3.588574304865638E-112
   45.5050000000000         8.554674000159128E-112
   45.6950000000000         1.620169742435364E-111
   45.8850000000000         2.709657467389005E-111
   46.0750000000000         4.146904552716916E-111
   46.2650000000000         5.881555163794353E-111
   46.4550000000000         7.731671478490479E-111
   46.6450000000000         9.304558907860166E-111
   46.8350000000000         9.897755253029555E-111
   47.0250000000000         8.387490527589687E-111
   47.2150000000000         3.122016735787782E-111
   47.4050000000000        -8.147866911670839E-111
   47.5950000000000        -2.824839841722868E-110
   47.7850000000000        -6.039424562774270E-110
   47.9750000000000        -1.077242551889624E-109
   48.1650000000000        -1.724254857327718E-109
   48.3550000000000        -2.542889128905522E-109
   48.5450000000000        -3.485399617869064E-109
   48.7350000000000        -4.428251254712755E-109
   48.9250000000000        -5.133368865999929E-109
   49.1150000000000        -5.202537435758703E-109
   49.3050000000000        -4.029954367873947E-109
   49.4950000000000        -7.628029712695199E-110
   49.6850000000000         5.713518295586520E-109
   49.8750000000000         1.674017293046532E-108
   50.0650000000000         3.376406598300478E-108
   50.2550000000000         5.808504873100164E-108
   50.4450000000000         9.041555114680188E-108
   50.6350000000000         1.301928144453883E-107
   50.8250000000000         1.745898272037719E-107
   51.0150000000000         2.171943397928417E-107
   51.2050000000000         2.463751730741065E-107
   51.3950000000000         2.434423616084923E-107
   51.5850000000000         1.808440463916320E-107
   51.7750000000000         2.083869094196287E-108
   51.9650000000000        -2.846582360900988E-107
   52.1550000000000        -7.920323351890527E-107
   52.3450000000000        -1.560349623322724E-106
   52.5350000000000        -2.640414506180556E-106
   52.7250000000000        -4.056487291789529E-106
   52.9150000000000        -5.778572724081764E-106
   53.1050000000000        -7.683507359838857E-106
   53.2950000000000        -9.504014783933544E-106
   53.4850000000000        -1.076676123330589E-105
   53.6750000000000        -1.072357205898207E-105
   53.8650000000000        -8.284714762001221E-106
   54.0550000000000        -1.969822461619127E-106
   54.2450000000000         1.009921273368412E-105
   54.4350000000000         3.012831395171690E-105
   54.6250000000000         6.045705404100715E-105
   54.8150000000000         1.031807370410665E-104
   55.0050000000000         1.595189565236434E-104
   55.1950000000000         2.288561289310045E-104
   55.3850000000000         3.073853477390110E-104
   55.5750000000000         3.863102399485177E-104
   55.7650000000000         4.496092649464797E-104
   55.9550000000000         4.714540091045614E-104
   56.1450000000000         4.135100559093678E-104
   56.3350000000000         2.225492290683197E-104
   56.5250000000000        -1.709222950283080E-104
   56.7150000000000        -8.519558895691195E-104
   56.9050000000000        -1.916864623302115E-103
   57.0950000000000        -3.463319044635896E-103
   57.2850000000000        -5.572271275459604E-103
   57.4750000000000        -8.278648137123055E-103
   57.6650000000000        -1.152743579622045E-102
   57.8550000000000        -1.511184405555110E-102
   58.0450000000000        -1.859099340084979E-102
   58.2350000000000        -2.118644177308945E-102
   58.4250000000000        -2.166043451820873E-102
   58.6150000000000        -1.818474446596835E-102
   58.8050000000000        -8.218222635691519E-103
   58.9950000000000         1.157538684683691E-102
   59.1850000000000         4.531938762884682E-102
   59.3750000000000         9.775198021471689E-102
   59.5650000000000         1.737872131950666E-101
   59.7550000000000         2.776739686354445E-101
   59.9450000000000         4.115864525289382E-101
   60.1350000000000         5.734565489300107E-101
   60.3250000000000         7.538559503906327E-101
   60.5150000000000         9.317726703580988E-101
   60.7050000000000         1.069228174936752E-100
   60.8950000000000         1.104881565625982E-100
   61.0850000000000         9.471065768234681E-101
   61.2750000000000         4.675499439934750E-101
   61.4650000000000        -5.030727494984114E-101
   61.6550000000000        -2.174188812487186E-100
   61.8450000000000        -4.785589239929569E-100
   62.0350000000000        -8.583237079533730E-100
   62.2250000000000        -1.377379797797583E-099
   62.4150000000000        -2.044985518619015E-099
   62.6050000000000        -2.847734230865740E-099
   62.7950000000000        -3.733773447115537E-099
   62.9850000000000        -4.592092449442819E-099
   63.1750000000000        -5.227166272429432E-099
   63.3650000000000        -5.330433212074082E-099
   63.5550000000000        -4.451908327336520E-099
   63.7450000000000        -1.977817013636713E-099
   63.9350000000000         2.876472020616213E-099
   64.1250000000000         1.104479120289765E-098
   64.3150000000000         2.354174650181483E-098
   64.5050000000000         4.132492288292337E-098
   64.6950000000000         6.506163062947065E-098
   64.8850000000000         9.477312634562130E-098
   65.0750000000000         1.293328529671708E-097
   65.2650000000000         1.658061046983903E-097
   65.4550000000000         1.986398226753079E-097
   65.6450000000000         2.187464286846255E-097
   65.8350000000000         2.125779799030095E-097
   66.0250000000000         1.613588064993552E-097
   66.2150000000000         4.073647339094842E-098
   66.4050000000000        -1.787807927564737E-097
   66.5950000000000        -5.301155795010118E-097
   66.7850000000000        -1.046048018946798E-096
   66.9750000000000        -1.753107459161865E-096
   67.1650000000000        -2.662250152156459E-096
   67.3550000000000        -3.755750718526690E-096
   67.5450000000000        -4.970015055520514E-096
   67.7350000000000        -6.174540831168739E-096
   67.9250000000000        -7.148074945035372E-096
   68.1150000000000        -7.554201607775379E-096
   68.3050000000000        -6.920170712912472E-096
   68.4950000000000        -4.624728358304053E-096
   68.6850000000000         9.704755123479052E-098
   68.8750000000000         8.121561189216634E-096
   69.0650000000000         2.036468923994407E-095
   69.2550000000000         3.765603232423601E-095
   69.4450000000000         6.054539169058125E-095
   69.6350000000000         8.902943888204823E-095
   69.8250000000000         1.221916069377541E-094
   70.0150000000000         1.577573493239900E-094
   70.2050000000000         1.915810412348864E-094
   70.3950000000000         2.171006861889215E-094
   70.5850000000000         2.248225751306824E-094
   70.7750000000000         2.019298006054986E-094
   70.9650000000000         1.321447979166399E-094
   71.1550000000000        -3.985586852857736E-096
   71.3450000000000        -2.281774924147248E-094
   71.5350000000000        -5.626356350425927E-094
   71.7250000000000        -1.027167823156936E-093
   71.9150000000000        -1.634946746341368E-093
   72.1050000000000        -2.386717086961941E-093
   72.2950000000000        -3.263327718601086E-093
   72.4850000000000        -4.216602348060260E-093
   72.6750000000000        -5.158756589207777E-093
   72.8650000000000        -5.950833196727877E-093
   73.0550000000000        -6.390967013204860E-093
   73.2450000000000        -6.203713565466632E-093
   73.4350000000000        -5.032187402585692E-093
   73.6250000000000        -2.435367931028514E-093
   73.8150000000000         2.106344320162443E-093
   74.0050000000000         9.173380445578173E-093
   74.1950000000000         1.937211272578459E-092
   74.3850000000000         3.327668692766533E-092
   74.5750000000000         5.134009742286636E-092
   74.7650000000000         7.376557488010626E-092
   74.9550000000000         1.003279626185364E-091
   75.1450000000000         1.301337532007745E-091
   75.3350000000000         1.613084372321044E-091
   75.5250000000000         1.906017508188211E-091
   75.7150000000000         2.129067566092570E-091
   75.9050000000000         2.206995082517096E-091
   76.0950000000000         2.034250243446052E-091
   76.2850000000000         1.468857166991898E-091
   76.4750000000000         3.273391158100194E-092
   76.6650000000000        -1.617658479376009E-091
   76.8550000000000        -4.634539701508696E-091
   77.0450000000000        -9.021155471977480E-091
   77.2350000000000        -1.507962661486082E-090
   77.4250000000000        -2.307150155468461E-090
   77.6150000000000        -3.314601165684942E-090
   77.8050000000000        -4.523352146188896E-090
   77.9950000000000        -5.889658018355896E-090
   78.1850000000000        -7.313294176914598E-090
   78.3750000000000        -8.612939609563510E-090
   78.5650000000000        -9.497326248769864E-090
   78.7550000000000        -9.534103535534181E-090
   78.9450000000000        -8.120196685416423E-090
   79.1350000000000        -4.459904263890425E-090
   79.3250000000000         2.439907599999894E-090
   79.5150000000000         1.374450444381133E-089
   79.7050000000000         3.071894402399455E-089
   79.8950000000000         5.458807800569800E-089
   80.0850000000000         8.630562413169398E-089
   80.2750000000000         1.262085876079674E-088
   80.4650000000000         1.735366165319648E-088
   80.6550000000000         2.258048815115866E-088
   80.8450000000000         2.780360222742412E-088
   81.0350000000000         3.218839746687711E-088
   81.2250000000000         3.447222534151482E-088
   81.4150000000000         3.288230069308706E-088
   81.6050000000000         2.508210015223312E-088
   81.7950000000000         8.173650735742971E-089
   81.9850000000000        -2.120825818621064E-088
   82.1750000000000        -6.666560638153143E-088
   82.3650000000000        -1.316196746278132E-087
   82.5550000000000        -2.186535281685191E-087
   82.7450000000000        -3.285661245521149E-087
   82.9350000000000        -4.591050652487387E-087
   83.1250000000000        -6.033750923072300E-087
   83.3150000000000        -7.479685318158942E-087
   83.5050000000000        -8.709358932499864E-087
   83.6950000000000        -9.398123985013114E-087
   83.8850000000000        -9.100396037027332E-087
   84.0750000000000        -7.242669266035376E-087
   84.2650000000000        -3.131767038384047E-087
   84.4550000000000         4.013680994624544E-087
   84.6450000000000         1.499927856066449E-086
   84.8350000000000         3.054854860889572E-086
   85.0250000000000         5.114490676303502E-086
   85.2150000000000         7.681478115545106E-086
   85.4050000000000         1.068493181348465E-085
   85.5950000000000         1.394697408044751E-085
   85.7850000000000         1.714527231641811E-085
   85.9750000000000         1.977475399785683E-085
   86.1650000000000         2.111363265134066E-085
   86.3550000000000         2.020120386990194E-085
   86.5450000000000         1.583743341940346E-085
   86.7350000000000         6.616921278116882E-086
   86.9250000000000        -8.987985131991177E-086
   87.1150000000000        -3.247886156896358E-085
   87.3050000000000        -6.510188030516197E-085
   87.4950000000000        -1.075244043934512E-084
   87.6850000000000        -1.594104812418424E-084
   87.8750000000000        -2.188986221034379E-084
   88.0650000000000        -2.820009197213415E-084
   88.2550000000000        -3.419641407037875E-084
   88.4450000000000        -3.886611197551215E-084
   88.6350000000000        -4.081140141919346E-084
   88.8250000000000        -3.822881090868776E-084
   89.0150000000000        -2.893328393265371E-084
   89.2050000000000        -1.044807169218788E-084
   89.3950000000000         1.981618736571309E-084
   89.5850000000000         6.426944246301333E-084
   89.7750000000000         1.247161928549668E-083
   89.9650000000000         2.017813598331133E-083
   90.1550000000000         2.941865850947291E-083
   90.3450000000000         3.978949008201227E-083
   90.5350000000000         5.051689222075549E-083
   90.7250000000000         6.036230783857483E-083
   90.9150000000000         6.753934080823880E-083
   91.1050000000000         6.965973016988805E-083
   91.2950000000000         6.373067720008534E-083
   91.4850000000000         4.623067881244631E-083
   91.6750000000000         1.329469098510071E-083
   91.8650000000000        -3.895906537287044E-083
   92.0550000000000        -1.139303385132755E-082
   92.2450000000000        -2.138427798502186E-082
   92.4350000000000        -3.388447964527033E-082
   92.6250000000000        -4.859172183534656E-082
   92.8150000000000        -6.476307216845758E-082
   93.0050000000000        -8.108370130275511E-082
   93.1950000000000        -9.554285453964036E-082
   93.3850000000000        -1.053360276507247E-081
   93.5750000000000        -1.068190099104203E-081
   93.7650000000000        -9.554561549456108E-082
   93.9550000000000        -6.642606841022065E-082
   94.1450000000000        -1.404598641353741E-082
   94.3350000000000         6.681470582990554E-082
   94.5250000000000         1.804294828917052E-081
   94.7150000000000         3.291190417466186E-081
   94.9050000000000         5.119925430825071E-081
   95.0950000000000         7.234697555441459E-081
   95.2850000000000         9.516611062867848E-081
   95.4750000000000         1.176737488810167E-080
   95.6650000000000         1.369486437468420E-080
   95.8550000000000         1.490322630044335E-080
   96.0450000000000         1.489092931327468E-080
   96.2350000000000         1.306080865935948E-080
   96.4250000000000         8.746610011705105E-081
   96.6150000000000         1.260657028813699E-081
   96.8050000000000        -1.003312064409180E-080
   96.9950000000000        -2.561764702509657E-080
   97.1850000000000        -4.569146852158333E-080
   97.3750000000000        -7.000968695973636E-080
   97.5650000000000        -9.770312882987538E-080
   97.7550000000000        -1.270872577477756E-079
   97.9450000000000        -1.554788955610381E-079
   98.1350000000000        -1.790462260617711E-079
   98.3250000000000        -1.927253149997476E-079
   98.5150000000000        -1.902437248311468E-079
   98.7050000000000        -1.642976707405560E-079
   98.8950000000000        -1.069321934591476E-079
   99.0850000000000        -1.017237905110611E-080
   99.2750000000000         1.330540988813529E-079
   99.4650000000000         3.276788093428477E-079
   99.6550000000000         5.749404305129879E-079
   99.8450000000000         8.705576823744690E-079
   100.035000000000         1.202715794142282E-078
   100.225000000000         1.550016051369247E-078
   100.415000000000         1.879608696338336E-078
   100.605000000000         2.145805863608098E-078
   100.795000000000         2.289546959992335E-078
   100.985000000000         2.239154905201021E-078
   101.175000000000         1.912866111073100E-078
   101.365000000000         1.223625555501720E-078
   101.555000000000         8.659429679657928E-080
   101.745000000000        -1.570297279107497E-078
   101.935000000000        -3.792618318055821E-078
   102.125000000000        -6.582698859989499E-078
   102.315000000000        -9.880466964971782E-078
   102.505000000000        -1.354296814189498E-077
   102.695000000000        -1.732429494378843E-077
   102.885000000000        -2.085834530943770E-077
   103.075000000000        -2.364753984188632E-077
   103.265000000000        -2.506128961266882E-077
   103.455000000000        -2.434852218843330E-077
   103.645000000000        -2.066882613458265E-077
   103.835000000000        -1.314662554218514E-077
   104.025000000000        -9.520964120321148E-079
   104.215000000000         1.658886392716542E-077
   104.405000000000         3.985553828681321E-077
   104.595000000000         6.876725092299239E-077
   104.785000000000         1.025994040434237E-076
   104.975000000000         1.397929307003590E-076
   105.165000000000         1.777751442254910E-076
   105.355000000000         2.128160765870604E-076
   105.545000000000         2.399503658452895E-076
   105.735000000000         2.529998667160848E-076
   105.925000000000         2.447355182345997E-076
   106.115000000000         2.072175414477227E-076
   106.305000000000         1.323495740103007E-076
   106.495000000000         1.267366006145949E-077
   106.685000000000        -1.575820285550327E-076
   106.875000000000        -3.812131481216768E-076
   107.065000000000        -6.565472045884171E-076
   107.255000000000        -9.758275057580096E-076
   107.445000000000        -1.323594795609832E-075
   107.635000000000        -1.675236421368787E-075
   107.825000000000        -1.995921693297741E-075
   108.015000000000        -2.240186684782054E-075
   108.205000000000        -2.352465705835444E-075
   108.395000000000        -2.268882369228144E-075
   108.585000000000        -1.920601863416906E-075
   108.775000000000        -1.238998617583472E-075
   108.965000000000        -1.628012274715580E-076
   109.155000000000         1.352768012227177E-075
   109.345000000000         3.325042898867128E-075
   109.535000000000         5.731594640767614E-075
   109.725000000000         8.497296488235788E-075
   109.915000000000         1.148187109464205E-074
   110.105000000000         1.446938349421159E-074