  -1.42500000000000         0.000000000000000E+000
  -1.23500000000000         0.000000000000000E+000
  -1.04500000000000         0.000000000000000E+000
 -0.855000000000000         0.000000000000000E+000
 -0.665000000000000         0.000000000000000E+000
 -0.475000000000000         0.000000000000000E+000
 -0.285000000000000         0.000000000000000E+000
 -9.499999999999975E-002    0.000000000000000E+000
  9.500000000000020E-002    0.000000000000000E+000
  0.285000000000000         0.000000000000000E+000
  0.475000000000000         0.000000000000000E+000
  0.665000000000000         0.000000000000000E+000
  0.855000000000000         0.000000000000000E+000
   1.04500000000000         0.000000000000000E+000
   1.23500000000000         0.000000000000000E+000
   1.42500000000000         0.000000000000000E+000
   1.61500000000000         0.000000000000000E+000
   1.80500000000000         0.000000000000000E+000
   1.99500000000000         0.000000000000000E+000
   2.18500000000000         0.000000000000000E+000
   2.37500000000000         0.000000000000000E+000
   2.56500000000000         0.000000000000000E+000
   2.75500000000000         0.000000000000000E+000
   2.94500000000000         0.000000000000000E+000
   3.13500000000000         0.000000000000000E+000
   3.32500000000000         0.000000000000000E+000
   3.51500000000000         0.000000000000000E+000
   3.70500000000000         0.000000000000000E+000
   3.89500000000000         0.000000000000000E+000
   4.08500000000000         0.000000000000000E+000
   4.27500000000000         0.000000000000000E+000
   4.46500000000000         0.000000000000000E+000
   4.65500000000000         0.000000000000000E+000
   4.84500000000000         0.000000000000000E+000
   5.03500000000000         0.000000000000000E+000
   5.22500000000000         0.000000000000000E+000
   5.41500000000000         0.000000000000000E+000
   5.60500000000000         0.000000000000000E+000
   5.79500000000000         0.000000000000000E+000
   5.98500000000000         0.000000000000000E+000
   6.17500000000000         0.000000000000000E+000
   6.36500000000000         0.000000000000000E+000
   6.55500000000000         0.000000000000000E+000
   6.74500000000000         0.000000000000000E+000
   6.93500000000000         0.000000000000000E+000
   7.12500000000000         2.336161133767491E-193
   7.31500000000000         3.058093202297369E-187
   7.50500000000000         1.277017182662494E-185
   7.69500000000000        -2.011050017780555E-183
   7.88500000000000        -1.736909774988277E-181
   8.07500000000000        -6.910740201859263E-180
   8.26500000000000        -1.819746138457007E-178
   8.45500000000000        -3.595456915773241E-177
   8.64500000000000        -5.689183404239172E-176
   8.83500000000000        -7.503612648579511E-175
   9.02500000000000        -8.473940736459098E-174
   9.21500000000000        -8.351141734567088E-173
   9.40500000000000        -7.281620825075515E-172
   9.59500000000000        -5.673403333421922E-171
   9.78500000000000        -3.976932644794741E-170
   9.97500000000000        -2.517865132206134E-169
   10.1650000000000        -1.440739219592225E-168
   10.3550000000000        -7.423321994523782E-168
   10.5450000000000        -3.406323221510148E-167
   10.7350000000000        -1.355789418950015E-166
   10.9250000000000        -4.366606620130351E-166
   11.1150000000000        -8.630035776583230E-166
   11.3050000000000         1.686519244496790E-165
   11.4950000000000         3.086640454103010E-164
   11.6850000000000         2.170120697648851E-163
   11.8750000000000         1.153600135408143E-162
   12.0650000000000         5.137695699029416E-162
   12.2550000000000         1.955359311824476E-161
   12.4450000000000         6.179657035595847E-161
   12.6350000000000         1.410522951318257E-160
   12.8250000000000         4.328087499028898E-161
   13.0150000000000        -1.983328470942407E-159
   13.2050000000000        -1.566567934131987E-158
   13.3950000000000        -8.642488918826024E-158
   13.5850000000000        -4.042330198262610E-157
   13.7750000000000        -1.700640751047056E-156
   13.9650000000000        -6.607355547849303E-156
   14.1550000000000        -2.404333392001302E-155
   14.3450000000000        -8.262319439896033E-155
   14.5350000000000        -2.694635352688372E-154
   14.7250000000000        -8.362970124118887E-154
   14.9150000000000        -2.471915324691862E-153
   15.1050000000000        -6.950163705274527E-153
   15.2950000000000        -1.851628954123139E-152
   15.4850000000000        -4.635827216655244E-152
   15.6750000000000        -1.072675404153741E-151
   15.8650000000000        -2.211256205672807E-151
   16.0550000000000        -3.668694857937510E-151
   16.2450000000000        -2.825363978764591E-151
   16.4350000000000         1.265956175599118E-150
   16.6250000000000         8.868742726460924E-150
   16.8150000000000         3.765984689654020E-149
   17.0050000000000         1.336910231233723E-148
   17.1950000000000         4.286295303969175E-148
   17.3850000000000         1.279181146276390E-147
   17.5750000000000         3.603997777147810E-147
   17.7650000000000         9.650987314708971E-147
   17.9550000000000         2.462401115074923E-146
   18.1450000000000         5.981071186482388E-146
   18.3350000000000         1.377056027082026E-145
   18.5250000000000         2.977205867261470E-145
   18.7150000000000         5.931717697158001E-145
   18.9050000000000         1.044771297412121E-144
   19.0950000000000         1.443889884190910E-144
   19.2850000000000         7.127428547673275E-145
   19.4750000000000        -4.919821818809490E-144
   19.6650000000000        -2.668321703721528E-143
   19.8550000000000        -9.488857308550341E-143
   20.0450000000000        -2.856474282715259E-142
   20.2350000000000        -7.789394015192754E-142
   20.4250000000000        -1.977813487292521E-141
   20.6150000000000        -4.738221691991289E-141
   20.8050000000000        -1.077992585572133E-140
   20.9950000000000        -2.334894854775720E-140
   21.1850000000000        -4.811532986961649E-140
   21.3750000000000        -9.395145849591174E-140
   21.5650000000000        -1.722743136335285E-139
   21.7550000000000        -2.912800543700442E-139
   21.9450000000000        -4.361751877264505E-139
   22.1350000000000        -5.157982294557503E-139
   22.3250000000000        -2.356095071260543E-139
   22.5150000000000         1.179037698531055E-138
   22.7050000000000         5.543583106264244E-138
   22.8950000000000         1.677545410913119E-137
   23.0850000000000         4.276330620514085E-137
   23.2750000000000         9.838808040230415E-137
   23.4650000000000         2.098470185330796E-136
   23.6550000000000         4.196066451856511E-136
   23.8450000000000         7.890130564837852E-136
   24.0350000000000         1.390213862171446E-135
   24.2250000000000         2.267773940237872E-135
   24.4150000000000         3.328661313942155E-135
   24.6050000000000         4.080674896180695E-135
   24.7950000000000         3.076383193040019E-135
   24.9850000000000        -3.172456798053175E-135
   25.1750000000000        -2.215775827315918E-134
   25.3650000000000        -6.865137963841986E-134
   25.5550000000000        -1.696667817872047E-133
   25.7450000000000        -3.709647664374741E-133
   25.9350000000000        -7.433937108208643E-133
   26.1250000000000        -1.383607171690000E-132
   26.3150000000000        -2.395871148742690E-132
   26.5050000000000        -3.826853979168692E-132
   26.6950000000000        -5.499652118698126E-132
   26.8850000000000        -6.653051483146130E-132
   27.0750000000000        -5.236428582979298E-132
   27.2650000000000         3.350703967375866E-132
   27.4550000000000         2.831810171677604E-131
   27.6450000000000         8.650350139980067E-131
   27.8350000000000         2.061265360755457E-130
   28.0250000000000         4.300148680220133E-130
   28.2150000000000         8.147342906009003E-130
   28.4050000000000         1.417520474542071E-129
   28.5950000000000         2.254804998060779E-129
   28.7850000000000         3.202907832335821E-129
   28.9750000000000         3.792055293359971E-129
   29.1650000000000         2.820335335565331E-129
   29.3550000000000        -2.308800024619231E-129
   29.5450000000000        -1.662455529033817E-128
   29.7350000000000        -4.904195627544634E-128
   29.9250000000000        -1.140666363620360E-127
   30.1150000000000        -2.330968397061420E-127
   30.3050000000000        -4.336575491036677E-127
   30.4950000000000        -7.430332209477121E-127
   30.6850000000000        -1.169610185068201E-126
   30.8750000000000        -1.660372570777515E-126
   31.0650000000000        -2.016260188426239E-126
   31.2550000000000        -1.739176355155650E-126
   31.4450000000000         2.220667880989774E-127
   31.6350000000000         5.858278614717547E-126
   31.8250000000000         1.862816310168994E-125
   32.0150000000000         4.407081780602865E-125
   32.2050000000000         9.029398269384403E-125
   32.3950000000000         1.678343990681142E-124
   32.5850000000000         2.878652226066201E-124
   32.7750000000000         4.568814366703687E-124
   32.9650000000000         6.647449109547835E-124
   33.1550000000000         8.613128498452382E-124
   33.3450000000000         9.150131761379987E-124
   33.5350000000000         5.453135540842100E-124
   33.7250000000000        -7.784883002253009E-124
   33.9150000000000        -3.974541701968677E-123
   34.1050000000000        -1.050942215836004E-122
   34.2950000000000        -2.253839766666999E-122
   34.4850000000000        -4.292001998322863E-122
   34.6750000000000        -7.489647414140136E-122
   34.8650000000000        -1.210684431159453E-121
   35.0550000000000        -1.810594649592273E-121
   35.2450000000000        -2.469634703561232E-121
   35.4350000000000        -2.953411392189665E-121
   35.6250000000000        -2.742897180151152E-121
   35.8150000000000        -8.419854386978956E-122
   36.0050000000000         4.483363344085976E-121
   36.1950000000000         1.601589414250908E-120
   36.3850000000000         3.787906293026295E-120
   36.5750000000000         7.564926056243731E-120
   36.7650000000000         1.359733744217156E-119
   36.9550000000000         2.251415476318254E-119
   37.1450000000000         3.457359806014662E-119
   37.3350000000000         4.900646172486799E-119
   37.5250000000000         6.286545747313128E-119
   37.7150000000000         6.917780740058150E-119
   37.9050000000000         5.421212112863953E-119
   38.0950000000000        -6.217628451681708E-120
   38.2850000000000        -1.511923279312393E-118
   38.4750000000000        -4.390480902001649E-118
   38.6650000000000        -9.497524173019200E-118
   38.8550000000000        -1.781645010783422E-117
   39.0450000000000        -3.036303427848894E-117
   39.2350000000000        -4.781793795914975E-117
   39.4250000000000        -6.980353280400189E-117
   39.6150000000000        -9.362349173089294E-117
   39.8050000000000        -1.122580316053155E-116
   39.9950000000000        -1.114290688765731E-116
   40.1850000000000        -6.566841261808470E-117
   40.3750000000000         6.638529838150873E-117
   40.5650000000000         3.466641138894591E-116
   40.7550000000000         8.605471305301849E-116
   40.9450000000000         1.714637822288506E-115
   41.1350000000000         3.023977808819581E-115
   41.3250000000000         4.880432037542454E-115
   41.5150000000000         7.290794186544224E-115
   41.7050000000000         1.007026175871819E-114
   41.8950000000000         1.267566594902867E-114
   42.0850000000000         1.396553668528758E-114
   42.2750000000000         1.188434280306004E-114
   42.4650000000000         3.091160192177941E-115
   42.6550000000000        -1.740490913085157E-114
   42.8450000000000        -5.647171562419569E-114
   43.0350000000000        -1.227110511496816E-113
   43.2250000000000        -2.255758832022707E-113
   43.4150000000000        -3.732106350891705E-113
   43.6050000000000        -5.683015200429438E-113
   43.7950000000000        -8.010872249615830E-113
   43.9850000000000        -1.038667632267556E-112
   44.1750000000000        -1.209994567156813E-112
   44.3650000000000        -1.186627409963834E-112
   44.5550000000000        -7.607403173439918E-113
   44.7450000000000         3.757299953558321E-113
   44.9350000000000         2.643220973241828E-112
   45.1250000000000         6.565237126975328E-112
   45.3150000000000         1.271832379052398E-111
   45.5050000000000         2.161466653426255E-111
   45.6950000000000         3.348380267069345E-111
   45.8850000000000         4.791610817308681E-111
   46.0750000000000         6.333398252259723E-111
   46.2650000000000         7.627285669129049E-111
   46.4550000000000         8.049099153665501E-111
   46.6450000000000         6.599356174539729E-111
   46.8350000000000         1.816182115860354E-111
   47.0250000000000        -8.267116304279627E-111
   47.2150000000000        -2.606605640123114E-110
   47.4050000000000        -5.421387371671848E-110
   47.5950000000000        -9.505562610982554E-110
   47.7850000000000        -1.497509205129219E-109
   47.9750000000000        -2.168677558424048E-109
   48.1650000000000        -2.903793105920160E-109
   48.3550000000000        -3.570536372984756E-109
   48.5450000000000        -3.933746869259797E-109
   48.7350000000000        -3.623732034951980E-109
   48.9250000000000        -2.110931438460474E-109
   49.1150000000000         1.301262530542226E-109
   49.3050000000000         7.448378471559868E-109
   49.4950000000000         1.721883226764765E-108
   49.6850000000000         3.138311548671630E-108
   49.8750000000000         5.031027548019367E-108
   50.0650000000000         7.354872435108450E-108
   50.2550000000000         9.926292586206091E-108
   50.4450000000000         1.235454201499158E-107
   50.6350000000000         1.396684165233096E-107
   50.8250000000000         1.374026800257189E-107
   51.0150000000000         1.026122103695486E-107
   51.2050000000000         1.742432744335773E-108
   51.3950000000000        -1.386385852637604E-107
   51.5850000000000        -3.861221194048409E-107
   51.7750000000000        -7.412620953288336E-107
   51.9650000000000        -1.209449762260025E-106
   52.1550000000000        -1.776505619869943E-106
   52.3450000000000        -2.398218921668405E-106
   52.5350000000000        -2.989336624532291E-106
   52.7250000000000        -3.414129041633296E-106
   52.9150000000000        -3.481727201173894E-106
   53.1050000000000        -2.950420164252640E-106
   53.2950000000000        -1.545686705626991E-106
   53.4850000000000         1.003563039561080E-106
   53.6750000000000         4.907845640945376E-106
   53.8650000000000         1.024029328082104E-105
   54.0550000000000         1.684800774506296E-105
   54.2450000000000         2.426889064658707E-105
   54.4350000000000         3.168309579352978E-105
   54.6250000000000         3.794077158873848E-105
   54.8150000000000         4.171765778593958E-105
   55.0050000000000         4.185199346759397E-105
   55.1950000000000         3.790245144568747E-105
   55.3850000000000         3.092785728949307E-105
   55.5750000000000         2.441485708342173E-105
   55.7650000000000         2.516048757421278E-105
   55.9550000000000         4.374903780628112E-105
   56.1450000000000         9.405370471819685E-105
   56.3350000000000         1.909683214037003E-104
   56.5250000000000         3.453840790460242E-104
   56.7150000000000         5.553561272288199E-104
   56.9050000000000         7.925804324045804E-104
   57.0950000000000         9.838867697213083E-104
   57.2850000000000         9.886417905898972E-104
   57.4750000000000         5.749399955141704E-104
   57.6650000000000        -5.996155033158435E-104
   57.8550000000000        -2.992857514179357E-103
   58.0450000000000        -7.154410104256155E-103
   58.2350000000000        -1.365433900032909E-102
   58.4250000000000        -2.294108984789374E-102
   58.6150000000000        -3.510444579752422E-102
   58.8050000000000        -4.952304344462100E-102
   58.9950000000000        -6.438798820276018E-102
   59.1850000000000        -7.611790123262715E-102
   59.3750000000000        -7.871988213898424E-102
   59.5650000000000        -6.320808302205073E-102
   59.7550000000000        -1.726740636284843E-102
   59.9450000000000         7.455906639962888E-102
   60.1350000000000         2.297832350490327E-101
   60.3250000000000         4.655245301848760E-101
   60.5150000000000         7.941945120635125E-101
   60.7050000000000         1.216838766450576E-100
   60.8950000000000         1.713823130421604E-100
   61.0850000000000         2.232900746676819E-100
   61.2750000000000         2.675293125459430E-100
   61.4650000000000         2.881310929390181E-100
   61.6550000000000         2.618248605999619E-100
   61.8450000000000         1.574779047717551E-100
   62.0350000000000        -6.322627654723367E-101
   62.2250000000000        -4.431208833670454E-100
   62.4150000000000        -1.024030867239622E-099
   62.6050000000000        -1.837495261247731E-099
   62.7950000000000        -2.890976898952649E-099
   62.9850000000000        -4.149174196292891E-099
   63.1750000000000        -5.510746134025641E-099
   63.3650000000000        -6.781851775070497E-099
   63.5550000000000        -7.649430450416719E-099
   63.7450000000000        -7.659091228730984E-099
   63.9350000000000        -6.204734072523950E-099
   64.1250000000000        -2.539361251333343E-099
   64.3150000000000         4.181424151839334E-099
   64.5050000000000         1.481054337639272E-098
   64.6950000000000         3.006286380726358E-098
   64.8850000000000         5.030133586827651E-098
   65.0750000000000         7.525225132092147E-098
   65.2650000000000         1.036560073660443E-097
   65.4550000000000         1.328741635271448E-097
   65.6450000000000         1.584922765524740E-097
   65.8350000000000         1.739800248748911E-097
   66.0250000000000         1.704934242915626E-097
   66.2150000000000         1.369251541880926E-097
   66.4050000000000         6.032354202154872E-098
   66.5950000000000        -7.319704787415749E-098
   66.7850000000000        -2.769478524326660E-097
   66.9750000000000        -5.614927539372414E-097
   67.1650000000000        -9.318110589707805E-097
   67.3550000000000        -1.383889469408361E-096
   67.5450000000000        -1.900949068289027E-096
   67.7350000000000        -2.449629849668805E-096
   67.9250000000000        -2.976552492765161E-096
   68.1150000000000        -3.405722449168274E-096
   68.3050000000000        -3.637197456980821E-096
   68.4950000000000        -3.547270209339239E-096
   68.6850000000000        -2.990099387377022E-096
   68.8750000000000        -1.800258994258187E-096
   69.0650000000000         2.048798313280361E-097
   69.2550000000000         3.224546263136186E-096
   69.4450000000000         7.477641053718166E-096
   69.6350000000000         1.321109784856151E-095
   69.8250000000000         2.071388988287513E-095
   70.0150000000000         3.033429615850181E-095
   70.2050000000000         4.249331010418948E-095
   70.3950000000000         5.767994574187613E-095
   70.5850000000000         7.640454053186089E-095
   70.7750000000000         9.907435235121560E-095
   70.9650000000000         1.257429897111633E-094
   71.1550000000000         1.556738260779799E-094
   71.3450000000000         1.866513195266188E-094
   71.5350000000000         2.139785888584814E-094
   71.7250000000000         2.291219808514029E-094
   71.9150000000000         2.180125734627726E-094
   72.1050000000000         1.591003903999466E-094
   72.2950000000000         2.138900580663133E-095
   72.4850000000000        -2.371367139636788E-094
   72.6750000000000        -6.700369074793321E-094
   72.8650000000000        -1.340956340457033E-093
   73.0550000000000        -2.318921774458939E-093
   73.2450000000000        -3.668839278138082E-093
   73.4350000000000        -5.435407635598466E-093
   73.6250000000000        -7.618605989963702E-093
   73.8150000000000        -1.013914646325604E-092
   74.0050000000000        -1.279295815539889E-092
   74.1950000000000        -1.519506390692708E-092
   74.3850000000000        -1.671531249454899E-092
   74.5750000000000        -1.641151200468103E-092
   74.7650000000000        -1.296970575893682E-092
   74.9550000000000        -4.666680636561130E-093
   75.1450000000000         1.062381023263217E-092
   75.3350000000000         3.535252315250611E-092
   75.5250000000000         7.210812673760652E-092
   75.7150000000000         1.232805260049279E-091
   75.9050000000000         1.905283261426199E-091
   76.0950000000000         2.740054087931905E-091
   76.2850000000000         3.713095621651926E-091
   76.4750000000000         4.761345937761166E-091
   76.6650000000000         5.766402216829867E-091
   76.8550000000000         6.536055303990335E-091
   77.0450000000000         6.785061936608275E-091
   77.2350000000000         6.117568363483127E-091
   77.4250000000000         4.014903795335940E-091
   77.6150000000000        -1.659390731793899E-092
   77.8050000000000        -7.175965609227025E-091
   77.9950000000000        -1.783080415821314E-090
   78.1850000000000        -3.292914209731307E-090
   78.3750000000000        -5.312019001656491E-090
   78.5650000000000        -7.870656774753810E-090
   78.7550000000000        -1.093696490174089E-089
   78.9450000000000        -1.438073976651629E-089
   79.1350000000000        -1.792812134232000E-089
   79.3250000000000        -2.110796589879040E-089
   79.5150000000000        -2.319247360562716E-089
   79.7050000000000        -2.313722636742971E-089
   79.8950000000000        -1.952933886977796E-089
   80.0850000000000        -1.055703246209235E-089
   80.2750000000000         5.980395718555042E-090
   80.4650000000000         3.259669537637082E-089
   80.6550000000000         7.194439394980320E-089
   80.8450000000000         1.265030838361887E-088
   81.0350000000000         1.980863919654302E-088
   81.2250000000000         2.871226686145164E-088
   81.4150000000000         3.916698138462700E-088
   81.6050000000000         5.061400555628729E-088
   81.7950000000000         6.197402055003052E-088
   81.9850000000000         7.146818011587763E-088
   82.1750000000000         7.642885498435873E-088
   82.3650000000000         7.312299235826362E-088
   82.5550000000000         5.662420854764670E-088
   82.7450000000000         2.078595804143929E-088
   82.9350000000000        -4.161331628022266E-088
   83.1250000000000        -1.384627222750607E-087
   83.3150000000000        -2.775411104242558E-087
   83.5050000000000        -4.652488785178318E-087
   83.6950000000000        -7.047286954172538E-087
   83.8850000000000        -9.932725972595207E-087
   84.0750000000000        -1.318959056118075E-086
   84.2650000000000        -1.656548334007119E-086
   84.4550000000000        -1.962798808359380E-086
   84.6450000000000        -2.171561158773165E-086
   84.8350000000000        -2.189268378717107E-086
   85.0250000000000        -1.891768359557297E-086
   85.2150000000000        -1.123832956137072E-086
   85.4050000000000         2.969013069615892E-087
   85.5950000000000         2.569394979194123E-086
   85.7850000000000         5.889573983843550E-086
   85.9750000000000         1.041895990507104E-085
   86.1650000000000         1.623908379034231E-085
   86.3550000000000         2.328985134378278E-085
   86.5450000000000         3.129134509530512E-085
   86.7350000000000         3.965074083893539E-085
   86.9250000000000         4.735927133325931E-085
   87.1150000000000         5.288863089949291E-085
   87.3050000000000         5.410192190534328E-085
   87.4950000000000         4.820107655454024E-085
   87.6850000000000         3.174028323930208E-085
   87.8750000000000         7.426196048072116E-087
   88.0650000000000        -4.903625108341688E-085
   88.2550000000000        -1.216494039405843E-084
   88.4450000000000        -2.202577132642703E-084
   88.6350000000000        -3.461472977805776E-084
   88.8250000000000        -4.974442458597634E-084
   89.0150000000000        -6.675373009815970E-084
   89.2050000000000        -8.432675742393719E-084
   89.3950000000000        -1.003011715075665E-083
   89.5850000000000        -1.114872272358234E-083
   89.7750000000000        -1.135294830873240E-083
   89.9650000000000        -1.008551089897078E-083
   90.1550000000000        -6.676508973143137E-084
   90.3450000000000        -3.735907104193253E-085
   90.5350000000000         9.599274982683522E-084
   90.7250000000000         2.394669997188284E-083
   90.9150000000000         4.316355113647179E-083
   91.1050000000000         6.734874421229213E-083
   91.2950000000000         9.597063098426933E-083
   91.4850000000000         1.275899028678084E-082
   91.6750000000000         1.595550608126014E-082
   91.8650000000000         1.876974782893286E-082
   92.0550000000000         2.060677793039881E-082
   92.2450000000000         2.067720890012313E-082
   92.4350000000000         1.799845109672407E-082
   92.6250000000000         1.142290086071999E-082
   92.8150000000000        -2.963099802923168E-084
   93.0050000000000        -1.839083570941490E-082
   93.1950000000000        -4.390342342398217E-082
   93.3850000000000        -7.744697815806568E-082
   93.5750000000000        -1.188931903427136E-081
   93.7650000000000        -1.669953108389985E-081
   93.9550000000000        -2.189608705364018E-081
   94.1450000000000        -2.700050481423765E-081
   94.3350000000000        -3.129338952864382E-081
   94.5250000000000        -3.378281059978313E-081
   94.7150000000000        -3.319211267870381E-081
   94.9050000000000        -2.797879067748070E-081
   95.0950000000000        -1.639791991271868E-081
   95.2850000000000         3.375337683321543E-082
   95.4750000000000         3.304998599437456E-081
   95.6650000000000         7.393843001310304E-081
   95.8550000000000         1.265840456428981E-080
   96.0450000000000         1.902989957290837E-080
   96.2350000000000         2.626267865175664E-080
   96.4250000000000         3.387610198421523E-080
   96.6150000000000         4.109730981061927E-080
   96.8050000000000         4.681266622132250E-080
   96.9950000000000         4.953838842249415E-080
   97.1850000000000         4.742360126358867E-080
   97.3750000000000         3.830142476682963E-080
   97.5650000000000         1.980523318006458E-080
   97.7550000000000        -1.043268252084096E-080
   97.9450000000000        -5.448486532729839E-080
   98.1350000000000        -1.137246319131910E-079
   98.3250000000000        -1.883126119515831E-079
   98.5150000000000        -2.765852702135669E-079
   98.7050000000000        -3.743745320481304E-079
   98.8950000000000        -4.743101620811091E-079
   99.0850000000000        -5.651833032153200E-079
   99.2750000000000        -6.314792087828734E-079
   99.4650000000000        -6.532173404949563E-079
   99.6550000000000        -6.062641430128739E-079
   99.8450000000000        -4.633031690812946E-079
   100.035000000000        -1.956528027198427E-079
   100.225000000000         2.238934638059040E-079
   100.415000000000         8.170731432601648E-079
   100.605000000000         1.594956461321688E-078
   100.795000000000         2.551616291017693E-078
   100.985000000000         3.656910130679014E-078
   101.175000000000         4.848837690463697E-078
   101.365000000000         6.026201180176029E-078
   101.555000000000         7.042590403455720E-078
   101.745000000000         7.703019598652393E-078
   101.935000000000         7.764825066655965E-078
   102.125000000000         6.944647664499119E-078
   102.315000000000         4.933416309880467E-078
   102.505000000000         1.421151918932779E-078
   102.695000000000        -3.866946413065216E-078
   102.885000000000        -1.112236209372288E-077
   103.075000000000        -2.039338601422083E-077
   103.265000000000        -3.151535346952989E-077
   103.455000000000        -4.403482365379098E-077
   103.645000000000        -5.713392967707788E-077
   103.835000000000        -6.956383409882650E-077
   104.025000000000        -7.959905514151403E-077
   104.215000000000        -8.502710046569901E-077
   104.405000000000        -8.318997509577864E-077
   104.595000000000        -7.109523440460023E-077
   104.785000000000        -4.561376379180577E-077
   104.975000000000        -3.778762239152334E-078
   105.165000000000         5.680513665501916E-077
   105.355000000000         1.374426088831003E-076
   105.545000000000         2.377309697687388E-076
   105.735000000000         3.548754170123531E-076
   105.925000000000         4.829857116697708E-076
   106.115000000000         6.124267635213913E-076
   106.305000000000         7.293197595753860E-076
   106.495000000000         8.153135931326418E-076
   106.685000000000         8.477653124115807E-076
   106.875000000000         8.004792149221548E-076
   107.065000000000         6.451525046146264E-076
   107.255000000000         3.536561357608189E-076
   107.445000000000        -9.876237113593787E-077
   107.635000000000        -7.293361192740697E-076
   107.825000000000        -1.542776751596438E-075
   108.015000000000        -2.525623380148627E-075
   108.205000000000        -3.640310860200060E-075
   108.395000000000        -4.819505716737376E-075
   108.585000000000        -5.961448275629288E-075
   108.775000000000        -6.927222590249796E-075
   108.965000000000        -7.541028003671557E-075
   109.155000000000        -7.594618245551606E-075
   109.345000000000        -6.857071685863883E-075
   109.535000000000        -5.090922904332976E-075
   109.725000000000        -2.075384676999408E-075
   109.915000000000         2.363110813127823E-075
   110.105000000000         8.313543689034682E-075