  -1.42500000000000         0.000000000000000E+000
  -1.23500000000000         0.000000000000000E+000
  -1.04500000000000         0.000000000000000E+000
 -0.855000000000000         0.000000000000000E+000
 -0.665000000000000         0.000000000000000E+000
 -0.475000000000000         0.000000000000000E+000
 -0.285000000000000         0.000000000000000E+000
 -9.499999999999975E-002    0.000000000000000E+000
  9.500000000000020E-002    0.000000000000000E+000
  0.285000000000000         0.000000000000000E+000
  0.475000000000000         0.000000000000000E+000
  0.665000000000000         0.000000000000000E+000
  0.855000000000000         0.000000000000000E+000
   1.04500000000000         0.000000000000000E+000
   1.23500000000000         0.000000000000000E+000
   1.42500000000000         0.000000000000000E+000
   1.61500000000000         0.000000000000000E+000
   1.80500000000000         0.000000000000000E+000
   1.99500000000000         0.000000000000000E+000
   2.18500000000000         0.000000000000000E+000
   2.37500000000000         0.000000000000000E+000
   2.56500000000000         0.000000000000000E+000
   2.75500000000000         0.000000000000000E+000
   2.94500000000000         0.000000000000000E+000
   3.13500000000000         0.000000000000000E+000
   3.32500000000000         0.000000000000000E+000
   3.51500000000000         0.000000000000000E+000
   3.70500000000000         0.000000000000000E+000
   3.89500000000000         0.000000000000000E+000
   4.08500000000000         0.000000000000000E+000
   4.27500000000000         0.000000000000000E+000
   4.46500000000000         0.000000000000000E+000
   4.65500000000000         0.000000000000000E+000
   4.84500000000000         0.000000000000000E+000
   5.03500000000000         0.000000000000000E+000
   5.22500000000000         0.000000000000000E+000
   5.41500000000000         0.000000000000000E+000
   5.60500000000000         0.000000000000000E+000
   5.79500000000000         0.000000000000000E+000
   5.98500000000000         0.000000000000000E+000
   6.17500000000000         0.000000000000000E+000
   6.36500000000000         0.000000000000000E+000
   6.55500000000000         0.000000000000000E+000
   6.74500000000000         0.000000000000000E+000
   6.93500000000000         0.000000000000000E+000
   7.12500000000000         0.000000000000000E+000
   7.31500000000000         2.967696037991842E-207
   7.50500000000000         4.566037651617300E-200
   7.69500000000000         1.125489196097380E-194
   7.88500000000000         4.489224143931600E-193
   8.07500000000000        -6.734498264556354E-192
   8.26500000000000        -1.123863564431547E-189
   8.45500000000000        -4.928493965414032E-188
   8.64500000000000        -1.379230111495200E-186
   8.83500000000000        -2.886220276595779E-185
   9.02500000000000        -4.834845360223846E-184
   9.21500000000000        -6.738189064676725E-183
   9.40500000000000        -8.008679897504665E-182
   9.59500000000000        -8.254555951035089E-181
   9.78500000000000        -7.460377288625482E-180
   9.97500000000000        -5.949937028123796E-179
   10.1650000000000        -4.192523545508822E-178
   10.3550000000000        -2.594422596015288E-177
   10.5450000000000        -1.382670229447682E-176
   10.7350000000000        -6.011199358431672E-176
   10.9250000000000        -1.750070963747189E-175
   11.1150000000000         1.272439538327284E-175
   11.3050000000000         6.847137782162685E-174
   11.4950000000000         6.596258160119152E-173
   11.6850000000000         4.625651597762056E-172
   11.8750000000000         2.728598947148741E-171
   12.0650000000000         1.418090099622404E-170
   12.2550000000000         6.611574383413564E-170
   12.4450000000000         2.777434674302276E-169
   12.6350000000000         1.043714115453684E-168
   12.8250000000000         3.420794126979307E-168
   13.0150000000000         9.093990555010357E-168
   13.2050000000000         1.441178696042127E-167
   13.3950000000000        -3.149939075556756E-167
   13.5850000000000        -4.373035783153181E-166
   13.7750000000000        -2.661129340190647E-165
   13.9650000000000        -1.264848013907529E-164
   14.1550000000000        -5.206047552034370E-164
   14.3450000000000        -1.922082713143889E-163
   14.5350000000000        -6.446017003952658E-163
   14.7250000000000        -1.963210615723435E-162
   14.9150000000000        -5.356361768853561E-162
   15.1050000000000        -1.258625332864721E-161
   15.2950000000000        -2.251646089069035E-161
   15.4850000000000        -1.243333279705530E-161
   15.6750000000000         1.364158417100596E-160
   15.8650000000000         8.920015063821689E-160
   16.0550000000000         3.839443924177237E-159
   16.2450000000000         1.379154625723709E-158
   16.4350000000000         4.404731486124834E-158
   16.6250000000000         1.281014230602513E-157
   16.8150000000000         3.419842538865271E-157
   17.0050000000000         8.361487136939796E-157
   17.1950000000000         1.845895065084281E-156
   17.3850000000000         3.542968570879437E-156
   17.5750000000000         5.281792708018194E-156
   17.7650000000000         3.010141892514381E-156
   17.9550000000000        -1.814804816647912E-155
   18.1450000000000        -1.026198831996625E-154
   18.3350000000000        -3.667626162838028E-154
   18.5250000000000        -1.084579795938301E-153
   18.7150000000000        -2.839059491890917E-153
   18.9050000000000        -6.739838808060160E-153
   19.0950000000000        -1.461780058084851E-152
   19.2850000000000        -2.887399772696514E-152
   19.4750000000000        -5.122185430147717E-152
   19.6650000000000        -7.908164016131042E-152
   19.8550000000000        -9.893599970158973E-152
   20.0450000000000        -8.128051392380660E-152
   20.2350000000000        -2.245953634095444E-153
   20.4250000000000         2.307361736443230E-152
   20.6150000000000        -7.388928618909699E-151
   20.8050000000000        -5.026135511695984E-150
   20.9950000000000        -2.105101798632034E-149
   21.1850000000000        -7.019888073609369E-149
   21.3750000000000        -2.021160219732451E-148
   21.5650000000000        -5.199444448542559E-148
   21.7550000000000        -1.212153872364601E-147
   21.9450000000000        -2.564007758340392E-147
   22.1350000000000        -4.856776248561266E-147
   22.3250000000000        -7.909331166200312E-147
   22.5150000000000        -9.695574697414043E-147
   22.7050000000000        -2.873032315514780E-147
   22.8950000000000         3.291198480023268E-146
   23.0850000000000         1.463435392381478E-145
   23.2750000000000         4.416952548006670E-145
   23.4650000000000         1.120809180081273E-144
   23.6550000000000         2.533342543000359E-144
   23.8450000000000         5.200630431951645E-144
   24.0350000000000         9.709825854324031E-144
   24.2250000000000         1.622929700976162E-143
   24.4150000000000         2.312006773095553E-143
   24.6050000000000         2.365013825579424E-143
   24.7950000000000        -8.709219521065839E-145
   24.9850000000000        -9.402405816774060E-143
   25.1750000000000        -3.462111463549728E-142
   25.3650000000000        -9.273064710814861E-142
   25.5550000000000        -2.125982603053701E-141
   25.7450000000000        -4.375559447116223E-141
   25.9350000000000        -8.209397951512802E-141
   26.1250000000000        -1.401433900640534E-140
   26.3150000000000        -2.131367256149892E-140
   26.5050000000000        -2.708079216998491E-140
   26.6950000000000        -2.223393794517986E-140
   26.8850000000000         1.500535393700126E-140
   27.0750000000000         1.306987146902204E-139
   27.2650000000000         4.137436618893282E-139
   27.4550000000000         1.022622741818152E-138
   27.6450000000000         2.218271472540638E-138
   27.8350000000000         4.392290025638399E-138
   28.0250000000000         8.060575285107564E-138
   28.2150000000000         1.375454714114838E-137
   28.4050000000000         2.167289833397848E-137
   28.5950000000000         3.083904277310331E-137
   28.7850000000000         3.732362672017121E-137
   28.9750000000000         3.082409096828108E-137
   29.1650000000000        -1.144135589223536E-137
   29.3550000000000        -1.348798635101339E-136
   29.5450000000000        -4.230934358963198E-136
   29.7350000000000        -1.019398388973345E-135
   29.9250000000000        -2.151848977352950E-135
   30.1150000000000        -4.151941127124536E-135
   30.3050000000000        -7.441468853313500E-135
   30.4950000000000        -1.243184928123818E-134
   30.6850000000000        -1.922708400913630E-134
   30.8750000000000        -2.693551782264971E-134
   31.0650000000000        -3.226965359314591E-134
   31.2550000000000        -2.695369883150974E-134
   31.4450000000000         6.693520719408087E-135
   31.6350000000000         1.026606533360234E-133
   31.8250000000000         3.209363409145382E-133
   32.0150000000000         7.590576062583979E-133
   32.2050000000000         1.561577764035741E-132
   32.3950000000000         2.917366829882035E-132
   32.5850000000000         5.023397672056732E-132
   32.7750000000000         7.974947020598781E-132
   32.9650000000000         1.151393440807090E-131
   33.1550000000000         1.452956909971105E-131
   33.3450000000000         1.416454845078669E-131
   33.5350000000000         4.354161524934113E-132
   33.7250000000000        -2.634371785716267E-131
   33.9150000000000        -9.760266718779272E-131
   34.1050000000000        -2.403992919492373E-130
   34.2950000000000        -4.989049717228008E-130
   34.4850000000000        -9.280785876434556E-130
   34.6750000000000        -1.580963394031982E-129
   34.8650000000000        -2.475322142137270E-129
   35.0550000000000        -3.523301507168929E-129
   35.2450000000000        -4.400912673516342E-129
   35.4350000000000        -4.328331044646151E-129
   35.6250000000000        -1.732124875524371E-129
   35.8150000000000         6.224280559367502E-129
   36.0050000000000         2.420949361709984E-128
   36.1950000000000         5.925830259242409E-128
   36.3850000000000         1.209448356227759E-127
   36.5750000000000         2.205424171760939E-127
   36.7650000000000         3.680136441009195E-127
   36.9550000000000         5.649669253051094E-127
   37.1450000000000         7.908389618287630E-127
   37.3350000000000         9.786781069320095E-127
   37.5250000000000         9.764113077494858E-127
   37.7150000000000         4.901750180170911E-127
   37.9050000000000        -9.904208256367921E-127
   38.0950000000000        -4.277115660233905E-126
   38.2850000000000        -1.055375603663105E-125
   38.4750000000000        -2.138037619950382E-125
   38.6650000000000        -3.853249858302760E-125
   38.8550000000000        -6.351111880993427E-125
   39.0450000000000        -9.647121572659714E-125
   39.2350000000000        -1.342163326141998E-124
   39.4250000000000        -1.668193985568306E-124
   39.6150000000000        -1.724104000872118E-124
   39.8050000000000        -1.098203152388049E-124
   39.9950000000000         9.074692428785254E-125
   40.1850000000000         5.377796008147095E-124
   40.3750000000000         1.386046398976789E-123
   40.5650000000000         2.835195919986628E-123
   40.7550000000000         5.107848100397760E-123
   40.9450000000000         8.388731006022658E-123
   41.1350000000000         1.269786337522664E-122
   41.3250000000000         1.766192756468203E-122
   41.5150000000000         2.214195882045896E-122
   41.7050000000000         2.367830960563187E-122
   41.8950000000000         1.773567540975396E-122
   42.0850000000000        -3.212736509359612E-123
   42.2750000000000        -5.061063550215735E-122
   42.4650000000000        -1.404079141436146E-121
   42.6550000000000        -2.926636860170753E-121
   42.8450000000000        -5.290795360346899E-121
   43.0350000000000        -8.668225924488130E-121
   43.2250000000000        -1.306376933249286E-120
   43.4150000000000        -1.810630107814879E-120
   43.6050000000000        -2.272262213804697E-120
   43.7950000000000        -2.467274316589679E-120
   43.9850000000000        -1.994960567031763E-120
   44.1750000000000        -2.098868021882682E-121
   44.3650000000000         3.839161574041503E-120
   44.5550000000000         1.143333714687331E-119
   44.7450000000000         2.411947555076150E-119
   44.9350000000000         4.347774284210840E-119
   45.1250000000000         7.060916471131525E-119
   45.3150000000000         1.052010290281581E-118
   45.5050000000000         1.440133904475056E-118
   45.6950000000000         1.786521202826997E-118
   45.8850000000000         1.925859511904149E-118
   46.0750000000000         1.575714290009889E-118
   46.2650000000000         3.002477280960399E-119
   46.4550000000000        -2.515209184474318E-118
   46.6450000000000        -7.658703275992130E-118
   46.8350000000000        -1.602403960727486E-117
   47.0250000000000        -2.843675880805944E-117
   47.2150000000000        -4.531723381392796E-117
   47.4050000000000        -6.611750891821498E-117
   47.5950000000000        -8.847456024339050E-117
   47.7850000000000        -1.070528390261929E-116
   47.9750000000000        -1.121180061528640E-116
   48.1650000000000        -8.800889292364950E-117
   48.3550000000000        -1.187269690183910E-117
   48.5450000000000         1.466900382737694E-116
   48.7350000000000         4.240634376193901E-116
   48.9250000000000         8.577229849006829E-116
   49.1150000000000         1.476220935595686E-115
   49.3050000000000         2.282058493387929E-115
   49.4950000000000         3.225648369263610E-115
   49.6850000000000         4.169479496438092E-115
   49.8750000000000         4.843613002147301E-115
   50.0650000000000         4.797200958611603E-115
   50.2550000000000         3.356209813887004E-115
   50.4450000000000        -3.948817606913168E-116
   50.6350000000000        -7.580241362331945E-115
   50.8250000000000        -1.941138369293603E-114
   51.0150000000000        -3.693144454921784E-114
   51.2050000000000        -6.057568857577738E-114
   51.3950000000000        -8.950646923543970E-114
   51.5850000000000        -1.207068425548465E-113
   51.7750000000000        -1.478702758721603E-113
   51.9650000000000        -1.602132002720137E-113
   52.1550000000000        -1.414688004275657E-113
   52.3450000000000        -6.949417278555548E-114
   52.5350000000000         8.287348970588355E-114
   52.7250000000000         3.448739481208612E-113
   52.9150000000000         7.418134159175557E-113
   53.1050000000000         1.285011939651522E-112
   53.2950000000000         1.957014998246770E-112
   53.4850000000000         2.692086627680368E-112
   53.6750000000000         3.353309882156732E-112
   53.8650000000000         3.709669721892867E-112
   54.0550000000000         3.419342477853624E-112
   54.2450000000000         2.028952714187379E-112
   54.4350000000000        -9.976131622113739E-113
   54.6250000000000        -6.203934437181263E-112
   54.8150000000000        -1.400096771481358E-111
   55.0050000000000        -2.444614397920200E-111
   55.1950000000000        -3.693437224857701E-111
   55.3850000000000        -4.981169603823286E-111
   55.5750000000000        -5.995255606025974E-111
   55.7650000000000        -6.238599044339634E-111
   55.9550000000000        -5.011449865356784E-111
   56.1450000000000        -1.433770527213070E-111
   56.3350000000000         5.463854522653757E-111
   56.5250000000000         1.654765275569929E-110
   56.7150000000000         3.225288852652170E-110
   56.9050000000000         5.209540327470790E-110
   57.0950000000000         7.401846203173880E-110
   57.2850000000000         9.361114456191537E-110
   57.4750000000000         1.032985121321088E-109
   57.6650000000000         9.169449355747915E-110
   57.8550000000000         4.342456041102094E-110
   58.0450000000000        -6.014180471082410E-110
   58.2350000000000        -2.386785882544953E-109
   58.4250000000000        -5.085469386205374E-109
   58.6150000000000        -8.756264759905194E-109
   58.8050000000000        -1.324820328697985E-108
   58.9950000000000        -1.806122359850546E-108
   59.1850000000000        -2.217882955038943E-108
   59.3750000000000        -2.389096063662470E-108
   59.5650000000000        -2.064218172092793E-108
   59.7550000000000        -8.962173192377805E-109
   59.9450000000000         1.543877987450428E-108
   60.1350000000000         5.729989245862689E-108
   60.3250000000000         1.210336421766510E-107
   60.5150000000000         2.094009625754044E-107
   60.7050000000000         3.215089060506214E-107
   60.8950000000000         4.500531897756506E-107
   61.0850000000000         5.778346096303258E-107
   61.2750000000000         6.737580338379181E-107
   61.4650000000000         6.887914300329203E-107
   61.6550000000000         5.527293377957018E-107
   61.8450000000000         1.730665617922189E-107
   62.0350000000000        -5.621813485460734E-107
   62.2250000000000        -1.775329848186801E-106
   62.4150000000000        -3.580707396227141E-106
   62.6050000000000        -6.054096361733435E-106
   62.7950000000000        -9.187070445453126E-106
   62.9850000000000        -1.282428061695723E-105
   63.1750000000000        -1.658368169442373E-105
   63.3650000000000        -1.976300998869044E-105
   63.5550000000000        -2.124086312739500E-105
   63.7450000000000        -1.938776680329899E-105
   63.9350000000000        -1.201174005417498E-105
   64.1250000000000         3.626111602910794E-106
   64.3150000000000         3.067821325226668E-105
   64.5050000000000         7.239949544947373E-105
   64.6950000000000         1.315891990349614E-104
   64.8850000000000         2.097121527171111E-104
   65.0750000000000         3.056329850358101E-104
   65.2650000000000         4.139204977485688E-104
   65.4550000000000         5.227278861519354E-104
   65.6450000000000         6.113364938087956E-104
   65.8350000000000         6.475754912917317E-104
   66.0250000000000         5.855052870848958E-104
   66.2150000000000         3.639831740722863E-104
   66.4050000000000        -9.298661055796476E-105
   66.5950000000000        -8.728933937334606E-104
   66.7850000000000        -2.066795402120521E-103
   66.9750000000000        -3.754991390517732E-103
   67.1650000000000        -5.984303086770303E-103
   67.3550000000000        -8.735098881625488E-103
   67.5450000000000        -1.187673845627656E-102
   67.7350000000000        -1.511131378873135E-102
   67.9250000000000        -1.790764981338888E-102
   68.1150000000000        -1.943076176429357E-102
   68.3050000000000        -1.847656405830391E-102
   68.4950000000000        -1.342770068140199E-102
   68.6850000000000        -2.253828647781401E-103
   68.8750000000000         1.741189102387572E-102
   69.0650000000000         4.807987397474009E-102
   69.2550000000000         9.204761774282248E-102
   69.4450000000000         1.508295127346047E-101
   69.6350000000000         2.243271839959226E-101
   69.8250000000000         3.097105672247203E-101
   70.0150000000000         4.000126407892982E-101
   70.2050000000000         4.824956419001746E-101
   70.3950000000000         5.369286641005639E-101
   70.5850000000000         5.340289858546514E-101
   70.7750000000000         4.344619790670665E-101
   70.9650000000000         1.889607708809202E-101
   71.1550000000000        -2.596978609212047E-101
   71.3450000000000        -9.719669435738610E-101
   71.5350000000000        -2.003057583413068E-100
   71.7250000000000        -3.389741336761629E-100
   71.9150000000000        -5.131645091880214E-100
   72.1050000000000        -7.166724523109969E-100
   72.2950000000000        -9.341425403829081E-100
   72.4850000000000        -1.137729825148983E-099
   72.6750000000000        -1.283756846936144E-099
   72.8650000000000        -1.309937207803283E-099
   73.0550000000000        -1.133994736081581E-099
   73.2450000000000        -6.547800565791913E-100
   73.4350000000000         2.427645837673864E-100
   73.6250000000000         1.677273196453544E-099
   73.8150000000000         3.753726621242882E-099
   74.0050000000000         6.538035172793455E-099
   74.1950000000000         1.002273561282270E-098
   74.3850000000000         1.408415136902250E-098
   74.5750000000000         1.843294383776094E-098
   74.7650000000000         2.256212439464046E-098
   74.9550000000000         2.569925280734468E-098
   75.1450000000000         2.677255623973597E-098
   75.3350000000000         2.440375716536398E-098
   75.5250000000000         1.694302470410497E-098
   75.7150000000000         2.563019409527776E-099
   75.9050000000000        -2.057129736965791E-098
   76.0950000000000        -5.404342650255953E-098
   76.2850000000000        -9.882952577690861E-098
   76.4750000000000        -1.548495131807854E-097
   76.6650000000000        -2.204434030377393E-097
   76.8550000000000        -2.918097155235369E-097
   77.0450000000000        -3.624634912947298E-097
   77.2350000000000        -4.227917158471875E-097
   77.4250000000000        -4.598001048724149E-097
   77.6150000000000        -4.571526301739058E-097
   77.8050000000000        -3.955989732612427E-097
   77.9950000000000        -2.538610651615064E-097
   78.1850000000000        -1.000593046555292E-098
   78.3750000000000         3.567298818073807E-097
   78.5650000000000         8.637709507679598E-097
   78.7550000000000         1.522861402638816E-096
   78.9450000000000         2.337758717002197E-096
   79.1350000000000         3.302140411904895E-096
   79.3250000000000         4.397765876902008E-096
   79.5150000000000         5.592655654522923E-096
   79.7050000000000         6.838597464472306E-096
   79.8950000000000         8.066661491758076E-096
   80.0850000000000         9.178655045859865E-096
   80.2750000000000         1.003169065431845E-095
   80.4650000000000         1.041250351319864E-095
   80.6550000000000         9.998175849623859E-096
   80.8450000000000         8.300977270580550E-096
   81.0350000000000         4.597694088124204E-096
   81.2250000000000        -2.151260868078130E-096
   81.4150000000000        -1.337989512546563E-095
   81.6050000000000        -3.096776671887187E-095
   81.7950000000000        -5.722593954316976E-095
   81.9850000000000        -9.476297507971722E-095
   82.1750000000000        -1.461592513431680E-094
   82.3650000000000        -2.133640568953851E-094
   82.5550000000000        -2.967244499579052E-094
   82.7450000000000        -3.935651269418046E-094
   82.9350000000000        -4.962737454754466E-094
   83.1250000000000        -5.899168653877957E-094
   83.3150000000000        -6.495285959580291E-094
   83.5050000000000        -6.373859228041554E-094
   83.6950000000000        -5.008153212985850E-094
   83.8850000000000        -1.713594117609039E-094
   84.0750000000000         4.335491473905553E-094
   84.2650000000000         1.404945326804951E-093
   84.4550000000000         2.831013792698917E-093
   84.6450000000000         4.778302934150087E-093
   84.8350000000000         7.263876832386825E-093
   85.0250000000000         1.021744323570824E-092
   85.2150000000000         1.343372768691398E-092
   85.4050000000000         1.651735850731870E-092
   85.5950000000000         1.882541077466798E-092
   85.7850000000000         1.941657433476996E-092
   85.9750000000000         1.702056467987660E-092
   86.1650000000000         1.004657774906420E-092
   86.3550000000000        -3.345296388392827E-093
   86.5450000000000        -2.508169746949792E-092
   86.7350000000000        -5.689295961154198E-092
   86.9250000000000        -9.988221499930578E-092
   87.1150000000000        -1.539282820447861E-091
   87.3050000000000        -2.169215594173569E-091
   87.4950000000000        -2.838607627338060E-091
   87.6850000000000        -3.458797977286083E-091
   87.8750000000000        -3.893290410249538E-091
   88.0650000000000        -3.951025627681025E-091
   88.2550000000000        -3.384782959875925E-091
   88.4450000000000        -1.898139157223009E-091
   88.6350000000000         8.349545957008066E-092
   88.8250000000000         5.133588418161430E-091
   89.0150000000000         1.125212853678025E-090
   89.2050000000000         1.929814294382879E-090
   89.3950000000000         2.912508237483613E-090
   89.5850000000000         4.020243298905520E-090
   89.7750000000000         5.147142063473899E-090
   89.9650000000000         6.120153791382545E-090
   90.1550000000000         6.687206670556995E-090
   90.3450000000000         6.511291301077935E-090
   90.5350000000000         5.174951632152633E-090
   90.7250000000000         2.200580793510055E-090
   90.9150000000000        -2.907504461280378E-090
   91.1050000000000        -1.059329844738692E-089
   91.2950000000000        -2.114679441278413E-089
   91.4850000000000        -3.456672095954837E-089
   91.6750000000000        -5.039017223985127E-089
   91.8650000000000        -6.749736908228742E-089
   92.0550000000000        -8.390851733495374E-089
   92.2450000000000        -9.660072785580174E-089
   92.4350000000000        -1.013857613799993E-088
   92.6250000000000        -9.290294271738257E-089
   92.8150000000000        -6.479423840778233E-089
   93.0050000000000        -1.013768345902754E-089
   93.1950000000000         7.778231677918867E-089
   93.3850000000000         2.042980004181965E-088
   93.5750000000000         3.717293534385745E-088
   93.7650000000000         5.773035254032289E-088
   93.9550000000000         8.106935853603204E-088
   94.1450000000000         1.051346852073531E-087
   94.3350000000000         1.265900927628653E-087
   94.5250000000000         1.406138152046036E-087
   94.7150000000000         1.408096469597552E-087
   94.9050000000000         1.193118899687731E-087
   95.0950000000000         6.717579554006176E-088
   95.2850000000000        -2.484816178028641E-088
   95.4750000000000        -1.650625441128084E-087
   95.6650000000000        -3.590217152794091E-087
   95.8550000000000        -6.071534840462184E-087
   96.0450000000000        -9.018488041378031E-087
   96.2350000000000        -1.224170235975297E-086
   96.4250000000000        -1.540469804836694E-086
   96.6150000000000        -1.799378610313974E-086
   96.8050000000000        -1.929825250325583E-086
   96.9950000000000        -1.840940862896705E-086
   97.1850000000000        -1.424888470587682E-086
   97.3750000000000        -5.637752843073777E-087
   97.5650000000000         8.581807346474890E-087
   97.7550000000000         2.936213852697758E-086
   97.9450000000000         5.719675531964442E-086
   98.1350000000000         9.179861860557995E-086
   98.3250000000000         1.317210739824569E-085
   98.5150000000000         1.739468134009595E-085
   98.7050000000000         2.134883540305146E-085
   98.8950000000000         2.430648137108241E-085
   99.0850000000000         2.529427258602881E-085
   99.2750000000000         2.310507985705739E-085
   99.4650000000000         1.634962383333165E-085
   99.6550000000000         3.561865188749288E-086
   99.8450000000000        -1.662894214178680E-085
   100.035000000000        -4.524955123896787E-085
   100.225000000000        -8.265326215027912E-085
   100.415000000000        -1.281150711335102E-084
   100.605000000000        -1.793703820960434E-084
   100.795000000000        -2.321340615625669E-084
   100.985000000000        -2.796583044617780E-084
   101.175000000000        -3.124121886977155E-084
   101.365000000000        -3.179908419371069E-084
   101.555000000000        -2.813845960107621E-084
   101.745000000000        -1.857538864129222E-084
   101.935000000000        -1.385825461630997E-085
   102.125000000000         2.497291253386787E-084
   102.315000000000         6.155338101947554E-084
   102.505000000000         1.085209728700773E-083
   102.695000000000         1.646794641724311E-083
   102.885000000000         2.269461710262363E-083
   103.075000000000         2.898241836561224E-083
   103.265000000000         3.449431100974154E-083
   103.455000000000         3.807656750128050E-083
   103.645000000000         3.825827626696652E-083
   103.835000000000         3.329402730016815E-083
   104.025000000000         2.126524613357431E-083
   104.215000000000         2.552122033934022E-085
   104.405000000000        -3.138988954050258E-083
   104.595000000000        -7.470719885487835E-083
   104.785000000000        -1.296733085232943E-082
   104.975000000000        -1.946863277898208E-082
   105.165000000000        -2.660076128437225E-082
   105.355000000000        -3.372185171814382E-082
   105.545000000000        -3.987720212617939E-082
   105.735000000000        -4.377445766185995E-082
   105.925000000000        -4.379169995177889E-082
   106.115000000000        -3.803307150084372E-082
   106.305000000000        -2.444719367485067E-082
   106.495000000000        -1.022541651144843E-083
   106.685000000000         3.392953679138575E-082
   106.875000000000         8.139997671347341E-082
   107.065000000000         1.412212231141367E-081
   107.255000000000         2.115404077359706E-081
   107.445000000000         2.882642004691652E-081
   107.635000000000         3.645342166109895E-081
   107.825000000000         4.303150853879671E-081
   108.015000000000         4.722005030735854E-081
   108.205000000000         4.735627948064955E-081
   108.395000000000         4.151847155137531E-081
   108.585000000000         2.765135713110829E-081
   108.775000000000         3.766172802546094E-082
   108.965000000000        -3.177615452784513E-081
   109.155000000000        -7.989695021399546E-081
   109.345000000000        -1.403551260179181E-080
   109.535000000000        -2.112475938769448E-080
   109.725000000000        -2.884930998490826E-080
   109.915000000000        -3.653570161684962E-080
   110.105000000000        -4.320950646619309E-080