  -1.42500000000000         0.000000000000000E+000
  -1.23500000000000         0.000000000000000E+000
  -1.04500000000000         0.000000000000000E+000
 -0.855000000000000         0.000000000000000E+000
 -0.665000000000000         0.000000000000000E+000
 -0.475000000000000         0.000000000000000E+000
 -0.285000000000000         0.000000000000000E+000
 -9.499999999999975E-002    0.000000000000000E+000
  9.500000000000020E-002    0.000000000000000E+000
  0.285000000000000         0.000000000000000E+000
  0.475000000000000         0.000000000000000E+000
  0.665000000000000         0.000000000000000E+000
  0.855000000000000         0.000000000000000E+000
   1.04500000000000         0.000000000000000E+000
   1.23500000000000         0.000000000000000E+000
   1.42500000000000         0.000000000000000E+000
   1.61500000000000         0.000000000000000E+000
   1.80500000000000         0.000000000000000E+000
   1.99500000000000         0.000000000000000E+000
   2.18500000000000         0.000000000000000E+000
   2.37500000000000         0.000000000000000E+000
   2.56500000000000         0.000000000000000E+000
   2.75500000000000         0.000000000000000E+000
   2.94500000000000         0.000000000000000E+000
   3.13500000000000         0.000000000000000E+000
   3.32500000000000         0.000000000000000E+000
   3.51500000000000         0.000000000000000E+000
   3.70500000000000         0.000000000000000E+000
   3.89500000000000         0.000000000000000E+000
   4.08500000000000         0.000000000000000E+000
   4.27500000000000         0.000000000000000E+000
   4.46500000000000         0.000000000000000E+000
   4.65500000000000         0.000000000000000E+000
   4.84500000000000         0.000000000000000E+000
   5.03500000000000         0.000000000000000E+000
   5.22500000000000         0.000000000000000E+000
   5.41500000000000         0.000000000000000E+000
   5.60500000000000         0.000000000000000E+000
   5.79500000000000         0.000000000000000E+000
   5.98500000000000         0.000000000000000E+000
   6.17500000000000         0.000000000000000E+000
   6.36500000000000         0.000000000000000E+000
   6.55500000000000         0.000000000000000E+000
   6.74500000000000         0.000000000000000E+000
   6.93500000000000         0.000000000000000E+000
   7.12500000000000         0.000000000000000E+000
   7.31500000000000         1.074315417582742E-207
   7.50500000000000         5.927551112709671E-202
   7.69500000000000        -7.250946482010827E-196
   7.88500000000000        -2.632159428004399E-194
   8.07500000000000         5.958978230792072E-193
   8.26500000000000         7.466915737136127E-191
   8.45500000000000         3.015229698067404E-189
   8.64500000000000         7.788637067776993E-188
   8.83500000000000         1.480099195446190E-186
   9.02500000000000         2.186885471014775E-185
   9.21500000000000         2.561642447241534E-184
   9.40500000000000         2.344977945206178E-183
   9.59500000000000         1.529992755505909E-182
   9.78500000000000         3.769461057782932E-182
   9.97500000000000        -7.341721200883281E-181
   10.1650000000000        -1.496686215808119E-179
   10.3550000000000        -1.792379326234911E-178
   10.5450000000000        -1.686433022456543E-177
   10.7350000000000        -1.343097226814812E-176
   10.9250000000000        -9.313728389418832E-176
   11.1150000000000        -5.673086784202760E-175
   11.3050000000000        -3.014673376304458E-174
   11.4950000000000        -1.353859176781046E-173
   11.6850000000000        -4.620867104452676E-173
   11.8750000000000        -6.108557879811257E-173
   12.0650000000000         7.523031539691929E-172
   12.2550000000000         9.326753368496187E-171
   12.4450000000000         7.176562846400479E-170
   12.6350000000000         4.540599414342873E-169
   12.8250000000000         2.543542925809716E-168
   13.0150000000000         1.301606839501163E-167
   13.2050000000000         6.185796016167709E-167
   13.3950000000000         2.757244762083788E-166
   13.5850000000000         1.160106495784017E-165
   13.7750000000000         4.627474775453709E-165
   13.9650000000000         1.755095933543233E-164
   14.1550000000000         6.341897910082023E-164
   14.3450000000000         2.185709677280802E-163
   14.5350000000000         7.187571081456646E-163
   14.7250000000000         2.254240661902636E-162
   14.9150000000000         6.733498634972054E-162
   15.1050000000000         1.910449122804079E-161
   15.2950000000000         5.124763572907797E-161
   15.4850000000000         1.289552916662926E-160
   15.6750000000000         3.001689911043866E-160
   15.8650000000000         6.288552535797138E-160
   16.0550000000000         1.111089409473907E-159
   16.2450000000000         1.310170880946424E-159
   16.4350000000000        -8.527082937739799E-160
   16.6250000000000        -1.254390368299257E-158
   16.8150000000000        -5.476917441718447E-158
   17.0050000000000        -1.823777876059862E-157
   17.1950000000000        -5.248831443880586E-157
   17.3850000000000        -1.358608754514537E-156
   17.5750000000000        -3.207936400445506E-156
   17.7650000000000        -6.921577865311938E-156
   17.9550000000000        -1.353732327028869E-155
   18.1450000000000        -2.351396532602690E-155
   18.3350000000000        -3.474291959903870E-155
   18.5250000000000        -3.958252823368806E-155
   18.7150000000000        -2.619072086819886E-155
   18.9050000000000        -7.687571101945050E-156
   19.0950000000000        -1.561400429451005E-154
   19.2850000000000        -1.254050893747954E-153
   19.4750000000000        -5.980799929526195E-153
   19.6650000000000        -2.215418030335786E-152
   19.8550000000000        -7.005737447242310E-152
   20.0450000000000        -1.972328730072812E-151
   20.2350000000000        -5.044293138736105E-151
   20.4250000000000        -1.181741534541557E-150
   20.6150000000000        -2.533810111203291E-150
   20.8050000000000        -4.913229050409079E-150
   20.9950000000000        -8.334065352919449E-150
   21.1850000000000        -1.121889276392950E-149
   21.3750000000000        -7.121567444204782E-150
   21.5650000000000         2.275614001725385E-149
   21.7550000000000         1.248428543019112E-148
   21.9450000000000         4.010753735879159E-148
   22.1350000000000         1.053230209401153E-147
   22.3250000000000         2.439461428866574E-147
   22.5150000000000         5.112951537801505E-147
   22.7050000000000         9.749409811182554E-147
   22.8950000000000         1.673838390743578E-146
   23.0850000000000         2.497232073458038E-146
   23.2750000000000         2.898379154979589E-146
   23.4650000000000         1.307857786188591E-146
   23.6550000000000        -5.932066763891344E-146
   23.8450000000000        -2.627101818005984E-145
   24.0350000000000        -7.324331919068299E-145
   24.2250000000000        -1.686679977458021E-144
   24.4150000000000        -3.426273703599257E-144
   24.6050000000000        -6.263038499623733E-144
   24.7950000000000        -1.028072134318364E-143
   24.9850000000000        -1.476502372111623E-143
   25.1750000000000        -1.706178194124973E-143
   25.3650000000000        -1.057224067502412E-143
   25.5550000000000         1.834154040704254E-143
   25.7450000000000         9.442665190393077E-143
   25.9350000000000         2.575883014123685E-142
   26.1250000000000         5.641336433388787E-142
   26.3150000000000         1.079307827268196E-141
   26.5050000000000         1.850396021768117E-141
   26.6950000000000         2.842981185300622E-141
   26.8850000000000         3.814614283680128E-141
   27.0750000000000         4.090685059989839E-141
   27.2650000000000         2.196942327944554E-141
   27.4550000000000        -4.709238456725527E-141
   27.6450000000000        -2.168468338718740E-140
   27.8350000000000        -5.722652919065650E-140
   28.0250000000000        -1.250090800250665E-139
   28.2150000000000        -2.462250054072344E-139
   28.4050000000000        -4.523076592966993E-139
   28.5950000000000        -7.866574247835276E-139
   28.7850000000000        -1.300794013518308E-138
   28.9750000000000        -2.032837239119162E-138
   29.1650000000000        -2.940722600835194E-138
   29.3550000000000        -3.734307192174942E-138
   29.5450000000000        -3.505582677459019E-138
   29.7350000000000         2.841250626247014E-141
   29.9250000000000         1.170245138047309E-137
   30.1150000000000         4.122874326132694E-137
   30.3050000000000         1.057346163077807E-136
   30.4950000000000         2.326439905932878E-136
   30.6850000000000         4.599354272844666E-136
   30.8750000000000         8.282481006315659E-136
   31.0650000000000         1.353418213856274E-135
   31.2550000000000         1.959335316879950E-135
   31.4450000000000         2.339511615722424E-135
   31.6350000000000         1.704008545160953E-135
   31.8250000000000        -1.636517282912923E-135
   32.0150000000000        -1.088074357956612E-134
   32.2050000000000        -3.150486506796632E-134
   32.3950000000000        -7.199194219683491E-134
   32.5850000000000        -1.440040339904148E-133
   32.7750000000000        -2.609130028838281E-133
   32.9650000000000        -4.327033143918963E-133
   33.1550000000000        -6.539492249460551E-133
   33.3450000000000        -8.798562316287865E-133
   33.5350000000000        -9.834305539679487E-133
   33.7250000000000        -6.852460733374741E-133
   33.9150000000000         5.527835622638395E-133
   34.1050000000000         3.674385447637453E-132
   34.2950000000000         1.020930056821120E-131
   34.4850000000000         2.245145754746449E-131
   34.6750000000000         4.354154082045335E-131
   34.8650000000000         7.725107777595267E-131
   35.0550000000000         1.270703642406532E-130
   35.2450000000000         1.938766786488488E-130
   35.4350000000000         2.709530579180872E-130
   35.6250000000000         3.344193420640892E-130
   35.8150000000000         3.263077371407894E-130
   36.0050000000000         1.269088074677801E-130
   36.1950000000000        -4.864732247496171E-130
   36.3850000000000        -1.893670199997317E-129
   36.5750000000000        -4.687858237299042E-129
   36.7650000000000        -9.700246578819742E-129
   36.9550000000000        -1.791564891200208E-128
   37.1450000000000        -3.012537444499442E-128
   37.3350000000000        -4.604709911911534E-128
   37.5250000000000        -6.248613044536563E-128
   37.7150000000000        -6.995147836445815E-128
   37.9050000000000        -4.707023069118040E-128
   38.0950000000000         4.762179770927014E-128
   38.2850000000000         2.859964420181156E-127
   38.4750000000000         7.799355595087152E-127
   38.6650000000000         1.682763597092723E-126
   38.8550000000000         3.166891845086122E-126
   39.0450000000000         5.349262814672142E-126
   39.2350000000000         8.118564835247888E-126
   39.4250000000000         1.079806713231351E-125
   39.6150000000000         1.156291861317854E-125
   39.8050000000000         6.537980453496459E-126
   39.9950000000000        -1.143605144875377E-125
   40.1850000000000        -5.421092394960226E-125
   40.3750000000000        -1.394001196824008E-124
   40.5650000000000        -2.899524279103887E-124
   40.7550000000000        -5.300389823241693E-124
   40.9450000000000        -8.735818515360201E-124
   41.1350000000000        -1.299914393368233E-123
   41.3250000000000        -1.709277070986744E-123
   41.5150000000000        -1.850105150292382E-123
   41.7050000000000        -1.212278041703380E-123
   41.8950000000000         1.111065789732513E-123
   42.0850000000000         6.570953635816298E-123
   42.2750000000000         1.725967275244567E-122
   42.4650000000000         3.583523002741818E-122
   42.6550000000000         6.505646714734845E-122
   42.8450000000000         1.065856046917393E-121
   43.0350000000000         1.585699788125643E-121
   43.2250000000000         2.113917317247498E-121
   43.4150000000000         2.409585625210627E-121
   43.6050000000000         1.991525126256500E-121
   43.7950000000000         1.798015187396182E-123
   43.9850000000000        -4.839030118811333E-121
   44.1750000000000        -1.447663699015031E-120
   44.3650000000000        -3.130751203028133E-120
   44.5550000000000        -5.790992113143700E-120
   44.7450000000000        -9.613683930514479E-120
   44.9350000000000        -1.453467643095052E-119
   45.1250000000000        -1.993457799025588E-119
   45.3150000000000        -2.416309985360357E-119
   45.5050000000000        -2.386910141715412E-119
   45.6950000000000        -1.315874685626472E-119
   45.8850000000000         1.729988972014912E-119
   46.0750000000000         8.093989783783722E-119
   46.2650000000000         1.951790548464878E-118
   46.4550000000000         3.796081521629103E-118
   46.6450000000000         6.511039957842765E-118
   46.8350000000000         1.013985566841125E-117
   47.0250000000000         1.442934424252591E-117
   47.2150000000000         1.856371810656961E-117
   47.4050000000000         2.078759204696471E-117
   47.5950000000000         1.792506081963014E-117
   47.7850000000000         4.846789697954732E-118
   47.9750000000000        -2.598491175927271E-117
   48.1650000000000        -8.464242488818179E-117
   48.3550000000000        -1.831109716635303E-116
   48.5450000000000        -3.332860390437546E-116
   48.7350000000000        -5.427245507090744E-116
   48.9250000000000        -8.070875480279776E-116
   49.1150000000000        -1.098156198383440E-115
   49.3050000000000        -1.346557008910190E-115
   49.4950000000000        -1.419143054263161E-115
   49.6850000000000        -1.092671671379327E-115
   49.8750000000000        -2.837794462570591E-117
   50.0650000000000         2.243356204531388E-115
   50.2550000000000         6.312549386280796E-115
   50.4450000000000         1.282941380706980E-114
   50.6350000000000         2.236108994096078E-114
   50.8250000000000         3.512345349259914E-114
   51.0150000000000         5.054173563022903E-114
   51.2050000000000         6.659901961221109E-114
   51.3950000000000         7.895480577245306E-114
   51.5850000000000         7.986751136732735E-114
   51.7750000000000         5.704776270607820E-114
   51.9650000000000        -7.283348875608691E-115
   52.1550000000000        -1.366455715938879E-113
   52.3450000000000        -3.590992625867675E-113
   52.5350000000000        -7.035105760285804E-113
   52.7250000000000        -1.191879192470877E-112
   52.9150000000000        -1.826101740144457E-112
   53.1050000000000        -2.567570773379539E-112
   53.2950000000000        -3.308515698341091E-112
   53.4850000000000        -3.835286382096552E-112
   53.6750000000000        -3.786236095131310E-112
   53.8650000000000        -2.610874108568685E-112
   54.0550000000000         4.571403653109844E-113
   54.2450000000000         6.392688969900074E-112
   54.4350000000000         1.630752289804248E-111
   54.6250000000000         3.127402136206587E-111
   54.8150000000000         5.199563715748808E-111
   55.0050000000000         7.827214010923342E-111
   55.1950000000000         1.082156831388617E-110
   55.3850000000000         1.372004507098561E-110
   55.5750000000000         1.565838334833116E-110
   55.7650000000000         1.523312973703585E-110
   55.9550000000000         1.038199956128170E-110
   56.1450000000000        -1.670700394387470E-111
   56.3350000000000        -2.433173828105684E-110
   56.5250000000000        -6.132028102429758E-110
   56.7150000000000        -1.159875205099334E-109
   56.9050000000000        -1.901330487181211E-109
   57.0950000000000        -2.821823999557184E-109
   57.2850000000000        -3.846356671871313E-109
   57.4750000000000        -4.808040738846847E-109
   57.6650000000000        -5.410447471177294E-109
   57.8550000000000        -5.190077112502889E-109
   58.0450000000000        -3.488396863549952E-109
   58.2350000000000         5.515501921962032E-110
   58.4250000000000         7.942494807514626E-109
   58.6150000000000         1.973624796089387E-108
   58.8050000000000         3.679992121489668E-108
   58.9950000000000         5.945092410974910E-108
   59.1850000000000         8.692293609652070E-108
   59.3750000000000         1.166532971639295E-107
   59.5650000000000         1.434176148557860E-107
   59.7550000000000         1.583950565739230E-107
   59.9450000000000         1.483317606717744E-107
   60.1350000000000         9.508085686768558E-108
   60.3250000000000        -2.406934656974930E-108
   60.5150000000000        -2.347267502349957E-107
   60.7050000000000        -5.617133478927588E-107
   60.8950000000000        -1.022639947118263E-106
   61.0850000000000        -1.618079453175984E-106
   61.2750000000000        -2.317962800271727E-106
   61.4650000000000        -3.044412413471038E-106
   61.6550000000000        -3.652227346800831E-106
   61.8450000000000        -3.909722854967826E-106
   62.0350000000000        -3.484633115817075E-106
   62.2250000000000        -1.942237210453040E-106
   62.4150000000000         1.234465817340950E-106
   62.6050000000000         6.590284072433963E-106
   62.7950000000000         1.459538066642528E-105
   62.9850000000000         2.548180122850869E-105
   63.1750000000000         3.901007174141066E-105
   63.3650000000000         5.416625714167516E-105
   63.5550000000000         6.880607797243982E-105
   63.7450000000000         7.928724182222369E-105
   63.9350000000000         8.016465722044065E-105
   64.1250000000000         6.406464456715871E-105
   64.3150000000000         2.190004790295578E-105
   64.5050000000000        -5.636897058692238E-105
   64.6950000000000        -1.801956551720634E-104
   64.8850000000000        -3.559003179390004E-104
   65.0750000000000        -5.829476036531786E-104
   65.2650000000000        -8.490193180276835E-104
   65.4550000000000        -1.124106264624907E-103
   65.6450000000000        -1.354227929683799E-103
   65.8350000000000        -1.455918833332235E-103
   66.0250000000000        -1.313280670339757E-103
   66.2150000000000        -7.801359344684638E-104
   66.4050000000000         3.094789170602123E-104
   66.5950000000000         2.118757325661647E-103
   66.7850000000000         4.769777848470702E-103
   66.9750000000000         8.286475830512777E-103
   67.1650000000000         1.251811589430112E-102
   67.3550000000000         1.704621280619063E-102
   67.5450000000000         2.108366824402530E-102
   67.7350000000000         2.338295060217843E-102
   67.9250000000000         2.218026155570545E-102
   68.1150000000000         1.521403928222861E-102
   68.3050000000000        -1.327533063724106E-104
   68.4950000000000        -2.650897937994191E-102
   68.6850000000000        -6.603148296507196E-102
   68.8750000000000        -1.194329717559967E-101
   69.0650000000000        -1.849024901663783E-101
   69.2550000000000        -2.566530050418660E-101
   69.4450000000000        -3.233347873151590E-101
   69.6350000000000        -3.665311714294758E-101
   69.8250000000000        -3.597231464817257E-101
   70.0150000000000        -2.682812277758199E-101
   70.2050000000000        -5.121575271179756E-102
   70.3950000000000         3.344462697439639E-101
   70.5850000000000         9.257423343695717E-101
   70.7750000000000         1.741512819759462E-100
   70.9650000000000         2.765359932170054E-100
   71.1550000000000         3.924099674848318E-100
   71.3450000000000         5.063121654454074E-100
   71.5350000000000         5.921705335233306E-100
   71.7250000000000         6.113462328162415E-100
   71.9150000000000         5.119574609409093E-100
   72.1050000000000         2.305119546756575E-100
   72.2950000000000        -3.028942963599682E-100
   72.4850000000000        -1.154429289605112E-099
   72.6750000000000        -2.370118095636332E-099
   72.8650000000000        -3.952255375593167E-099
   73.0550000000000        -5.828552979315888E-099
   73.2450000000000        -7.815353561349017E-099
   73.4350000000000        -9.578334386044443E-099
   73.6250000000000        -1.059692684114754E-098
   73.8150000000000        -1.014209617540737E-098
   74.0050000000000        -7.280891401524478E-099
   74.1950000000000        -9.247720646586704E-100
   74.3850000000000         1.005866802856995E-098
   74.5750000000000         2.665047712336441E-098
   74.7650000000000         4.938463524264945E-098
   74.9550000000000         7.794329718652319E-098
   75.1450000000000         1.106499422997920E-097
   75.3350000000000         1.438915301414924E-097
   75.5250000000000         1.715344120618075E-097
   75.7150000000000         1.844415223763118E-097
   75.9050000000000         1.702479246602490E-097
   76.0950000000000         1.136030409385746E-097
   76.2850000000000        -2.867695900837349E-099
   76.4750000000000        -1.966039821412321E-097
   76.6650000000000        -4.818877364988144E-097
   76.8550000000000        -8.651563605415919E-097
   77.0450000000000        -1.338797562999072E-096
   77.2350000000000        -1.873615481846494E-096
   77.4250000000000        -2.410516914825458E-096
   77.6150000000000        -2.852444350562188E-096
   77.8050000000000        -3.058164153596687E-096
   77.9950000000000        -2.840161031235254E-096
   78.1850000000000        -1.969514940544234E-096
   78.3750000000000        -1.911218297335489E-097
   78.5650000000000         2.747203487462304E-096
   78.7550000000000         7.048547340913491E-096
   78.9450000000000         1.280155120461608E-095
   79.1350000000000         1.989592749573270E-095
   79.3250000000000         2.792220461451016E-095
   79.5150000000000         3.606375048407157E-095
   79.7050000000000         4.299510043002850E-095
   79.8950000000000         4.680758703939705E-095
   80.0850000000000         4.499059616802481E-095
   80.2750000000000         3.450339482085793E-095
   80.4650000000000         1.197686626611832E-095
   80.6550000000000        -2.591534127942667E-095
   80.8450000000000        -8.188314816002565E-095
   81.0350000000000        -1.572262450485594E-094
   81.2250000000000        -2.508294552720877E-094
   81.4150000000000        -3.579965080093993E-094
   81.6050000000000        -4.692247695762078E-094
   81.7950000000000        -5.690882788140364E-094
   81.9850000000000        -6.354679516706450E-094
   82.1750000000000        -6.394375888750636E-094
   82.3650000000000        -5.461696855737594E-094
   82.5550000000000        -3.172491454536204E-094
   82.7450000000000         8.524450530246368E-095
   82.9350000000000         6.926270566899422E-094
   83.1250000000000         1.521408313841685E-093
   83.3150000000000         2.563242322410779E-093
   83.5050000000000         3.773692644901829E-093
   83.6950000000000         5.060998229371304E-093
   83.8850000000000         6.276610625853159E-093
   84.0750000000000         7.209852707310924E-093
   84.2650000000000         7.589518772991917E-093
   84.4550000000000         7.095457632494859E-093
   84.6450000000000         5.382988242117044E-093
   84.8350000000000         2.122214514442189E-093
   85.0250000000000        -2.947229611430841E-093
   85.2150000000000        -9.947869076963036E-093
   85.4050000000000        -1.878763243107032E-092
   85.5950000000000        -2.908373342038162E-092
   85.7850000000000        -4.010054731982391E-092
   85.9750000000000        -5.071877589306491E-092
   86.1650000000000        -5.945582977064828E-092
   86.3550000000000        -6.455744424795942E-092
   86.5450000000000        -6.417663161926996E-092
   86.7350000000000        -5.664666961126205E-092
   86.9250000000000        -4.083867641503667E-092
   87.1150000000000        -1.657079902222071E-092
   87.3050000000000         1.499436091948283E-092
   87.4950000000000         5.106254082379479E-092
   87.6850000000000         8.716455010372236E-092
   87.8750000000000         1.175188056294270E-091
   88.0650000000000         1.359721882261290E-091
   88.2550000000000         1.376716308319092E-091
   88.4450000000000         1.215526203589106E-091
   88.6350000000000         9.360272570770389E-092
   88.8250000000000         7.065510478277943E-092
   89.0150000000000         8.418200430424057E-092
   89.2050000000000         1.831967540932734E-091
   89.3950000000000         4.349581228817344E-091
   89.5850000000000         9.217516427004191E-091
   89.7750000000000         1.731678455628060E-090
   89.9650000000000         2.941228886077704E-090
   90.1550000000000         4.587606877903101E-090
   90.3450000000000         6.629484456436839E-090
   90.5350000000000         8.896299636236911E-090
   90.7250000000000         1.102855269129416E-089
   90.9150000000000         1.241493889106269E-089
   91.1050000000000         1.213660827304509E-089
   91.2950000000000         8.934216096128342E-090
   91.4850000000000         1.219316671390433E-090
   91.6750000000000        -1.284268453287660E-089
   91.8650000000000        -3.514652352518917E-089
   92.0550000000000        -6.732522395628194E-089
   92.2450000000000        -1.102633537166177E-088
   92.4350000000000        -1.634275522247729E-088
   92.6250000000000        -2.240177185816046E-088
   92.8150000000000        -2.859758944035073E-088
   93.0050000000000        -3.389376261194547E-088
   93.1950000000000        -3.672727628349087E-088
   93.3850000000000        -3.494373175159974E-088
   93.5750000000000        -2.579400663715454E-088
   93.7650000000000        -6.030765401630512E-089
   93.9550000000000         2.785043070376841E-088
   94.1450000000000         7.917793658966147E-088
   94.3350000000000         1.504347623896458E-087
   94.5250000000000         2.423219627552848E-087
   94.7150000000000         3.525486314041533E-087
   94.9050000000000         4.743833188478100E-087
   95.0950000000000         5.950605810541695E-087
   95.2850000000000         6.942141662928745E-087
   95.4750000000000         7.426034467150115E-087
   95.6650000000000         7.015068684465555E-087
   95.8550000000000         5.232653913569393E-087
   96.0450000000000         1.535541889556727E-087
   96.2350000000000        -4.639803032054614E-087
   96.4250000000000        -1.380087959012888E-086
   96.6150000000000        -2.628765451384967E-086
   96.8050000000000        -4.212316809375992E-086
   96.9950000000000        -6.082779765632981E-086
   97.1850000000000        -8.120515092438866E-086
   97.3750000000000        -1.011162941149341E-085
   97.5650000000000        -1.172700121685518E-085
   97.7550000000000        -1.250696215089757E-085
   97.9450000000000        -1.185705763408558E-085
   98.1350000000000        -9.061616342375554E-086
   98.3250000000000        -3.322867070135906E-086
   98.5150000000000         6.166253283239721E-086
   98.7050000000000         2.010803628838321E-085
   98.8950000000000         3.893911927806444E-085
   99.0850000000000         6.262109817943829E-085
   99.2750000000000         9.038712951223081E-085
   99.4650000000000         1.204578012674671E-084
   99.6550000000000         1.497510344256478E-084
   99.8450000000000         1.736246999930024E-084
   100.035000000000         1.857062629748529E-084
   100.225000000000         1.778797337249857E-084
   100.415000000000         1.405144120723682E-084
   100.605000000000         6.302942089209482E-085
   100.795000000000        -6.511090866391459E-085
   100.985000000000        -2.528875748201831E-084
   101.175000000000        -5.056497641486529E-084
   101.365000000000        -8.224686800760666E-084
   101.555000000000        -1.192999954439953E-083
   101.745000000000        -1.594040331217750E-083
   101.935000000000        -1.986101022833999E-083
   102.125000000000        -2.310480790808697E-083
   102.315000000000        -2.487496051270437E-083
   102.505000000000        -2.416695823352086E-083
   102.695000000000        -1.980030786175875E-083
   102.885000000000        -1.049024324344033E-083
   103.075000000000         5.030324227900423E-084
   103.265000000000         2.783017476043183E-083
   103.455000000000         5.853582984497965E-083
   103.645000000000         9.702593321262626E-083
   103.835000000000         1.420747473343855E-082
   104.025000000000         1.909676678457004E-082
   104.215000000000         2.391265666619110E-082
   104.405000000000         2.797998104092772E-082
   104.595000000000         3.038897000006591E-082
   104.785000000000         3.000068597652584E-082
   104.975000000000         2.548540025187262E-082
   105.165000000000         1.540469538800907E-082
   105.355000000000        -1.652540537614443E-083
   105.545000000000        -2.687232062600226E-082
   105.735000000000        -6.095242471831215E-082
   105.925000000000        -1.037772653550653E-081
   106.115000000000        -1.540437693805223E-081
   106.305000000000        -2.088637856900065E-081
   106.495000000000        -2.633835229384754E-081
   106.685000000000        -3.104772139104207E-081
   106.875000000000        -3.405892095305146E-081
   107.065000000000        -3.418139644816309E-081
   107.255000000000        -3.003141146690553E-081
   107.445000000000        -2.011796154345389E-081
   107.635000000000        -2.982172575456660E-082
   107.825000000000         2.260297547528787E-081
   108.015000000000         5.737032343521413E-081
   108.205000000000         1.012382515599681E-080
   108.395000000000         1.529465420520568E-080
   108.585000000000         2.096744059185605E-080
   108.775000000000         2.666806684914776E-080
   108.965000000000         3.170212796655665E-080
   109.155000000000         3.514142988120795E-080
   109.345000000000         3.583353277067171E-080
   109.535000000000         3.244344608013038E-080
   109.725000000000         2.353660947250098E-080
   109.915000000000         7.711192286764133E-081
   110.105000000000        -1.621484221579690E-080