  -1.42500000000000         0.000000000000000E+000
  -1.23500000000000         0.000000000000000E+000
  -1.04500000000000         0.000000000000000E+000
 -0.855000000000000         0.000000000000000E+000
 -0.665000000000000         0.000000000000000E+000
 -0.475000000000000         0.000000000000000E+000
 -0.285000000000000         0.000000000000000E+000
 -9.499999999999975E-002    0.000000000000000E+000
  9.500000000000020E-002    0.000000000000000E+000
  0.285000000000000         0.000000000000000E+000
  0.475000000000000         0.000000000000000E+000
  0.665000000000000         0.000000000000000E+000
  0.855000000000000         0.000000000000000E+000
   1.04500000000000         0.000000000000000E+000
   1.23500000000000         0.000000000000000E+000
   1.42500000000000         0.000000000000000E+000
   1.61500000000000         0.000000000000000E+000
   1.80500000000000         0.000000000000000E+000
   1.99500000000000         0.000000000000000E+000
   2.18500000000000         0.000000000000000E+000
   2.37500000000000         0.000000000000000E+000
   2.56500000000000         0.000000000000000E+000
   2.75500000000000         0.000000000000000E+000
   2.94500000000000         0.000000000000000E+000
   3.13500000000000         0.000000000000000E+000
   3.32500000000000         0.000000000000000E+000
   3.51500000000000         0.000000000000000E+000
   3.70500000000000         0.000000000000000E+000
   3.89500000000000         0.000000000000000E+000
   4.08500000000000         0.000000000000000E+000
   4.27500000000000         0.000000000000000E+000
   4.46500000000000         0.000000000000000E+000
   4.65500000000000         0.000000000000000E+000
   4.84500000000000         0.000000000000000E+000
   5.03500000000000         0.000000000000000E+000
   5.22500000000000         0.000000000000000E+000
   5.41500000000000         0.000000000000000E+000
   5.60500000000000         0.000000000000000E+000
   5.79500000000000         0.000000000000000E+000
   5.98500000000000         0.000000000000000E+000
   6.17500000000000         0.000000000000000E+000
   6.36500000000000         0.000000000000000E+000
   6.55500000000000         0.000000000000000E+000
   6.74500000000000         0.000000000000000E+000
   6.93500000000000         0.000000000000000E+000
   7.12500000000000         0.000000000000000E+000
   7.31500000000000         0.000000000000000E+000
   7.50500000000000        -6.208415646747601E-219
   7.69500000000000         4.476649214609927E-204
   7.88500000000000         3.922331229673631E-200
   8.07500000000000         3.998124385964692E-197
   8.26500000000000         1.506085001549688E-195
   8.45500000000000        -1.515205338897702E-194
   8.64500000000000        -2.921824085704998E-192
   8.83500000000000        -1.223922382723047E-190
   9.02500000000000        -3.210990581238480E-189
   9.21500000000000        -6.186382233283993E-188
   9.40500000000000        -9.286216354297156E-187
   9.59500000000000        -1.109871700745455E-185
   9.78500000000000        -1.046387599678330E-184
   9.97500000000000        -7.242048399321833E-184
   10.1650000000000        -2.448749703944199E-183
   10.3550000000000         2.319106334352250E-182
   10.5450000000000         5.707862194814654E-181
   10.7350000000000         7.140932509042594E-180
   10.9250000000000         6.840512659824338E-179
   11.1150000000000         5.485214856874627E-178
   11.3050000000000         3.800214329803364E-177
   11.4950000000000         2.294571607803235E-176
   11.6850000000000         1.195657893785554E-175
   11.8750000000000         5.156020857824065E-175
   12.0650000000000         1.580673961293619E-174
   12.2550000000000         4.067901652547869E-175
   12.4450000000000        -4.271134155860654E-173
   12.6350000000000        -4.377530895409616E-172
   12.8250000000000        -3.132228314110049E-171
   13.0150000000000        -1.880859110851671E-170
   13.2050000000000        -1.003050219428439E-169
   13.3950000000000        -4.869455406116145E-169
   13.5850000000000        -2.178541289047369E-168
   13.7750000000000        -9.034625928317012E-168
   13.9650000000000        -3.477617695187030E-167
   14.1550000000000        -1.238513230048806E-166
   14.3450000000000        -4.042334237240159E-166
   14.5350000000000        -1.183240340988930E-165
   14.7250000000000        -2.946578497877046E-165
   14.9150000000000        -5.236317409084943E-165
   15.1050000000000         5.363729952879902E-166
   15.2950000000000         6.426012432386462E-164
   15.4850000000000         4.076658681381759E-163
   15.6750000000000         1.885834186533820E-162
   15.8650000000000         7.484831343519316E-162
   16.0550000000000         2.682459489428812E-161
   16.2450000000000         8.873136119765482E-161
   16.4350000000000         2.737114194150886E-160
   16.6250000000000         7.906228147355619E-160
   16.8150000000000         2.137600606159204E-159
   17.0050000000000         5.381440310641652E-159
   17.1950000000000         1.245838078137155E-158
   17.3850000000000         2.580749407187987E-158
   17.5750000000000         4.466449054369749E-158
   17.7650000000000         4.966889623533242E-158
   17.9550000000000        -4.699664281659691E-158
   18.1450000000000        -5.416892139616283E-157
   18.3350000000000        -2.292385856166872E-156
   18.5250000000000        -7.524256479396492E-156
   18.7150000000000        -2.148117766184840E-155
   18.9050000000000        -5.537858928676228E-155
   19.0950000000000        -1.306131140298435E-154
   19.2850000000000        -2.818318925865042E-154
   19.4750000000000        -5.492847845365879E-154
   19.6650000000000        -9.330241933685376E-154
   19.8550000000000        -1.243531427455438E-153
   20.0450000000000        -7.147750480095287E-154
   20.2350000000000         2.851750955716304E-153
   20.4250000000000         1.471716441350476E-152
   20.6150000000000         4.577258589896564E-152
   20.8050000000000         1.153570517104665E-151
   20.9950000000000         2.510867470811624E-151
   21.1850000000000         4.766915265898943E-151
   21.3750000000000         7.688460477039487E-151
   21.5650000000000         9.533671618213459E-151
   21.7550000000000         5.206569211551381E-151
   21.9450000000000        -1.561495824664703E-150
   22.1350000000000        -6.589549967829140E-150
   22.3250000000000        -1.390548032773686E-149
   22.5150000000000        -1.256653502939983E-149
   22.7050000000000         4.303589431657650E-149
   22.8950000000000         2.949075788919908E-148
   23.0850000000000         1.121426052474126E-147
   23.2750000000000         3.424372920391852E-147
   23.4650000000000         9.157339241816665E-147
   23.6550000000000         2.217131277741173E-146
   23.8450000000000         4.927589522559494E-146
   24.0350000000000         1.008098282307611E-145
   24.2250000000000         1.884244515799021E-145
   24.4150000000000         3.141653724039309E-145
   24.6050000000000         4.375501750397633E-145
   24.7950000000000         3.936864681332352E-145
   24.9850000000000        -2.871496348986615E-145
   25.1750000000000        -2.740409083255081E-144
   25.3650000000000        -9.425780402342494E-144
   25.5550000000000        -2.521139443625771E-143
   25.7450000000000        -5.892640025880714E-143
   25.9350000000000        -1.250821824835521E-142
   26.1250000000000        -2.445447469688643E-142
   26.3150000000000        -4.408766972532269E-142
   26.5050000000000        -7.249304457996532E-142
   26.6950000000000        -1.052735358772889E-141
   26.8850000000000        -1.229203975564377E-141
   27.0750000000000        -7.115268284427325E-142
   27.2650000000000         1.757689891838587E-141
   27.4550000000000         8.779672756486789E-141
   27.6450000000000         2.528423972547442E-140
   27.8350000000000         5.989875688736030E-140
   28.0250000000000         1.265125518486156E-139
   28.2150000000000         2.453205627729075E-139
   28.4050000000000         4.415342654492664E-139
   28.5950000000000         7.378962445689927E-139
   28.7850000000000         1.133607308387617E-138
   28.9750000000000         1.556689809431996E-138
   29.1650000000000         1.768756546833135E-138
   29.3550000000000         1.190947403716566E-138
   29.5450000000000        -1.390366511080111E-138
   29.7350000000000        -8.283354396309830E-138
   29.9250000000000        -2.354447197106403E-137
   30.1150000000000        -5.378848504864688E-137
   30.3050000000000        -1.089474655870605E-136
   30.4950000000000        -2.024038969996667E-136
   30.6850000000000        -3.492019894830931E-136
   30.8750000000000        -5.597287534156630E-136
   31.0650000000000        -8.240220916954876E-136
   31.2550000000000        -1.078319462238655E-135
   31.4450000000000        -1.140311417552731E-135
   31.6350000000000        -5.930034588016764E-136
   31.8250000000000         1.409314212727171E-135
   32.0150000000000         6.441046695135385E-135
   32.2050000000000         1.722505164181744E-134
   32.3950000000000         3.813369018951601E-134
   32.5850000000000         7.560121735727880E-134
   32.7750000000000         1.379978810019749E-133
   32.9650000000000         2.339832159042874E-133
   33.1550000000000         3.674300368974601E-133
   33.3450000000000         5.255435682293902E-133
   33.5350000000000         6.547194131460287E-133
   33.7250000000000         6.161836703904897E-133
   33.9150000000000         1.113722809598609E-133
   34.1050000000000        -1.432544446186626E-132
   34.2950000000000        -5.019190760499178E-132
   34.4850000000000        -1.226135887355510E-131
   34.6750000000000        -2.551036760625172E-131
   34.8650000000000        -4.776727382605199E-131
   35.0550000000000        -8.203642599612786E-131
   35.2450000000000        -1.295157097827419E-130
   35.4350000000000        -1.856486478794757E-130
   35.6250000000000        -2.326324990777758E-130
   35.8150000000000        -2.266309772744313E-130
   36.0050000000000        -7.802541838595741E-131
   36.1950000000000         3.757730820042418E-130
   36.3850000000000         1.401979976662001E-129
   36.5750000000000         3.398108067878745E-129
   36.7650000000000         6.887270149305681E-129
   36.9550000000000         1.243562099041171E-128
   37.1450000000000         2.041005756786384E-128
   37.3350000000000         3.044928395931753E-128
   37.5250000000000         4.047302275258525E-128
   37.7150000000000         4.502285441017155E-128
   37.9050000000000         3.275649405524924E-128
   38.0950000000000        -1.691816487403145E-128
   38.2850000000000        -1.376598044503231E-127
   38.4750000000000        -3.791954400475071E-127
   38.6650000000000        -8.067347880885011E-127
   38.8550000000000        -1.491653541612480E-126
   39.0450000000000        -2.484961443422494E-126
   39.2350000000000        -3.760974220584973E-126
   39.4250000000000        -5.114632300921886E-126
   39.6150000000000        -5.994114788824919E-126
   39.8050000000000        -5.254717141419772E-126
   39.9950000000000        -8.369706076056936E-127
   40.1850000000000         1.058848313281928E-125
   40.3750000000000         3.389160346419837E-125
   40.5650000000000         7.542597383526246E-125
   40.7550000000000         1.422123330684925E-124
   40.9450000000000         2.396779905673852E-124
   41.1350000000000         3.669751841862666E-124
   41.3250000000000         5.086440471524166E-124
   41.5150000000000         6.213199130774493E-124
   41.7050000000000         6.145882313542713E-124
   41.8950000000000         3.264015706381625E-124
   42.0850000000000        -5.036883384740517E-124
   42.2750000000000        -2.255089873852139E-123
   42.4650000000000        -5.423875893010523E-123
   42.6550000000000        -1.056905996228981E-122
   42.8450000000000        -1.816347950289098E-122
   43.0350000000000        -2.828830120049705E-122
   43.2250000000000        -4.009622262003099E-122
   43.4150000000000        -5.096676835558541E-122
   43.6050000000000        -5.530313681766911E-122
   43.7950000000000        -4.299712046562150E-122
   43.9850000000000         2.251840312165240E-123
   44.1750000000000         1.042979710357903E-121
   44.3650000000000         2.946895399859636E-121
   44.5550000000000         6.100737338161872E-121
   44.7450000000000         1.084580096266757E-120
   44.9350000000000         1.734065372513781E-120
   45.1250000000000         2.528441795677422E-120
   45.3150000000000         3.348247709399292E-120
   45.5050000000000         3.922845344864912E-120
   45.6950000000000         3.751149769176486E-120
   45.8850000000000         2.012916379633920E-120
   46.0750000000000        -2.509157151744204E-120
   46.2650000000000        -1.145753716005231E-119
   46.4550000000000        -2.681328590397094E-119
   46.6450000000000        -5.059781291632951E-119
   46.8350000000000        -8.423162654272044E-119
   47.0250000000000        -1.273912079478660E-118
   47.2150000000000        -1.762003338214377E-118
   47.4050000000000        -2.206352690585721E-118
   47.5950000000000        -2.411497094630834E-118
   47.7850000000000        -2.047801789575374E-118
   47.9750000000000        -6.142572037045090E-119
   48.1650000000000         2.583485405366336E-118
   48.3550000000000         8.417364942034916E-118
   48.5450000000000         1.784992459573850E-117
   48.7350000000000         3.173076381615619E-117
   48.9250000000000         5.042135597658873E-117
   49.1150000000000         7.319033915859005E-117
   49.3050000000000         9.733292457218478E-117
   49.4950000000000         1.170041535737026E-116
   49.6850000000000         1.218289043622430E-116
   49.8750000000000         9.547520571932524E-117
   50.0650000000000         1.456278292841690E-117
   50.2550000000000        -1.514702417363549E-116
   50.4450000000000        -4.386139094490225E-116
   50.6350000000000        -8.833931708225479E-116
   50.8250000000000        -1.513310779873378E-115
   51.0150000000000        -2.331005180563786E-115
   51.2050000000000        -3.290755048033396E-115
   51.3950000000000        -4.266795711724218E-115
   51.5850000000000        -5.014595487139446E-115
   51.7750000000000        -5.129036612775358E-115
   51.9650000000000        -4.007542305773967E-115
   52.1550000000000        -8.315828194159435E-116
   52.3450000000000         5.413670345321706E-115
   52.5350000000000         1.585536440266929E-114
   52.7250000000000         3.155357263971533E-114
   52.9150000000000         5.319438308030403E-114
   53.1050000000000         8.062942461383699E-114
   53.2950000000000         1.122526627829780E-113
   53.4850000000000         1.442366347315612E-113
   53.6750000000000         1.696985553064825E-113
   53.8650000000000         1.779315692073071E-113
   54.0550000000000         1.539126131869672E-113
   54.2450000000000         7.837350836220265E-114
   54.4350000000000        -7.122534228391961E-114
   54.6250000000000        -3.184797339949345E-113
   54.8150000000000        -6.843375962443832E-113
   55.0050000000000        -1.181879675418704E-112
   55.1950000000000        -1.809934009480632E-112
   55.3850000000000        -2.546394575787823E-112
   55.5750000000000        -3.342710463861240E-112
   55.7650000000000        -4.121514775186125E-112
   55.9550000000000        -4.779475509220149E-112
   56.1450000000000        -5.196730139318394E-112
   56.3350000000000        -5.252136463357209E-112
   56.5250000000000        -4.839406744467729E-112
   56.7150000000000        -3.872483943504428E-112
   56.9050000000000        -2.259190149907503E-112
   57.0950000000000         1.889556463574997E-113
   57.2850000000000         3.953453612629939E-112
   57.4750000000000         1.016024549285856E-111
   57.6650000000000         2.112676654336293E-111
   57.8550000000000         4.111453023798631E-111
   58.0450000000000         7.722800941889295E-111
   58.2350000000000         1.402770316997910E-110
   58.4250000000000         2.452269864529569E-110
   58.6150000000000         4.105911307065378E-110
   58.8050000000000         6.557810446312957E-110
   58.9950000000000         9.950633467846110E-110
   59.1850000000000         1.426457778338801E-109
   59.3750000000000         1.913802633461481E-109
   59.5650000000000         2.360537704455400E-109
   59.7550000000000         2.574830443763789E-109
   59.9450000000000         2.227894867228565E-109
   60.1350000000000         8.111605690168840E-110
   60.3250000000000        -2.396270608254629E-109
   60.5150000000000        -8.330498104620248E-109
   60.7050000000000        -1.808676437953113E-108
   60.8950000000000        -3.276434470709823E-108
   61.0850000000000        -5.316248913473141E-108
   61.2750000000000        -7.927239725670213E-108
   61.4650000000000        -1.095151685910898E-107
   61.6550000000000        -1.396981850254964E-107
   61.8450000000000        -1.617117342307549E-107
   62.0350000000000        -1.620741327559475E-107
   62.2250000000000        -1.205665915535205E-107
   62.4150000000000        -9.384150470129767E-109
   62.6050000000000         2.065366696817913E-107
   62.7950000000000         5.670867139318585E-107
   62.9850000000000         1.111264260818664E-106
   63.1750000000000         1.866799672526701E-106
   63.3650000000000         2.833760340524520E-106
   63.5550000000000         3.961104980983096E-106
   63.7450000000000         5.116005306030762E-106
   63.9350000000000         6.047324848324681E-106
   64.1250000000000         6.347137241373525E-106
   64.3150000000000         5.417714608139707E-106
   64.5050000000000         2.456012994323298E-106
   64.6950000000000        -3.526932032123257E-106
   64.8850000000000        -1.362874830771757E-105
   65.0750000000000        -2.889312363611906E-105
   65.2650000000000        -5.003263987308875E-105
   65.4550000000000        -7.701140401388382E-105
   65.6450000000000        -1.084738808749686E-104
   65.8350000000000        -1.410304324931567E-104
   66.0250000000000        -1.684497303023320E-104
   66.2150000000000        -1.808659978403956E-104
   66.4050000000000        -1.641853380061360E-104
   66.5950000000000        -9.996669969729867E-105
   66.7850000000000         3.385003992252435E-105
   66.9750000000000         2.609112516843059E-104
   67.1650000000000         6.026082247251900E-104
   67.3550000000000         1.071954454207073E-103
   67.5450000000000         1.664864537710584E-103
   67.7350000000000         2.348852736448303E-103
   67.9250000000000         3.049736304882930E-103
   68.1150000000000         3.637766253773454E-103
   68.3050000000000         3.915721884454475E-103
   68.4950000000000         3.612843429237599E-103
   68.6850000000000         2.389901521201373E-103
   68.8750000000000        -1.380406852122112E-104
   69.0650000000000        -4.353920873521158E-103
   69.2550000000000        -1.055918319949344E-102
   69.4450000000000        -1.885784279071628E-102
   69.6350000000000        -2.900417655156805E-102
   69.8250000000000        -4.022206541230527E-102
   70.0150000000000        -5.101567882724619E-102
   70.2050000000000        -5.900653067376616E-102
   70.3950000000000        -6.085005637461492E-102
   70.5850000000000        -5.230361766932768E-102
   70.7750000000000        -2.853343209146929E-102
   70.9650000000000         1.524541517555710E-102
   71.1550000000000         8.271179388904472E-102
   71.3450000000000         1.749164308733516E-101
   71.5350000000000         2.883200036166244E-101
   71.7250000000000         4.125352012685029E-101
   71.9150000000000         5.280863900362672E-101
   72.1050000000000         6.047191462227048E-101
   72.2950000000000         6.010440153898560E-101
   72.4850000000000         4.665505406966692E-101
   72.6750000000000         1.472207929759448E-101
   72.8650000000000        -4.039801709459086E-101
   73.0550000000000        -1.210672096192566E-100
   73.2450000000000        -2.250234255529390E-100
   73.4350000000000        -3.425300822893971E-100
   73.6250000000000        -4.532142241095525E-100
   73.8150000000000        -5.231115004941269E-100
   74.0050000000000        -5.027710035822824E-100
   74.1950000000000        -3.276587034088328E-100
   74.3850000000000         7.751425553161603E-101
   74.5750000000000         7.886073907100359E-100
   74.7650000000000         1.863984649725810E-099
   74.9550000000000         3.316825656765819E-099
   75.1450000000000         5.076951438015729E-099
   75.3350000000000         6.943003745537173E-099
   75.5250000000000         8.528565413507322E-099
   75.7150000000000         9.209759482108060E-099
   75.9050000000000         8.087029310602162E-099
   76.0950000000000         3.979947795698932E-099
   76.2850000000000        -4.519566768077340E-099
   76.4750000000000        -1.890442786701408E-098
   76.6650000000000        -4.048533035174732E-098
   76.8550000000000        -6.996620322758458E-098
   77.0450000000000        -1.068380409726871E-097
   77.2350000000000        -1.485874345889607E-097
   77.4250000000000        -1.897514955126899E-097
   77.6150000000000        -2.209042668235308E-097
   77.8050000000000        -2.277327743747082E-097
   77.9950000000000        -1.904524453333396E-097
   78.1850000000000        -8.391620747749391E-098
   78.3750000000000         1.211224860253819E-097
   78.5650000000000         4.550447844278871E-097
   78.7550000000000         9.441113143924102E-097
   78.9450000000000         1.602373924650421E-096
   79.1350000000000         2.420390680824866E-096
   79.3250000000000         3.350746838293499E-096
   79.5150000000000         4.290990593046146E-096
   79.7050000000000         5.065479897487947E-096
   79.8950000000000         5.408821692423916E-096
   80.0850000000000         4.955039223571200E-096
   80.2750000000000         3.238231309950873E-096
   80.4650000000000        -2.878971655001366E-097
   80.6550000000000        -6.202952257883174E-096
   80.8450000000000        -1.503597593222751E-095
   81.0350000000000        -2.713628747252730E-095
   81.2250000000000        -4.249327860170687E-095
   81.4150000000000        -6.050484414828057E-095
   81.6050000000000        -7.970299230066159E-095
   81.7950000000000        -9.745798406893127E-095
   81.9850000000000        -1.096992532237485E-094
   82.1750000000000        -1.107118877480708E-094
   82.3650000000000        -9.309023842565971E-095
   82.5550000000000        -4.795268726220952E-095
   82.7450000000000         3.446027037810458E-095
   82.9350000000000         1.636743398635845E-094
   83.1250000000000         3.472349136062281E-094
   83.3150000000000         5.882392480187859E-094
   83.5050000000000         8.821302814889119E-094
   83.6950000000000         1.212847501455972E-093
   83.8850000000000         1.548591625759006E-093
   84.0750000000000         1.837671160616069E-093
   84.2650000000000         2.005153465773601E-093
   84.4550000000000         1.951323241142620E-093
   84.6450000000000         1.553225804285313E-093
   84.8350000000000         6.707931580362359E-094
   85.0250000000000        -8.408478527689256E-094
   85.2150000000000        -3.111385745039435E-093
   85.4050000000000        -6.226547430866791E-093
   85.5950000000000        -1.019021239497047E-092
   85.7850000000000        -1.487835338814252E-092
   85.9750000000000        -1.998752025990315E-092
   86.1650000000000        -2.498288193966646E-092
   86.3550000000000        -2.905356242727635E-092
   86.5450000000000        -3.108593710035595E-092
   86.7350000000000        -2.966833766861008E-092
   86.9250000000000        -2.314272776911540E-092
   87.1150000000000        -9.719676345775623E-093
   87.3050000000000         1.232843810787644E-092
   87.4950000000000         4.438548646360734E-092
   87.6850000000000         8.711868858426805E-092
   87.8750000000000         1.400252796481995E-091
   88.0650000000000         2.009266621825795E-091
   88.2550000000000         2.654594992788555E-091
   88.4450000000000         3.266374361718514E-091
   88.6350000000000         3.745814282907461E-091
   88.8250000000000         3.965370214211466E-091
   89.0150000000000         3.773080406048461E-091
   89.2050000000000         3.002315507297936E-091
   89.3950000000000         1.487916532993958E-091
   89.5850000000000        -9.108690434328632E-092
   89.7750000000000        -4.281149618653554E-091
   89.9650000000000        -8.622604143660313E-091
   90.1550000000000        -1.381246340745000E-090
   90.3450000000000        -1.957430524224087E-090
   90.5350000000000        -2.545738391916299E-090
   90.7250000000000        -3.083447805009598E-090
   90.9150000000000        -3.492663317489975E-090
   91.1050000000000        -3.686214096574222E-090
   91.2950000000000        -3.577404693241111E-090
   91.4850000000000        -3.093488076347322E-090
   91.6750000000000        -2.191882100697059E-090
   91.8650000000000        -8.770177040803065E-091
   92.0550000000000         7.856474840173559E-091
   92.2450000000000         2.663347805788140E-090
   92.4350000000000         4.563618124768277E-090
   92.6250000000000         6.262672815610292E-090
   92.8150000000000         7.561138318316204E-090
   93.0050000000000         8.371824803510781E-090
   93.1950000000000         8.840100893277609E-090
   93.3850000000000         9.490513659050145E-090
   93.5750000000000         1.138318406160469E-089
   93.7650000000000         1.625018789239149E-089
   93.9550000000000         2.656618899895194E-089
   94.1450000000000         4.549047055178025E-089
   94.3350000000000         7.660177348689604E-089
   94.5250000000000         1.233368858896650E-088
   94.7150000000000         1.880440393881563E-088
   94.9050000000000         2.705794836466490E-088
   95.0950000000000         3.664176782686754E-088
   95.2850000000000         4.643200516204251E-088
   95.4750000000000         5.437207817782584E-088
   95.6650000000000         5.721441514321571E-088
   95.8550000000000         5.031649758817793E-088
   96.0450000000000         2.756514771556933E-088
   96.2350000000000        -1.847324381428325E-088
   96.4250000000000        -9.605767476214115E-088
   96.6150000000000        -2.133004090201311E-087
   96.8050000000000        -3.765868725458599E-087
   96.9950000000000        -5.882813327575370E-087
   97.1850000000000        -8.436697529867423E-087
   97.3750000000000        -1.127191581049765E-086
   97.5650000000000        -1.408163723283950E-086
   97.7550000000000        -1.636407396106717E-086
   97.9450000000000        -1.738450404557805E-086
   98.1350000000000        -1.615282452362985E-086
   98.3250000000000        -1.142964800942006E-086
   98.5150000000000        -1.776965794095364E-087
   98.7050000000000         1.432842731590363E-086
   98.8950000000000         3.830003598107352E-086
   99.0850000000000         7.114874147354630E-086
   99.2750000000000         1.130812876861784E-085
   99.4650000000000         1.629906337237827E-085
   99.6550000000000         2.178557727856659E-085
   99.8450000000000         2.720926124714253E-085
   100.035000000000         3.169284439117234E-085
   100.225000000000         3.399094661364109E-085
   100.415000000000         3.246914330261946E-085
   100.605000000000         2.513035937817470E-085
   100.795000000000         9.710939279719226E-086
   100.985000000000        -1.612947748115613E-085
   101.175000000000        -5.450100346452355E-085
   101.365000000000        -1.068409810955534E-084
   101.555000000000        -1.733274758703221E-084
   101.745000000000        -2.521570600874051E-084
   101.935000000000        -3.387195001394664E-084
   102.125000000000        -4.247344008367465E-084
   102.315000000000        -4.974549152766308E-084
   102.505000000000        -5.390894556760330E-084
   102.695000000000        -5.266403168784276E-084
   102.885000000000        -4.324024646126474E-084
   103.075000000000        -2.253982312462793E-084
   103.265000000000         1.259663911471735E-084
   103.455000000000         6.497636655529348E-084
   103.645000000000         1.364739352611644E-083
   103.835000000000         2.272796099765477E-083
   104.025000000000         3.349936670950306E-083
   104.215000000000         4.536141113408840E-083
   104.405000000000         5.725040439952711E-083
   104.595000000000         6.754712811889054E-083
   104.785000000000         7.401439500724848E-083
   104.975000000000         7.378770159056559E-083
   105.165000000000         6.344690141438863E-083
   105.355000000000         3.919962165782411E-083
   105.545000000000        -2.792876438038336E-084
   105.735000000000        -6.592090158952284E-083
   105.925000000000        -1.524459620826445E-082
   106.115000000000        -2.626350719593488E-082
   106.305000000000        -3.937350193531262E-082
   106.495000000000        -5.388456001787083E-082
   106.685000000000        -6.857928483718835E-082
   106.875000000000        -8.161519699005940E-082
   107.065000000000        -9.046216774300353E-082
   107.255000000000        -9.190015827434509E-082
   107.445000000000        -8.210646582916004E-082
   107.635000000000        -5.686376860718391E-082
   107.825000000000        -1.191922191694000E-082
   108.015000000000         5.648063375436054E-082
   108.205000000000         1.508656857103964E-081
   108.395000000000         2.716336220285575E-081
   108.585000000000         4.159878725418569E-081
   108.775000000000         5.767873733507100E-081
   108.965000000000         7.414150008494112E-081
   109.155000000000         8.908184333178323E-081
   109.345000000000         9.989258072674577E-081
   109.535000000000         1.032683362305062E-080
   109.725000000000         9.529958531639610E-081
   109.915000000000         7.168634876509883E-081
   110.105000000000         2.809906112648438E-081