  -1.42500000000000         0.000000000000000E+000
  -1.23500000000000         3.351966635679361E-014
  -1.04500000000000         4.497339563826966E-013
 -0.855000000000000         3.067243485638958E-012
 -0.665000000000000         1.497484919637160E-011
 -0.475000000000000         5.969202564970096E-011
 -0.285000000000000         2.012472075509771E-010
 -9.499999999999975E-002    5.902626109504894E-010
  9.500000000000020E-002    1.525634236461905E-009
  0.285000000000000         3.506094377805632E-009
  0.475000000000000         7.260281082607579E-009
  0.665000000000000         1.365056340969437E-008
  0.855000000000000         2.364071996359164E-008
   1.04500000000000         3.796973723438048E-008
   1.23500000000000         5.705473586705900E-008
   1.42500000000000         8.077700772454191E-008
   1.61500000000000         1.083538559541155E-007
   1.80500000000000         1.383767612027031E-007
   1.99500000000000         1.688430099791988E-007
   2.18500000000000         1.974067701395982E-007
   2.37500000000000         2.215462966195527E-007
   2.56500000000000         2.388221797302041E-007
   2.75500000000000         2.468773464566517E-007
   2.94500000000000         2.451659328737186E-007
   3.13500000000000         2.306834425246702E-007
   3.32500000000000         2.030790124007735E-007
   3.51500000000000         1.623326932868551E-007
   3.70500000000000         1.095449010132253E-007
   3.89500000000000         4.701942168390521E-008
   4.08500000000000        -2.156969259070683E-008
   4.27500000000000        -9.119824733647511E-008
   4.46500000000000        -1.558430899047557E-007
   4.65500000000000        -2.087134760625501E-007
   4.84500000000000        -2.431402281777789E-007
   5.03500000000000        -2.532877918282416E-007
   5.22500000000000        -2.352690335684324E-007
   5.41500000000000        -1.870277630076677E-007
   5.60500000000000        -1.093804849364736E-007
   5.79500000000000        -5.857811206876266E-009
   5.98500000000000         1.164075049040740E-007
   6.17500000000000         2.484145417403200E-007
   6.36500000000000         3.814501354728056E-007
   6.55500000000000         5.054798768007775E-007
   6.74500000000000         6.117799824595390E-007
   6.93500000000000         6.940198526698398E-007
   7.12500000000000         7.463700728012624E-007
   7.31500000000000         7.662527398484519E-007
   7.50500000000000         7.533204223283925E-007
   7.69500000000000         7.086410521866811E-007
   7.88500000000000         6.364503403142133E-007
   8.07500000000000         5.419351309386447E-007
   8.26500000000000         4.342427616379384E-007
   8.45500000000000         3.112081576812953E-007
   8.64500000000000         1.877011454922664E-007
   8.83500000000000         6.354798372944496E-008
   9.02500000000000        -5.029767074155155E-008
   9.21500000000000        -1.457061911393824E-007
   9.40500000000000        -2.161480175101436E-007
   9.59500000000000        -2.558443698976090E-007
   9.78500000000000        -2.586912285716633E-007
   9.97500000000000        -2.265152427075099E-007
   10.1650000000000        -1.581039757490305E-007
   10.3550000000000        -5.781371285664351E-008
   10.5450000000000         6.663758101904871E-008
   10.7350000000000         2.052957043180268E-007
   10.9250000000000         3.462472318649851E-007
   11.1150000000000         4.745567523588449E-007
   11.3050000000000         5.807921409965279E-007
   11.4950000000000         6.563496200697528E-007
   11.6850000000000         6.973259768395583E-007
   11.8750000000000         7.031738735820107E-007
   12.0650000000000         6.750688771615782E-007
   12.2550000000000         6.217356727071326E-007
   12.4450000000000         5.515583007885728E-007
   12.6350000000000         4.743098163010251E-007
   12.8250000000000         3.999639866664849E-007
   13.0150000000000         3.415597953340408E-007
   13.2050000000000         2.966284822638663E-007
   13.3950000000000         2.822964578232294E-007
   13.5850000000000         2.887954141108810E-007
   13.7750000000000         3.290378726345262E-007
   13.9650000000000         3.984479330651873E-007
   14.1550000000000         4.979687992248260E-007
   14.3450000000000         6.284266549485389E-007
   14.5350000000000         7.869765295893406E-007
   14.7250000000000         9.684221929893999E-007
   14.9150000000000         1.164442538624453E-006
   15.1050000000000         1.364257919497711E-006
   15.2950000000000         1.550481528754121E-006
   15.4850000000000         1.707505330332531E-006
   15.6750000000000         1.821207552325947E-006
   15.8650000000000         1.877627091205518E-006
   16.0550000000000         1.867183328019680E-006
   16.2450000000000         1.786359868959156E-006
   16.4350000000000         1.634683880717051E-006
   16.6250000000000         1.421397247574464E-006
   16.8150000000000         1.161302427057279E-006
   17.0050000000000         8.731342218960345E-007
   17.1950000000000         5.776459537776248E-007
   17.3850000000000         2.950679178541125E-007
   17.5750000000000         4.416526767584971E-008
   17.7650000000000        -1.593190216184606E-007
   17.9550000000000        -3.086210068579941E-007
   18.1450000000000        -4.011228556831435E-007
   18.3350000000000        -4.333652914078035E-007
   18.5250000000000        -4.071781877155275E-007
   18.7150000000000        -3.368137568502692E-007
   18.9050000000000        -2.215802700452950E-007
   19.0950000000000        -7.010970279352569E-008
   19.2850000000000         1.097663097428040E-007
   19.4750000000000         3.084910908889311E-007
   19.6650000000000         5.147515624128800E-007
   19.8550000000000         7.151333414592460E-007
   20.0450000000000         8.945462422599804E-007
   20.2350000000000         1.034122034319780E-006
   20.4250000000000         1.119017971632840E-006
   20.6150000000000         1.137372819967948E-006
   20.8050000000000         1.081814169153100E-006
   20.9950000000000         9.501428027336165E-007
   21.1850000000000         7.476094108192452E-007
   21.3750000000000         4.851326499365883E-007
   21.5650000000000         1.816310388125809E-007
   21.7550000000000        -1.399249368618061E-007
   21.9450000000000        -4.541915824988090E-007
   22.1350000000000        -7.374266810789326E-007
   22.3250000000000        -9.694040405429229E-007
   22.5150000000000        -1.135984042194042E-006
   22.7050000000000        -1.230251060241681E-006
   22.8950000000000        -1.245025049422893E-006
   23.0850000000000        -1.197832626615590E-006
   23.2750000000000        -1.089865548928300E-006
   23.4650000000000        -9.341249844997905E-007
   23.6550000000000        -7.450064682208469E-007
   23.8450000000000        -5.429161096339230E-007
   24.0350000000000        -3.315339969335250E-007
   24.2250000000000        -1.241216151360972E-007
   24.4150000000000         6.667842157931188E-008
   24.6050000000000         2.289361117023856E-007
   24.7950000000000         3.584325794035922E-007
   24.9850000000000         4.415723510533835E-007
   25.1750000000000         4.667226186119475E-007
   25.3650000000000         4.293632581279894E-007
   25.5550000000000         3.263693931857661E-007
   25.7450000000000         1.617936212100560E-007
   25.9350000000000        -5.244063338493480E-008
   26.1250000000000        -2.980014129536348E-007
   26.3150000000000        -5.518548072957792E-007
   26.5050000000000        -7.831459108695252E-007
   26.6950000000000        -9.657879429604320E-007
   26.8850000000000        -1.076608896554309E-006
   27.0750000000000        -1.098656272051071E-006
   27.2650000000000        -1.020132102637374E-006
   27.4550000000000        -8.409612346505187E-007
   27.6450000000000        -5.703648193028812E-007
   27.8350000000000        -2.253411857705794E-007
   28.0250000000000         1.702164951922342E-007
   28.2150000000000         5.886361299471923E-007
   28.4050000000000         1.000006397111620E-006
   28.5950000000000         1.383150118711972E-006
   28.7850000000000         1.713567651751518E-006
   28.9750000000000         1.976231071813787E-006
   29.1650000000000         2.154974342433828E-006
   29.3550000000000         2.242892396242445E-006
   29.5450000000000         2.248018589976254E-006
   29.7350000000000         2.159953527548667E-006
   29.9250000000000         1.987816188108508E-006
   30.1150000000000         1.741115431781955E-006
   30.3050000000000         1.434735045071737E-006
   30.4950000000000         1.087747923937711E-006
   30.6850000000000         7.229404329533510E-007
   30.8750000000000         3.727413851017304E-007
   31.0650000000000         6.400166843761435E-008
   31.2550000000000        -1.817067407041510E-007
   31.4450000000000        -3.323163053821185E-007
   31.6350000000000        -3.732618241415208E-007
   31.8250000000000        -2.959788230139488E-007
   32.0150000000000        -1.057496236642708E-007
   32.2050000000000         1.802470519424398E-007
   32.3950000000000         5.364775495727764E-007
   32.5850000000000         9.270855490998423E-007
   32.7750000000000         1.315970792638779E-006
   32.9650000000000         1.667125502379244E-006
   33.1550000000000         1.949313791471103E-006
   33.3450000000000         2.138744429773796E-006
   33.5350000000000         2.223170017195038E-006
   33.7250000000000         2.197103061138895E-006
   33.9150000000000         2.070080636890273E-006
   34.1050000000000         1.856248989217223E-006
   34.2950000000000         1.582906843451354E-006
   34.4850000000000         1.274218756247298E-006
   34.6750000000000         9.526735596721006E-007
   34.8650000000000         6.430974722081206E-007
   35.0550000000000         3.671247942354478E-007
   35.2450000000000         1.432480730518232E-007
   35.4350000000000        -1.410083144542521E-008
   35.6250000000000        -9.176449388413868E-008
   35.8150000000000        -8.026125018270821E-008
   36.0050000000000         1.354629651564457E-008
   36.1950000000000         1.960395074610183E-007
   36.3850000000000         4.559860920658810E-007
   36.5750000000000         7.794132839321533E-007
   36.7650000000000         1.145251929837505E-006
   36.9550000000000         1.527864834165978E-006
   37.1450000000000         1.896489327442536E-006
   37.3350000000000         2.222807304528468E-006
   37.5250000000000         2.481249803902559E-006
   37.7150000000000         2.651154595175059E-006
   37.9050000000000         2.721714048813472E-006
   38.0950000000000         2.689795926320286E-006
   38.2850000000000         2.557585359820061E-006
   38.4750000000000         2.343345915932866E-006
   38.6650000000000         2.074264173853825E-006
   38.8550000000000         1.774250267104112E-006
   39.0450000000000         1.471211922129652E-006
   39.2350000000000         1.188006918140569E-006
   39.4250000000000         9.437773037054160E-007
   39.6150000000000         7.516123708023109E-007
   39.8050000000000         6.186997179351168E-007
   39.9950000000000         5.446093404696382E-007
   40.1850000000000         5.246720691574471E-007
   40.3750000000000         5.510796400318512E-007
   40.5650000000000         6.041546533468304E-007
   40.7550000000000         6.858747876460937E-007
   40.9450000000000         7.831510178516643E-007
   41.1350000000000         8.869538359156852E-007
   41.3250000000000         9.882352208602754E-007
   41.5150000000000         1.080941517105774E-006
   41.7050000000000         1.146325113058898E-006
   41.8950000000000         1.176855907763370E-006
   42.0850000000000         1.172068877815908E-006
   42.2750000000000         1.117100351457425E-006
   42.4650000000000         1.009604438865209E-006
   42.6550000000000         8.504778626711029E-007
   42.8450000000000         6.460988043219654E-007
   43.0350000000000         4.079162423563616E-007
   43.2250000000000         1.511119604226747E-007
   43.4150000000000        -1.057159909043800E-007
   43.6050000000000        -3.443750479393516E-007
   43.7950000000000        -5.499404613592599E-007
   43.9850000000000        -7.100496857452803E-007
   44.1750000000000        -8.182634940741488E-007
   44.3650000000000        -8.734933220143942E-007
   44.5550000000000        -8.799068694717091E-007
   44.7450000000000        -8.487734599831882E-007
   44.9350000000000        -7.782032287762821E-007
   45.1250000000000        -6.792523689287618E-007
   45.3150000000000        -5.724100870173899E-007
   45.5050000000000        -4.478036364584480E-007
   45.6950000000000        -3.109364570818011E-007
   45.8850000000000        -1.616376922826739E-007
   46.0750000000000         7.179398754194495E-010
   46.2650000000000         1.753923084535641E-007
   46.4550000000000         3.598037912373061E-007
   46.6450000000000         5.472140953192828E-007
   46.8350000000000         7.280970020291908E-007
   47.0250000000000         8.961260292266400E-007
   47.2150000000000         1.045831895566560E-006
   47.4050000000000         1.163590452116049E-006
   47.5950000000000         1.246655149398479E-006
   47.7850000000000         1.297402872368333E-006
   47.9750000000000         1.318422968692527E-006
   48.1650000000000         1.319776886577008E-006
   48.3550000000000         1.309344483111849E-006
   48.5450000000000         1.295563252632092E-006
   48.7350000000000         1.288102191414743E-006
   48.9250000000000         1.291990863012106E-006
   49.1150000000000         1.314868350230649E-006
   49.3050000000000         1.344568603990901E-006
   49.4950000000000         1.390904077126315E-006
   49.6850000000000         1.434562435588513E-006
   49.8750000000000         1.479947231589699E-006
   50.0650000000000         1.522204625928461E-006
   50.2550000000000         1.550680157780475E-006
   50.4450000000000         1.579365747174961E-006
   50.6350000000000         1.608077008927738E-006
   50.8250000000000         1.642302132638530E-006
   51.0150000000000         1.688363774430854E-006
   51.2050000000000         1.740884963408237E-006
   51.3950000000000         1.802366641135721E-006
   51.5850000000000         1.875276509466278E-006
   51.7750000000000         1.948118797033217E-006
   51.9650000000000         2.013539043808164E-006
   52.1550000000000         2.064319485519478E-006
   52.3450000000000         2.094887885699334E-006
   52.5350000000000         2.099358942152897E-006
   52.7250000000000         2.087437849410726E-006
   52.9150000000000         2.059127814691055E-006
   53.1050000000000         2.018403547435565E-006
   53.2950000000000         1.971836763971443E-006
   53.4850000000000         1.928261636129002E-006
   53.6750000000000         1.893484263569751E-006
   53.8650000000000         1.865578106122140E-006
   54.0550000000000         1.845218082497461E-006
   54.2450000000000         1.832316962598589E-006
   54.4350000000000         1.824249840127939E-006
   54.6250000000000         1.817206197837671E-006
   54.8150000000000         1.809837349555877E-006
   55.0050000000000         1.803297074452206E-006
   55.1950000000000         1.799893269764033E-006
   55.3850000000000         1.803097278653969E-006
   55.5750000000000         1.818156110849846E-006
   55.7650000000000         1.847757781455502E-006
   55.9550000000000         1.897798293714510E-006
   56.1450000000000         1.965274907255628E-006
   56.3350000000000         2.038954012350982E-006
   56.5250000000000         2.108788002866050E-006
   56.7150000000000         2.162091170771404E-006
   56.9050000000000         2.185764527336677E-006
   57.0950000000000         2.168584752593342E-006
   57.2850000000000         2.103160012045019E-006
   57.4750000000000         1.994435704610930E-006
   57.6650000000000         1.842930262786641E-006
   57.8550000000000         1.653017703509916E-006
   58.0450000000000         1.446391258039979E-006
   58.2350000000000         1.236965541641052E-006
   58.4250000000000         1.039088634917636E-006
   58.6150000000000         8.673053832058549E-007
   58.8050000000000         7.266945492935542E-007
   58.9950000000000         6.267419249241039E-007
   59.1850000000000         5.774773361820057E-007
   59.3750000000000         5.675026276596107E-007
   59.5650000000000         6.056613023494431E-007
   59.7550000000000         6.866405857732662E-007
   59.9450000000000         8.081372723601109E-007
   60.1350000000000         9.592342869150378E-007
   60.3250000000000         1.143917594117900E-006
   60.5150000000000         1.354284856044018E-006
   60.7050000000000         1.582213999634451E-006
   60.8950000000000         1.816528110822870E-006
   61.0850000000000         2.041312109955393E-006
   61.2750000000000         2.239972032542197E-006
   61.4650000000000         2.396310834979378E-006
   61.6550000000000         2.495878542613304E-006
   61.8450000000000         2.527517837827018E-006
   62.0350000000000         2.487230122063548E-006
   62.2250000000000         2.374961773083587E-006
   62.4150000000000         2.194436428066533E-006
   62.6050000000000         1.968923928200229E-006
   62.7950000000000         1.717430243472929E-006
   62.9850000000000         1.463787876128790E-006
   63.1750000000000         1.229629512596822E-006
   63.3650000000000         1.035623696007485E-006
   63.5550000000000         8.988804834949839E-007
   63.7450000000000         8.325267802873336E-007
   63.9350000000000         8.336362359739004E-007
   64.1250000000000         8.980462302620929E-007
   64.3150000000000         1.015903231809013E-006
   64.5050000000000         1.175702053700139E-006
   64.6950000000000         1.367051272825095E-006
   64.8850000000000         1.574995933802664E-006
   65.0750000000000         1.777791423049841E-006
   65.2650000000000         1.966666437643434E-006
   65.4550000000000         2.129631478368379E-006
   65.6450000000000         2.255484206588457E-006
   65.8350000000000         2.334977142317283E-006
   66.0250000000000         2.359956015416655E-006
   66.2150000000000         2.324501053289906E-006
   66.4050000000000         2.226953087365001E-006
   66.5950000000000         2.070429804854223E-006
   66.7850000000000         1.864029512453129E-006
   66.9750000000000         1.622868187080560E-006
   67.1650000000000         1.365422299463094E-006
   67.3550000000000         1.113941907608974E-006
   67.5450000000000         8.920225768164459E-007
   67.7350000000000         7.242546654013104E-007
   67.9250000000000         6.329757696853848E-007
   68.1150000000000         6.300156749100052E-007
   68.3050000000000         7.240030488292735E-007
   68.4950000000000         9.093242322184322E-007
   68.6850000000000         1.177299484155581E-006
   68.8750000000000         1.510037647618875E-006
   69.0650000000000         1.884162526100180E-006
   69.2550000000000         2.271918534096763E-006
   69.4450000000000         2.646781457558867E-006
   69.6350000000000         2.985935145998162E-006
   69.8250000000000         3.268933405262038E-006
   70.0150000000000         3.479655874532853E-006
   70.2050000000000         3.608419616438061E-006
   70.3950000000000         3.650486289171845E-006
   70.5850000000000         3.603441420951215E-006
   70.7750000000000         3.476807661624348E-006
   70.9650000000000         3.279196870735317E-006
   71.1550000000000         3.022382584056827E-006
   71.3450000000000         2.722899101740713E-006
   71.5350000000000         2.400432604101363E-006
   71.7250000000000         2.077470455173550E-006
   71.9150000000000         1.777778889110927E-006
   72.1050000000000         1.524908416559542E-006
   72.2950000000000         1.340809064465387E-006
   72.4850000000000         1.242071852529459E-006
   72.6750000000000         1.241592824077070E-006
   72.8650000000000         1.343438587802692E-006
   73.0550000000000         1.539820709768511E-006
   73.2450000000000         1.815575016873283E-006
   73.4350000000000         2.148865804483415E-006
   73.6250000000000         2.511445695195280E-006
   73.8150000000000         2.872350416280177E-006
   74.0050000000000         3.201014641104382E-006
   74.1950000000000         3.470503639061706E-006
   74.3850000000000         3.659731440348649E-006
   74.5750000000000         3.749966494933919E-006
   74.7650000000000         3.748696272510748E-006
   74.9550000000000         3.650682679052040E-006
   75.1450000000000         3.477992687986824E-006
   75.3350000000000         3.243504937045786E-006
   75.5250000000000         2.971588361912743E-006
   75.7150000000000         2.690720044738692E-006
   75.9050000000000         2.426203910025312E-006
   76.0950000000000         2.198684293266352E-006
   76.2850000000000         2.027897508178001E-006
   76.4750000000000         1.928364342002099E-006
   76.6650000000000         1.906610217244885E-006
   76.8550000000000         1.968515935036750E-006
   77.0450000000000         2.116309232029381E-006
   77.2350000000000         2.338770934904521E-006
   77.4250000000000         2.618326284835474E-006
   77.6150000000000         2.932923386264322E-006
   77.8050000000000         3.262769752746232E-006
   77.9950000000000         3.580283999283656E-006
   78.1850000000000         3.857990385795726E-006
   78.3750000000000         4.069457190523480E-006
   78.5650000000000         4.197225802440800E-006
   78.7550000000000         4.216958179906957E-006
   78.9450000000000         4.134050758377548E-006
   79.1350000000000         3.942167831065748E-006
   79.3250000000000         3.656551006902028E-006
   79.5150000000000         3.296550950095991E-006
   79.7050000000000         2.889144351860281E-006
   79.8950000000000         2.465175347158156E-006
   80.0850000000000         2.056703128732467E-006
   80.2750000000000         1.696771424014667E-006
   80.4650000000000         1.409373033634044E-006
   80.6550000000000         1.214231373994597E-006
   80.8450000000000         1.123273031445137E-006
   81.0350000000000         1.136911807226716E-006
   81.2250000000000         1.253472636920759E-006
   81.4150000000000         1.463221408574743E-006
   81.6050000000000         1.750171000258912E-006
   81.7950000000000         2.092498644622616E-006
   81.9850000000000         2.464973285694003E-006
   82.1750000000000         2.839850874585806E-006
   82.3650000000000         3.197306859016045E-006
   82.5550000000000         3.514604726386628E-006
   82.7450000000000         3.771785038895197E-006
   82.9350000000000         3.954883947676935E-006
   83.1250000000000         4.052344314541647E-006
   83.3150000000000         4.059671753887163E-006
   83.5050000000000         3.980039823018507E-006
   83.6950000000000         3.820110635108406E-006
   83.8850000000000         3.592372020104914E-006
   84.0750000000000         3.316208327227502E-006
   84.2650000000000         3.010900088258287E-006
   84.4550000000000         2.699793305354407E-006
   84.6450000000000         2.403735816554785E-006
   84.8350000000000         2.142117020662019E-006
   85.0250000000000         1.929612459489124E-006
   85.2150000000000         1.775908010962137E-006
   85.4050000000000         1.685564045860760E-006
   85.5950000000000         1.656597115305479E-006
   85.7850000000000         1.684412676585450E-006
   85.9750000000000         1.758801280676144E-006
   86.1650000000000         1.867806701930526E-006
   86.3550000000000         1.998957926198393E-006
   86.5450000000000         2.139853384264392E-006
   86.7350000000000         2.279450664105789E-006
   86.9250000000000         2.409623788992515E-006
   87.1150000000000         2.524185883628981E-006
   87.3050000000000         2.618910675942380E-006
   87.4950000000000         2.693481585944849E-006
   87.6850000000000         2.749762750348401E-006
   87.8750000000000         2.789273299637216E-006
   88.0650000000000         2.818777586258978E-006
   88.2550000000000         2.835182158382381E-006
   88.4450000000000         2.847796853134919E-006
   88.6350000000000         2.859592125824171E-006
   88.8250000000000         2.882092490683892E-006
   89.0150000000000         2.917461136201910E-006
   89.2050000000000         2.975380307054717E-006
   89.3950000000000         3.061737161654647E-006
   89.5850000000000         3.179361808092919E-006
   89.7750000000000         3.329943285622635E-006
   89.9650000000000         3.512844810632088E-006
   90.1550000000000         3.724551795447562E-006
   90.3450000000000         3.958625769795777E-006
   90.5350000000000         4.209958352569388E-006
   90.7250000000000         4.460720966802279E-006
   90.9150000000000         4.698935506760378E-006
   91.1050000000000         4.910089697865938E-006
   91.2950000000000         5.079964102007097E-006
   91.4850000000000         5.196408785639882E-006
   91.6750000000000         5.251435201686997E-006
   91.8650000000000         5.239142651036671E-006
   92.0550000000000         5.156211546824246E-006
   92.2450000000000         5.008422293306212E-006
   92.4350000000000         4.799798695412411E-006
   92.6250000000000         4.539353906079821E-006
   92.8150000000000         4.238972042637355E-006
   93.0050000000000         3.913685354059401E-006
   93.1950000000000         3.579319835780107E-006
   93.3850000000000         3.252208394285536E-006
   93.5750000000000         2.948325652708977E-006
   93.7650000000000         2.682567153214255E-006
   93.9550000000000         2.468099481092969E-006
   94.1450000000000         2.315294947702018E-006
   94.3350000000000         2.231523381661300E-006
   94.5250000000000         2.220491918798348E-006
   94.7150000000000         2.280312744816979E-006
   94.9050000000000         2.416992735034804E-006
   95.0950000000000         2.609496100247226E-006
   95.2850000000000         2.854739455833835E-006
   95.4750000000000         3.134843503568438E-006
   95.6650000000000         3.432784232350357E-006
   95.8550000000000         3.731784116648446E-006
   96.0450000000000         4.015269072658069E-006
   96.2350000000000         4.268465346268681E-006
   96.4250000000000         4.479656324617923E-006
   96.6150000000000         4.640921808292612E-006
   96.8050000000000         4.749548460361267E-006
   96.9950000000000         4.806260290401000E-006
   97.1850000000000         4.816157673621850E-006
   97.3750000000000         4.793677925667282E-006
   97.5650000000000         4.739020657250899E-006
   97.7550000000000         4.667298878972346E-006
   97.9450000000000         4.588456463670013E-006
   98.1350000000000         4.511315686370816E-006
   98.3250000000000         4.442874008223188E-006
   98.5150000000000         4.388094440300702E-006
   98.7050000000000         4.349799742111122E-006
   98.8950000000000         4.324376658440885E-006
   99.0850000000000         4.326332310975475E-006
   99.2750000000000         4.337404809308428E-006
   99.4650000000000         4.365811040721057E-006
   99.6550000000000         4.405412117989871E-006
   99.8450000000000         4.445948260911520E-006
   100.035000000000         4.493821050779768E-006
   100.225000000000         4.531838880725100E-006
   100.415000000000         4.564756997073942E-006
   100.605000000000         4.580847476226219E-006
   100.795000000000         4.574563376741252E-006
   100.985000000000         4.539923317518767E-006
   101.175000000000         4.477942069112563E-006
   101.365000000000         4.385747368746624E-006
   101.555000000000         4.268325673320885E-006
   101.745000000000         4.131873977478957E-006
   101.935000000000         3.984647171548100E-006
   102.125000000000         3.837074168263235E-006
   102.315000000000         3.699919482403146E-006
   102.505000000000         3.583349318205883E-006
   102.695000000000         3.494477990795907E-006
   102.885000000000         3.438356205391886E-006
   103.075000000000         3.418778221455062E-006
   103.265000000000         3.437145670469378E-006
   103.455000000000         3.487824390747506E-006
   103.645000000000         3.567653360304225E-006
   103.835000000000         3.670803569241688E-006
   104.025000000000         3.785553938247712E-006
   104.215000000000         3.910631144249271E-006
   104.405000000000         4.042216695961629E-006
   104.595000000000         4.176720864544699E-006
   104.785000000000         4.311212565933642E-006
   104.975000000000         4.442446288380333E-006
   105.165000000000         4.567871382331313E-006
   105.355000000000         4.678641583347217E-006
   105.545000000000         4.770107890736859E-006
   105.735000000000         4.839239219852624E-006
   105.925000000000         4.889751025133906E-006
   106.115000000000         4.906005838407570E-006
   106.305000000000         4.891811151380135E-006
   106.495000000000         4.850023811741943E-006
   106.685000000000         4.786077350179302E-006
   106.875000000000         4.708109553503487E-006
   107.065000000000         4.625485531235527E-006
   107.255000000000         4.548056566855979E-006
   107.445000000000         4.484260522562378E-006
   107.635000000000         4.440332818089914E-006
   107.825000000000         4.419679671666726E-006
   108.015000000000         4.422088079723631E-006
   108.205000000000         4.442126764436795E-006
   108.395000000000         4.481918914350682E-006
   108.585000000000         4.532776956952572E-006
   108.775000000000         4.591899072558088E-006
   108.965000000000         4.644042865804179E-006
   109.155000000000         4.694823066909253E-006
   109.345000000000         4.741123915649854E-006
   109.535000000000         4.783036647047328E-006
   109.725000000000         4.821150194124026E-006
   109.915000000000         4.856061169926115E-006
   110.105000000000         4.887888462393934E-006