  -1.42500000000000         0.000000000000000E+000
  -1.23500000000000         0.000000000000000E+000
  -1.04500000000000         0.000000000000000E+000
 -0.855000000000000         0.000000000000000E+000
 -0.665000000000000         0.000000000000000E+000
 -0.475000000000000         0.000000000000000E+000
 -0.285000000000000         0.000000000000000E+000
 -9.499999999999975E-002    0.000000000000000E+000
  9.500000000000020E-002    0.000000000000000E+000
  0.285000000000000         0.000000000000000E+000
  0.475000000000000         0.000000000000000E+000
  0.665000000000000         0.000000000000000E+000
  0.855000000000000         0.000000000000000E+000
   1.04500000000000         0.000000000000000E+000
   1.23500000000000         0.000000000000000E+000
   1.42500000000000         0.000000000000000E+000
   1.61500000000000         0.000000000000000E+000
   1.80500000000000         0.000000000000000E+000
   1.99500000000000         0.000000000000000E+000
   2.18500000000000         0.000000000000000E+000
   2.37500000000000         0.000000000000000E+000
   2.56500000000000         0.000000000000000E+000
   2.75500000000000         0.000000000000000E+000
   2.94500000000000         0.000000000000000E+000
   3.13500000000000         0.000000000000000E+000
   3.32500000000000         0.000000000000000E+000
   3.51500000000000         0.000000000000000E+000
   3.70500000000000         0.000000000000000E+000
   3.89500000000000         0.000000000000000E+000
   4.08500000000000         0.000000000000000E+000
   4.27500000000000         0.000000000000000E+000
   4.46500000000000         0.000000000000000E+000
   4.65500000000000         0.000000000000000E+000
   4.84500000000000         0.000000000000000E+000
   5.03500000000000         0.000000000000000E+000
   5.22500000000000         0.000000000000000E+000
   5.41500000000000         0.000000000000000E+000
   5.60500000000000         0.000000000000000E+000
   5.79500000000000         0.000000000000000E+000
   5.98500000000000         0.000000000000000E+000
   6.17500000000000         0.000000000000000E+000
   6.36500000000000         0.000000000000000E+000
   6.55500000000000         0.000000000000000E+000
   6.74500000000000         0.000000000000000E+000
   6.93500000000000         0.000000000000000E+000
   7.12500000000000         0.000000000000000E+000
   7.31500000000000         1.130858334297623E-206
   7.50500000000000         6.239504869896128E-201
   7.69500000000000        -7.632587723254282E-195
   7.88500000000000        -2.618042505066711E-193
   8.07500000000000         6.811482327972473E-192
   8.26500000000000         7.729070392328913E-190
   8.45500000000000         3.018036181019914E-188
   8.64500000000000         7.579369116603539E-187
   8.83500000000000         1.400219808590196E-185
   9.02500000000000         2.006162810162198E-184
   9.21500000000000         2.265650982289103E-183
   9.40500000000000         1.972186165436377E-182
   9.59500000000000         1.166460289756670E-181
   9.78500000000000         1.190874765271772E-181
   9.97500000000000        -8.244000430907784E-180
   10.1650000000000        -1.415737894427012E-178
   10.3550000000000        -1.587595373351086E-177
   10.5450000000000        -1.427761609857578E-176
   10.7350000000000        -1.093491128034408E-175
   10.9250000000000        -7.296646937864559E-175
   11.1150000000000        -4.261613143330258E-174
   11.3050000000000        -2.150012051860851E-173
   11.4950000000000        -8.927796781303355E-173
   11.6850000000000        -2.546176035208223E-172
   11.8750000000000         9.801857453570884E-173
   12.0650000000000         8.463968086172772E-171
   12.2550000000000         8.179340259305875E-170
   12.4450000000000         5.754579142017686E-169
   12.6350000000000         3.448692748643311E-168
   12.8250000000000         1.854586498162436E-167
   13.0150000000000         9.169124522050106E-167
   13.2050000000000         4.224339312707144E-166
   13.3950000000000         1.828792553431408E-165
   13.5850000000000         7.480491863154259E-165
   13.7750000000000         2.901812160705302E-164
   13.9650000000000         1.070185579716693E-163
   14.1550000000000         3.758027027166245E-163
   14.3450000000000         1.257376124938744E-162
   14.5350000000000         4.007741142614777E-162
   14.7250000000000         1.215524363377440E-161
   14.9150000000000         3.499484029327209E-161
   15.1050000000000         9.522613437060935E-161
   15.2950000000000         2.431227551139926E-160
   15.4850000000000         5.748525705408981E-160
   15.6750000000000         1.227396897228513E-159
   15.8650000000000         2.232458497248615E-159
   16.0550000000000         2.843690512163948E-159
   16.2450000000000        -7.480960756111348E-160
   16.4350000000000        -2.201905313197206E-158
   16.6250000000000        -1.010461614913815E-157
   16.8150000000000        -3.434303725527439E-157
   17.0050000000000        -9.998181873293798E-157
   17.1950000000000        -2.605501357745066E-156
   17.3850000000000        -6.170557696217871E-156
   17.5750000000000        -1.329604910305548E-155
   17.7650000000000        -2.579491368501222E-155
   17.9550000000000        -4.384451163053254E-155
   18.1450000000000        -6.117277316671171E-155
   18.3350000000000        -5.702674549657034E-155
   18.5250000000000         6.083496710787422E-156
   18.7150000000000         1.348828966101517E-154
   18.9050000000000         5.988710092936160E-155
   19.0950000000000        -1.622544699278372E-153
   19.2850000000000        -9.934411624962197E-153
   19.4750000000000        -3.982084138322981E-152
   19.6650000000000        -1.304252678149983E-151
   19.8550000000000        -3.738188813330568E-151
   20.0450000000000        -9.648705769286079E-151
   20.2350000000000        -2.268776169032753E-150
   20.4250000000000        -4.860826153787739E-150
   20.6150000000000        -9.371474653177882E-150
   20.8050000000000        -1.567504049635672E-149
   20.9950000000000        -2.033376268796298E-149
   21.1850000000000        -1.003284163845855E-149
   21.3750000000000         5.316258184608715E-149
   21.5650000000000         2.613396019587404E-148
   21.7550000000000         8.132573905113368E-148
   21.9450000000000         2.094453338815029E-147
   22.1350000000000         4.770334406587472E-147
   22.3250000000000         9.821573166732744E-147
   22.5150000000000         1.832042797995074E-146
   22.7050000000000         3.048439595037609E-146
   22.8950000000000         4.308375243123685E-146
   23.0850000000000         4.358926680186415E-146
   23.2750000000000        -1.363258220648119E-147
   23.4650000000000        -1.660600437573516E-145
   23.6550000000000        -5.960372773036949E-145
   23.8450000000000        -1.544904977029830E-144
   24.0350000000000        -3.399547760930503E-144
   24.2250000000000        -6.645155244871501E-144
   24.4150000000000        -1.166635766187836E-143
   24.6050000000000        -1.819432440153719E-143
   24.7950000000000        -2.409707395172495E-143
   24.9850000000000        -2.310610897388130E-143
   25.1750000000000        -1.070293343313378E-144
   25.3650000000000         6.938125404042496E-143
   25.5550000000000         2.349743362971193E-142
   25.7450000000000         5.659215741964393E-142
   25.9350000000000         1.151569473260803E-141
   26.1250000000000         2.075223599649830E-141
   26.3150000000000         3.347662546974572E-141
   26.5050000000000         4.769055289866692E-141
   26.6950000000000         5.679209589422824E-141
   26.8850000000000         4.548507235624618E-141
   27.0750000000000        -1.642499063943387E-141
   27.2650000000000        -1.829163495758587E-140
   27.4550000000000        -5.440500488104665E-140
   27.6450000000000        -1.242838891238155E-139
   27.8350000000000        -2.498408035442796E-139
   28.0250000000000        -4.636597315547764E-139
   28.2150000000000        -8.122973777311962E-139
   28.4050000000000        -1.356993715842126E-138
   28.5950000000000        -2.162477499808700E-138
   28.7850000000000        -3.249486592136360E-138
   28.9750000000000        -4.456231572083201E-138
   29.1650000000000        -5.100456445980343E-138
   29.3550000000000        -3.253065568122196E-138
   29.5450000000000         5.660692038816166E-138
   29.7350000000000         3.127008615155488E-137
   29.9250000000000         9.188370468893876E-137
   30.1150000000000         2.189193677411018E-136
   30.3050000000000         4.600898222215672E-136
   30.4950000000000         8.757983281521966E-136
   30.6850000000000         1.516743110702318E-135
   30.8750000000000         2.360232398214526E-135
   31.0650000000000         3.167874056782446E-135
   31.2550000000000         3.210200711887814E-135
   31.4450000000000         7.916550654013482E-136
   31.6350000000000        -7.481161071311550E-135
   31.8250000000000        -2.768226869788707E-134
   32.0150000000000        -6.962537653004126E-134
   32.2050000000000        -1.474706391373285E-133
   32.3950000000000        -2.787091201139213E-133
   32.5850000000000        -4.793128987658677E-133
   32.7750000000000        -7.513078264279577E-133
   32.9650000000000        -1.057011242078026E-132
   33.1550000000000        -1.271893079544706E-132
   33.3450000000000        -1.106075411852472E-132
   33.5350000000000         1.581938722968110E-134
   33.7250000000000         3.122964619406916E-132
   33.9150000000000         9.908926281659545E-132
   34.1050000000000         2.295004093279962E-131
   34.2950000000000         4.583853928376606E-131
   34.4850000000000         8.302627102416313E-131
   34.6750000000000         1.389746055336149E-130
   34.8650000000000         2.158626255769043E-130
   35.0550000000000         3.085509161567821E-130
   35.2450000000000         3.946734460347510E-130
   35.4350000000000         4.166568620624943E-130
   35.6250000000000         2.514092868427945E-130
   35.8150000000000        -3.367946018248972E-130
   36.0050000000000        -1.762141499996250E-129
   36.1950000000000        -4.694511470713184E-129
   36.3850000000000        -1.011808826873625E-128
   36.5750000000000        -1.929441738707134E-128
   36.7650000000000        -3.346756515525191E-128
   36.9550000000000        -5.301035414140411E-128
   37.1450000000000        -7.551307252167319E-128
   37.3350000000000        -9.208402931117842E-128
   37.5250000000000        -8.095840570198262E-128
   37.7150000000000         2.375796027324745E-129
   37.9050000000000         2.384794426387560E-127
   38.0950000000000         7.582787510501976E-127
   38.2850000000000         1.750928031148178E-126
   38.4750000000000         3.448431100331808E-126
   38.6650000000000         6.055021926868282E-126
   38.8550000000000         9.567380683588530E-126
   39.0450000000000         1.340494531205380E-125
   39.2350000000000         1.574560227295398E-125
   39.4250000000000         1.245968506457891E-125
   39.6150000000000        -4.408616844946986E-126
   39.8050000000000        -4.848546904644346E-125
   39.9950000000000        -1.407148667667169E-124
   40.1850000000000        -3.095469490316884E-124
   40.3750000000000        -5.871814271030336E-124
   40.5650000000000        -9.975797121389436E-124
   40.7550000000000        -1.529647176427167E-123
   40.9450000000000        -2.086593552118633E-123
   41.1350000000000        -2.401117414536231E-123
   41.3250000000000        -1.907963402500740E-123
   41.5150000000000         4.255625677045544E-124
   41.7050000000000         6.288406996390200E-123
   41.8950000000000         1.816784386082973E-122
   42.0850000000000         3.930465978215753E-122
   42.2750000000000         7.320817302446743E-122
   42.4650000000000         1.223240088173484E-121
   42.6550000000000         1.852679608661281E-121
   42.8450000000000         2.518808553906173E-121
   43.0350000000000         2.953230827233304E-121
   43.2250000000000         2.606953689838852E-121
   43.4150000000000         5.053442887204045E-122
   43.6050000000000        -4.905981119816490E-121
   43.7950000000000        -1.586817650526285E-120
   43.9850000000000        -3.525824739668762E-120
   44.1750000000000        -6.619024598582796E-120
   44.3650000000000        -1.109768596997618E-119
   44.5550000000000        -1.690484992597715E-119
   44.7450000000000        -2.333401130950474E-119
   44.9350000000000        -2.846590974771673E-119
   45.1250000000000        -2.837515929760279E-119
   45.3150000000000        -1.613559715868873E-119
   45.5050000000000         1.923031754236720E-119
   45.6950000000000         9.351025678278436E-119
   45.8850000000000         2.271069703373614E-118
   46.0750000000000         4.427878519540924E-118
   46.2650000000000         7.597295902422291E-118
   46.4550000000000         1.181629328878008E-117
   46.6450000000000         1.676221656610058E-117
   46.8350000000000         2.143584354514659E-117
   47.0250000000000         2.371666776132359E-117
   47.2150000000000         1.980305712334683E-117
   47.4050000000000         3.606142249233298E-118
   47.5950000000000        -3.373804990538680E-117
   47.7850000000000        -1.039279619017228E-116
   47.9750000000000        -2.206162639638294E-116
   48.1650000000000        -3.968312426562664E-116
   48.3550000000000        -6.396797760316123E-116
   48.5450000000000        -9.411104069181166E-116
   48.7350000000000        -1.263505505348408E-115
   48.9250000000000        -1.519262887482151E-115
   49.1150000000000        -1.544617642575348E-115
   49.3050000000000        -1.070127731390443E-115
   49.4950000000000         3.060640960960188E-116
   49.6850000000000         3.130476776365385E-115
   49.8750000000000         8.072615084199053E-115
   50.0650000000000         1.584037595955983E-114
   50.2550000000000         2.699323647990761E-114
   50.4450000000000         4.160533637050303E-114
   50.6350000000000         5.872809661782299E-114
   50.8250000000000         7.561257234679144E-114
   51.0150000000000         8.668513436510199E-114
   51.2050000000000         8.233890755049863E-114
   51.3950000000000         4.772199939941677E-114
   51.5850000000000        -3.811457208495024E-114
   51.7750000000000        -2.020933085597777E-113
   51.9650000000000        -4.750762870369265E-113
   52.1550000000000        -8.866313205239079E-113
   52.3450000000000        -1.454986479401140E-112
   52.5350000000000        -2.170395767354784E-112
   52.7250000000000        -2.970326510985183E-112
   52.9150000000000        -3.705700306631449E-112
   53.1050000000000        -4.099236885316783E-112
   53.2950000000000        -3.700183377436401E-112
   53.4850000000000        -1.844771188410560E-112
   53.6750000000000         2.361089998570998E-112
   53.8650000000000         1.001114143893032E-111
   54.0550000000000         2.228374775980304E-111
   54.2450000000000         4.019571123587159E-111
   54.4350000000000         6.417096169194325E-111
   54.6250000000000         9.337112740303972E-111
   54.8150000000000         1.247511441277203E-110
   55.0050000000000         1.518436237853884E-110
   55.1950000000000         1.633515660001726E-110
   55.3850000000000         1.417512505366105E-110
   55.5750000000000         6.228435760502688E-111
   55.7650000000000        -1.070478956361128E-110
   55.9550000000000        -4.035973860222188E-110
   56.1450000000000        -8.651078724692724E-110
   56.3350000000000        -1.520264536653819E-109
   56.5250000000000        -2.373266278424154E-109
   56.7150000000000        -3.381179983221719E-109
   56.9050000000000        -4.423612459745411E-109
   57.0950000000000        -5.265792933685886E-109
   57.2850000000000        -5.518761511725984E-109
   57.4750000000000        -4.604228666963856E-109
   57.6650000000000        -1.736894831251370E-109
   57.8550000000000         4.056582817297742E-109
   58.0450000000000         1.385584085589106E-108
   58.2350000000000         2.866991762564741E-108
   58.4250000000000         4.912949937770440E-108
   58.6150000000000         7.501527065786665E-108
   58.8050000000000         1.046023425421629E-107
   58.9950000000000         1.338292668773363E-107
   59.1850000000000         1.553498066676280E-107
   59.3750000000000         1.576013624629914E-107
   59.5650000000000         1.241282974512870E-107
   59.7550000000000         3.352898379226056E-108
   59.9450000000000        -1.394584143411938E-107
   60.1350000000000        -4.210774151755306E-107
   60.3250000000000        -8.331352525869416E-107
   60.5150000000000        -1.384311101784074E-106
   60.7050000000000        -2.057653084087116E-106
   60.8950000000000        -2.794205855128722E-106
   61.0850000000000        -3.473578419163071E-106
   61.2750000000000        -3.893614708160548E-106
   61.4650000000000        -3.753223325516409E-106
   61.6550000000000        -2.644828604270889E-106
   61.8450000000000        -6.565042906590259E-108
   62.0350000000000         4.540279262231699E-106
   62.2250000000000         1.169546711002130E-105
   62.4150000000000         2.174351212991543E-105
   62.6050000000000         3.463352213422155E-105
   62.7950000000000         4.963065253937121E-105
   62.9850000000000         6.496324811413842E-105
   63.1750000000000         7.743959939009284E-105
   63.3650000000000         8.209919429690184E-105
   63.5550000000000         7.200418286904199E-105
   63.7450000000000         3.832385765499877E-105
   63.9350000000000        -2.908790609482038E-105
   64.1250000000000        -1.403859113081473E-104
   64.3150000000000        -3.034519483150415E-104
   64.5050000000000        -5.204324568415707E-104
   64.6950000000000        -7.830063282651779E-104
   64.8850000000000        -1.066516437702579E-103
   65.0750000000000        -1.323454990867717E-103
   65.2650000000000        -1.477299897284965E-103
   65.4550000000000        -1.418352172159497E-103
   65.6450000000000        -1.003981144249890E-103
   65.8350000000000        -6.644942047048715E-105
   66.0250000000000         1.567903767759724E-103
   66.2150000000000         4.044146083517053E-103
   66.4050000000000         7.425483932574273E-103
   66.5950000000000         1.161955194744084E-102
   66.7850000000000         1.628592724002289E-102
   66.9750000000000         2.073194625515686E-102
   67.1650000000000         2.381163336366780E-102
   67.3550000000000         2.385254465622175E-102
   67.5450000000000         1.864698626835369E-102
   67.7350000000000         5.555985922731941E-103
   67.9250000000000        -1.821587062244752E-102
   68.1150000000000        -5.511278488783497E-102
   68.3050000000000        -1.064324002553336E-101
   68.4950000000000        -1.712120847296084E-101
   68.6850000000000        -2.448142687980763E-101
   68.8750000000000        -3.173066658432363E-101
   69.0650000000000        -3.718461595292024E-101
   69.2550000000000        -3.834224181075095E-101
   69.4450000000000        -3.184910795061017E-101
   69.6350000000000        -1.362077006446010E-101
   69.8250000000000         2.078711211472345E-101
   70.0150000000000         7.546753915465094E-101
   70.2050000000000         1.530224345969516E-100
   70.3950000000000         2.529375890406922E-100
   70.5850000000000         3.694793210915266E-100
   70.7750000000000         4.892264530030942E-100
   70.9650000000000         5.885073495343716E-100
   71.1550000000000         6.312186953901162E-100
   71.3450000000000         5.677518094580488E-100
   71.5350000000000         3.360204860990369E-100
   71.7250000000000        -1.341710198578700E-100
   71.9150000000000        -9.120265788298377E-100
   72.1050000000000        -2.050557697646496E-099
   72.2950000000000        -3.564244944833775E-099
   72.4850000000000        -5.399281299851953E-099
   72.6750000000000        -7.397442974160890E-099
   72.8650000000000        -9.256633656963685E-099
   73.0550000000000        -1.049386743485444E-098
   73.2450000000000        -1.041982290233638E-098
   73.4350000000000        -8.137869989194394E-099
   73.6250000000000        -2.584155853996134E-099
   73.8150000000000         7.371847072313716E-099
   74.0050000000000         2.274609791592730E-098
   74.1950000000000         4.416042141950224E-098
   74.3850000000000         7.145473745658852E-098
   74.5750000000000         1.031958845938795E-097
   74.7650000000000         1.361110429775421E-097
   74.9550000000000         1.645064511684974E-097
   75.1450000000000         1.797740237080159E-097
   75.3350000000000         1.701374272572516E-097
   75.5250000000000         1.208402771671186E-097
   75.7150000000000         1.502404193292664E-098
   75.9050000000000        -1.644303336809560E-097
   76.0950000000000        -4.318316002314069E-097
   76.2850000000000        -7.941761559729289E-097
   76.4750000000000        -1.245153172873332E-096
   76.6650000000000        -1.757833715101217E-096
   76.8550000000000        -2.276572853770125E-096
   77.0450000000000        -2.709124014203352E-096
   77.2350000000000        -2.920538289453724E-096
   77.4250000000000        -2.731055741903790E-096
   77.6150000000000        -1.920812002693367E-096
   77.8050000000000        -2.446596081960865E-097
   77.9950000000000         2.539429317263790E-096
   78.1850000000000         6.625266374220636E-096
   78.3750000000000         1.209466110799711E-095
   78.5650000000000         1.883507907301187E-095
   78.7550000000000         2.644222464752695E-095
   78.9450000000000         3.411571075986871E-095
   79.1350000000000         4.056193440977995E-095
   79.3250000000000         4.392519315629851E-095
   79.5150000000000         4.177528968119018E-095
   79.7050000000000         3.118628869730367E-095
   79.8950000000000         8.945149296049425E-096
   80.0850000000000        -2.807136899470453E-095
   80.2750000000000        -8.232022413336782E-095
   80.4650000000000        -1.548011290744175E-094
   80.6550000000000        -2.440642135102666E-094
   80.8450000000000        -3.450705957591964E-094
   81.0350000000000        -4.480146346464213E-094
   81.2250000000000        -5.372823150749301E-094
   81.4150000000000        -5.907919242651917E-094
   81.6050000000000        -5.800318817012139E-094
   81.7950000000000        -4.711629523811915E-094
   81.9850000000000        -2.275704461094245E-094
   82.1750000000000         1.857847913260691E-094
   82.3650000000000         7.959826118455554E-094
   82.5550000000000         1.613707284155907E-093
   82.7450000000000         2.623067986960768E-093
   82.9350000000000         3.770432553960057E-093
   83.1250000000000         4.953580679216185E-093
   83.3150000000000         6.013093095195332E-093
   83.5050000000000         6.728489246815720E-093
   83.6950000000000         6.822095852862967E-093
   83.8850000000000         5.973824110103921E-093
   84.0750000000000         3.849776747346235E-093
   84.2650000000000         1.467081545589458E-094
   84.4550000000000        -5.347351738738496E-093
   84.6450000000000        -1.267864184418588E-092
   84.8350000000000        -2.164529213133890E-092
   85.0250000000000        -3.171727761469300E-092
   85.2150000000000        -4.197366412775114E-092
   85.4050000000000        -5.107647644179925E-092
   85.5950000000000        -5.730353397200390E-092
   85.7850000000000        -5.866292812738871E-092
   85.9750000000000        -5.310789895935858E-092
   86.1650000000000        -3.886108922572968E-092
   86.3550000000000        -1.484011579859800E-092
   86.5450000000000         1.884866978480279E-092
   86.7350000000000         6.041408819422794E-092
   86.9250000000000         1.059858401870918E-091
   87.1150000000000         1.494655007899183E-091
   87.3050000000000         1.827993407016978E-091
   87.4950000000000         1.968657109226386E-091
   87.6850000000000         1.831554393923884E-091
   87.8750000000000         1.363630398255548E-091
   88.0650000000000         5.788309277130796E-092
   88.2550000000000        -3.999422323677850E-092
   88.4450000000000        -1.296795712158389E-091
   88.6350000000000        -1.645298461652836E-091
   88.8250000000000        -7.702405830760564E-092
   89.0150000000000         2.194124743229864E-091
   89.2050000000000         8.228480497720962E-091
   89.3950000000000         1.827271621685386E-090
   89.5850000000000         3.296870692195503E-090
   89.7750000000000         5.228674707042823E-090
   89.9650000000000         7.503435087163952E-090
   90.1550000000000         9.826859563629695E-090
   90.3450000000000         1.166658863146232E-089
   90.5350000000000         1.219462378748579E-089
   90.7250000000000         1.025014521311688E-089
   90.9150000000000         4.343393731814958E-090
   91.1050000000000        -7.273189710947600E-090
   91.2950000000000        -2.643620162501813E-089
   91.4850000000000        -5.477326600380195E-089
   91.6750000000000        -9.324779930427207E-089
   91.8650000000000        -1.415294532463865E-088
   92.0550000000000        -1.971937091861690E-088
   92.2450000000000        -2.547866040805228E-088
   92.4350000000000        -3.048365381105854E-088
   92.6250000000000        -3.329546866981697E-088
   92.8150000000000        -3.192366377429107E-088
   93.0050000000000        -2.382552750565362E-088
   93.1950000000000        -6.000932194824222E-089
   93.3850000000000         2.477508516209928E-088
   93.5750000000000         7.153781077942913E-088
   93.7650000000000         1.364963074892448E-087
   93.9550000000000         2.201478620412703E-087
   94.1450000000000         3.201416735997095E-087
   94.3350000000000         4.299301769264418E-087
   94.5250000000000         5.373035111329152E-087
   94.7150000000000         6.229772114867542E-087
   94.9050000000000         6.594931826569988E-087
   95.0950000000000         6.107937879362595E-087
   95.2850000000000         4.329281619448448E-087
   95.4750000000000         7.643268460396595E-088
   95.6650000000000        -5.090282453245533E-087
   95.8550000000000        -1.367197829302986E-086
   96.0450000000000        -2.524499038078769E-086
   96.2350000000000        -3.975864037301590E-086
   96.4250000000000        -5.667374444881845E-086
   96.6150000000000        -7.476599159034779E-086
   96.8050000000000        -9.192362504028650E-086
   96.9950000000000        -1.049672124604491E-085
   97.1850000000000        -1.095312429928020E-085
   97.3750000000000        -1.000597379603081E-085
   97.5650000000000        -6.997939944619361E-086
   97.7550000000000        -1.212175150563680E-086
   97.9450000000000         8.053275327531983E-086
   98.1350000000000         2.137242247994193E-085
   98.3250000000000         3.903546459626490E-085
   98.5150000000000         6.085001280768908E-085
   98.7050000000000         8.590559777276871E-085
   98.8950000000000         1.123163284344022E-084
   99.0850000000000         1.369676600011119E-084
   99.2750000000000         1.553063540282832E-084
   99.4650000000000         1.612270328689411E-084
   99.6550000000000         1.471227898487499E-084
   99.8450000000000         1.041789529655090E-084
   100.035000000000         2.299539421186539E-085
   100.225000000000        -1.053799126315204E-084
   100.415000000000        -2.879392626591903E-084
   100.605000000000        -5.276922234489508E-084
   100.795000000000        -8.211533508248322E-084
   100.985000000000        -1.155443135030626E-083
   101.175000000000        -1.505211489479580E-083
   101.365000000000        -1.829724467651093E-083
   101.555000000000        -2.070604736179284E-083
   101.745000000000        -2.150872914113318E-083
   101.935000000000        -1.976081734478782E-083
   102.125000000000        -1.438442138939081E-083
   102.315000000000        -4.248763922371344E-084
   102.505000000000         1.170141949272409E-083
   102.695000000000         3.426332126266656E-083
   102.885000000000         6.373735893015893E-083
   103.075000000000         9.963703550500691E-083
   103.265000000000         1.403613911532184E-082
   103.455000000000         1.828560307893901E-082
   103.645000000000         2.223029520279424E-082
   103.835000000000         2.518950913589973E-082
   104.025000000000         2.627672298127387E-082
   104.215000000000         2.441685472000043E-082
   104.405000000000         1.839708606670085E-082
   104.595000000000         6.960692450543238E-083
   104.785000000000        -1.104789269833346E-082
   104.975000000000        -3.648143071906882E-082
   105.165000000000        -6.963125205844219E-082
   105.355000000000        -1.099185997902264E-081
   105.545000000000        -1.555527695612243E-081
   105.735000000000        -2.031851682525639E-081
   105.925000000000        -2.476026279237851E-081
   106.115000000000        -2.815184670810251E-081
   106.305000000000        -2.955343361767036E-081
   106.495000000000        -2.783576348598118E-081
   106.685000000000        -2.173654280027702E-081
   106.875000000000        -9.960294694558684E-082
   107.065000000000         8.671078956541594E-082
   107.255000000000         3.501297347774857E-081
   107.445000000000         6.933913097963704E-081
   107.635000000000         1.110375949992812E-080
   107.825000000000         1.582797529032928E-080
   108.015000000000         2.076923308854046E-080
   108.205000000000         2.540753335856898E-080
   108.395000000000         2.902224610678752E-080
   108.585000000000         3.069129480532171E-080
   108.775000000000         2.931529737669634E-080
   108.965000000000         2.367481964866025E-080
   109.155000000000         1.252835840030096E-080
   109.345000000000        -5.243064826998189E-081
   109.535000000000        -3.044205823133163E-080
   109.725000000000        -6.331411658582004E-080
   109.915000000000        -1.032692222114099E-079
   110.105000000000        -1.485837725523905E-079