  -1.42500000000000         0.000000000000000E+000
  -1.23500000000000         0.000000000000000E+000
  -1.04500000000000         0.000000000000000E+000
 -0.855000000000000         0.000000000000000E+000
 -0.665000000000000         0.000000000000000E+000
 -0.475000000000000         0.000000000000000E+000
 -0.285000000000000         0.000000000000000E+000
 -9.499999999999975E-002    0.000000000000000E+000
  9.500000000000020E-002    0.000000000000000E+000
  0.285000000000000         0.000000000000000E+000
  0.475000000000000         0.000000000000000E+000
  0.665000000000000         0.000000000000000E+000
  0.855000000000000         0.000000000000000E+000
   1.04500000000000         0.000000000000000E+000
   1.23500000000000         0.000000000000000E+000
   1.42500000000000         0.000000000000000E+000
   1.61500000000000         0.000000000000000E+000
   1.80500000000000         0.000000000000000E+000
   1.99500000000000         0.000000000000000E+000
   2.18500000000000         0.000000000000000E+000
   2.37500000000000         0.000000000000000E+000
   2.56500000000000         0.000000000000000E+000
   2.75500000000000         0.000000000000000E+000
   2.94500000000000         0.000000000000000E+000
   3.13500000000000         0.000000000000000E+000
   3.32500000000000         0.000000000000000E+000
   3.51500000000000         0.000000000000000E+000
   3.70500000000000         0.000000000000000E+000
   3.89500000000000         0.000000000000000E+000
   4.08500000000000         0.000000000000000E+000
   4.27500000000000         0.000000000000000E+000
   4.46500000000000         0.000000000000000E+000
   4.65500000000000         0.000000000000000E+000
   4.84500000000000         0.000000000000000E+000
   5.03500000000000         0.000000000000000E+000
   5.22500000000000         0.000000000000000E+000
   5.41500000000000         0.000000000000000E+000
   5.60500000000000         0.000000000000000E+000
   5.79500000000000         0.000000000000000E+000
   5.98500000000000         0.000000000000000E+000
   6.17500000000000         0.000000000000000E+000
   6.36500000000000         0.000000000000000E+000
   6.55500000000000         0.000000000000000E+000
   6.74500000000000         0.000000000000000E+000
   6.93500000000000         0.000000000000000E+000
   7.12500000000000         0.000000000000000E+000
   7.31500000000000         0.000000000000000E+000
   7.50500000000000         0.000000000000000E+000
   7.69500000000000        -1.050938392243561E-214
   7.88500000000000        -1.940042228202447E-209
   8.07500000000000        -6.015459451753758E-205
   8.26500000000000        -3.493673337750111E-204
   8.45500000000000         9.365404929392079E-202
   8.64500000000000         6.770886629256078E-200
   8.83500000000000         3.590404515691102E-198
   9.02500000000000         1.437063909191114E-196
   9.21500000000000         4.330950945253190E-195
   9.40500000000000         1.018801604490299E-193
   9.59500000000000         1.944628115092773E-192
   9.78500000000000         3.108083642151469E-191
   9.97500000000000         4.259772558782531E-190
   10.1650000000000         5.090333765937046E-189
   10.3550000000000         5.346512178644902E-188
   10.5450000000000         4.903738097459618E-187
   10.7350000000000         3.774463610823565E-186
   10.9250000000000         2.085304082054901E-185
   11.1150000000000         5.645787349842365E-186
   11.3050000000000        -2.020273647805916E-183
   11.4950000000000        -3.828461023960856E-182
   11.6850000000000        -5.102187506581891E-181
   11.8750000000000        -5.699257802882990E-180
   12.0650000000000        -5.633685634063879E-179
   12.2550000000000        -5.051688633871735E-178
   12.4450000000000        -4.167665549598523E-177
   12.6350000000000        -3.193435453567375E-176
   12.8250000000000        -2.288658403032556E-175
   13.0150000000000        -1.542796714467987E-174
   13.2050000000000        -9.829030024235320E-174
   13.3950000000000        -5.942923548740922E-173
   13.5850000000000        -3.422993127681034E-172
   13.7750000000000        -1.884589280290469E-171
   13.9650000000000        -9.949633945779894E-171
   14.1550000000000        -5.051889090032243E-170
   14.3450000000000        -2.473668650295597E-169
   14.5350000000000        -1.171014692044072E-168
   14.7250000000000        -5.371675033961386E-168
   14.9150000000000        -2.392594694489900E-167
   15.1050000000000        -1.036591131935407E-166
   15.2950000000000        -4.374859615593081E-166
   15.4850000000000        -1.800716675329217E-165
   15.6750000000000        -7.234769583483570E-165
   15.8650000000000        -2.838890839174634E-164
   16.0550000000000        -1.088300702971754E-163
   16.2450000000000        -4.076220819920247E-163
   16.4350000000000        -1.491509732482799E-162
   16.6250000000000        -5.330174447374722E-162
   16.8150000000000        -1.859699933690265E-161
   17.0050000000000        -6.331890451466644E-161
   17.1950000000000        -2.102747855098716E-160
   17.3850000000000        -6.806949070790987E-160
   17.5750000000000        -2.146590452356930E-159
   17.7650000000000        -6.589634603384925E-159
   17.9550000000000        -1.967541138948766E-158
   18.1450000000000        -5.708236542598114E-158
   18.3350000000000        -1.607168109950172E-157
   18.5250000000000        -4.384528605287532E-157
   18.7150000000000        -1.156631094535169E-156
   18.9050000000000        -2.942135893575506E-156
   19.0950000000000        -7.187925218850441E-156
   19.2850000000000        -1.676666684025063E-155
   19.4750000000000        -3.699103037386716E-155
   19.6650000000000        -7.592798670514262E-155
   19.8550000000000        -1.402939303534273E-154
   20.0450000000000        -2.146354327487088E-154
   20.2350000000000        -1.886026170880194E-154
   20.4250000000000         3.604049743507472E-154
   20.6150000000000         2.759736608216742E-153
   20.8050000000000         1.076009098827264E-152
   20.9950000000000         3.426953211229988E-152
   21.1850000000000         9.831673824856590E-152
   21.3750000000000         2.644237325171557E-151
   21.5650000000000         6.820830712981660E-151
   21.7550000000000         1.715600380019403E-150
   21.9450000000000         4.265373146171162E-150
   22.1350000000000         1.060052786288608E-149
   22.3250000000000         2.654183381643126E-149
   22.5150000000000         6.717268806831220E-149
   22.7050000000000         1.715654619498864E-148
   22.8950000000000         4.398393553051548E-148
   23.0850000000000         1.123461782696013E-147
   23.2750000000000         2.836909376293809E-147
   23.4650000000000         7.031566630227335E-147
   23.6550000000000         1.699991064856985E-146
   23.8450000000000         3.985947717743627E-146
   24.0350000000000         9.010355535792537E-146
   24.2250000000000         1.949690347896508E-145
   24.4150000000000         3.996837644503135E-145
   24.6050000000000         7.627886325757391E-145
   24.7950000000000         1.308457959367638E-144
   24.9850000000000         1.840932756704936E-144
   25.1750000000000         1.373696749340554E-144
   25.3650000000000        -3.429234878339856E-144
   25.5550000000000        -2.219134451076572E-143
   25.7450000000000        -8.021030152469714E-143
   25.9350000000000        -2.397921286313920E-142
   26.1250000000000        -6.467756148732203E-142
   26.3150000000000        -1.628248791713419E-141
   26.5050000000000        -3.890651144908349E-141
   26.6950000000000        -8.907832754149968E-141
   26.8850000000000        -1.965560745067484E-140
   27.0750000000000        -4.195413016166325E-140
   27.2650000000000        -8.683147385214608E-140
   27.4550000000000        -1.745190309788270E-139
   27.6450000000000        -3.408972615796498E-139
   27.8350000000000        -6.473211456362855E-139
   28.0250000000000        -1.194516199997370E-138
   28.2150000000000        -2.140136720190663E-138
   28.4050000000000        -3.716681961277734E-138
   28.5950000000000        -6.240205672348347E-138
   28.7850000000000        -1.008823573199575E-137
   28.9750000000000        -1.560428301653516E-137
   29.1650000000000        -2.285255361834027E-137
   29.3550000000000        -3.109727544129793E-137
   29.5450000000000        -3.781812598698375E-137
   29.7350000000000        -3.700962530553255E-137
   29.9250000000000        -1.648469723055453E-137
   30.1150000000000         4.600864753243277E-137
   30.3050000000000         1.876891067445112E-136
   30.4950000000000         4.655954047626646E-136
   30.6850000000000         9.584574584835514E-136
   30.8750000000000         1.759187113271579E-135
   31.0650000000000         2.945691144753985E-135
   31.2550000000000         4.508409366858850E-135
   31.4450000000000         6.199421000063408E-135
   31.6350000000000         7.249894433004189E-135
   31.8250000000000         5.881329591974237E-135
   32.0150000000000        -1.484427998054710E-135
   32.2050000000000        -2.142224980133612E-134
   32.3950000000000        -6.519949606658778E-134
   32.5850000000000        -1.509996448387589E-133
   32.7750000000000        -3.065624004078968E-133
   32.9650000000000        -5.718808618107546E-133
   33.1550000000000        -1.001228735519589E-132
   33.3450000000000        -1.663342557991440E-132
   33.5350000000000        -2.638202873736007E-132
   33.7250000000000        -4.008884459683984E-132
   33.9150000000000        -5.848017425202435E-132
   34.1050000000000        -8.201550309519089E-132
   34.2950000000000        -1.107916028092897E-131
   34.4850000000000        -1.447236229368513E-131
   34.6750000000000        -1.843888938574041E-131
   34.8650000000000        -2.331302685722512E-131
   35.0550000000000        -3.011646018834642E-131
   35.2450000000000        -4.122652617035650E-131
   35.4350000000000        -6.124968501597486E-131
   35.6250000000000        -9.772873803466391E-131
   35.8150000000000        -1.605595458007377E-130
   36.0050000000000        -2.574109384435098E-130
   36.1950000000000        -3.793643817659847E-130
   36.3850000000000        -4.653558381502959E-130
   36.5750000000000        -3.242154485278478E-130
   36.7650000000000         5.230615426676983E-130
   36.9550000000000         3.143482874633173E-129
   37.1450000000000         9.734556565209994E-129
   37.3350000000000         2.455942432761522E-128
   37.5250000000000         5.548495925961025E-128
   37.7150000000000         1.163875752833453E-127
   37.9050000000000         2.307011144910524E-127
   38.0950000000000         4.362615901572133E-127
   38.2850000000000         7.911910819056434E-127
   38.4750000000000         1.379563680692980E-126
   38.6650000000000         2.313515323294057E-126
   38.8550000000000         3.724515042462330E-126
   39.0450000000000         5.729554369076411E-126
   39.2350000000000         8.346469939169778E-126
   39.4250000000000         1.131461300830678E-125
   39.6150000000000         1.375082722869118E-125
   39.8050000000000         1.353548064378316E-125
   39.9950000000000         6.281514212591395E-126
   40.1850000000000        -1.629967486901198E-125
   40.3750000000000        -6.883595467196366E-125
   40.5650000000000        -1.756806118819142E-124
   40.7550000000000        -3.751845768123924E-124
   40.9450000000000        -7.242968037894473E-124
   41.1350000000000        -1.301937965342056E-123
   41.3250000000000        -2.207786406850809E-123
   41.5150000000000        -3.550092036445581E-123
   41.7050000000000        -5.411416117589278E-123
   41.8950000000000        -7.774337636715739E-123
   42.0850000000000        -1.037998723854371E-122
   42.2750000000000        -1.248128715365903E-122
   42.4650000000000        -1.244196823595185E-122
   42.6550000000000        -7.126435419732535E-123
   42.8450000000000         8.966606955565002E-123
   43.0350000000000         4.483640600816460E-122
   43.2250000000000         1.142955431748277E-121
   43.4150000000000         2.372007472034351E-121
   43.6050000000000         4.400022124464735E-121
   43.7950000000000         7.544766945923996E-121
   43.9850000000000         1.212694269805110E-120
   44.1750000000000         1.835121700964449E-120
   44.3650000000000         2.607286844702200E-120
   44.5550000000000         3.438740129475761E-120
   44.7450000000000         4.096501602553258E-120
   44.9350000000000         4.104512211511513E-120
   45.1250000000000         2.602149514640953E-120
   45.3150000000000        -1.839193647799119E-120
   45.5050000000000        -1.142883377184374E-119
   45.6950000000000        -2.936025489966695E-119
   45.8850000000000        -5.992262217314342E-119
   46.0750000000000        -1.083687616398884E-118
   46.2650000000000        -1.802882770021892E-118
   46.4550000000000        -2.801012099028113E-118
   46.6450000000000        -4.081262517110120E-118
   46.8350000000000        -5.555089446675157E-118
   47.0250000000000        -6.961669547040567E-118
   47.2150000000000        -7.749095911625170E-118
   47.4050000000000        -6.911636714828065E-118
   47.5950000000000        -2.785098954441893E-118
   47.7850000000000         7.181855229762971E-118
   47.9750000000000         2.663470436126256E-117
   48.1650000000000         6.040808436603174E-117
   48.3550000000000         1.143529311804741E-116
   48.5450000000000         1.946506133707788E-116
   48.7350000000000         3.062579646395222E-116
   48.9250000000000         4.500051142308608E-116
   49.1150000000000         6.177603330108124E-116
   49.3050000000000         7.850307035180270E-116
   49.4950000000000         9.004639291921107E-116
   49.6850000000000         8.720755086039360E-116
   49.8750000000000         5.508145210336955E-116
   50.0650000000000        -2.864857372521701E-116
   50.2550000000000        -1.950404735996358E-115
   50.4450000000000        -4.840667821848560E-115
   50.6350000000000        -9.423790965635170E-115
   50.8250000000000        -1.616820273185621E-114
   51.0150000000000        -2.541178996711596E-114
   51.2050000000000        -3.713066180245802E-114
   51.3950000000000        -5.057445206507448E-114
   51.5850000000000        -6.373631752426994E-114
   51.7750000000000        -7.264036675915972E-114
   51.9650000000000        -7.046301982652242E-114
   52.1550000000000        -4.656710334359129E-114
   52.3450000000000         1.437116888914811E-114
   52.5350000000000         1.328119197598400E-113
   52.7250000000000         3.338424947858537E-113
   52.9150000000000         6.449172267569144E-113
   53.1050000000000         1.090765707897448E-112
   53.2950000000000         1.684117461948996E-112
   53.4850000000000         2.410723431200165E-112
   53.6750000000000         3.207233453260363E-112
   53.8650000000000         3.931022245776356E-112
   54.0550000000000         4.322325173499577E-112
   54.2450000000000         3.961395344434356E-112
   54.4350000000000         2.227206171557231E-112
   54.6250000000000        -1.730152937165827E-112
   54.8150000000000        -8.983607458707266E-112
   55.0050000000000        -2.076047034139626E-111
   55.1950000000000        -3.827113095272570E-111
   55.3850000000000        -6.238503799099514E-111
   55.5750000000000        -9.309743337373440E-111
   55.7650000000000        -1.287321683063550E-110
   55.9550000000000        -1.648431704486890E-110
   56.1450000000000        -1.928190041301558E-110
   56.3350000000000        -1.982727705372088E-110
   56.5250000000000        -1.594256450607366E-110
   56.7150000000000        -4.587786043098463E-111
   56.9050000000000         1.815876142908582E-110
   57.0950000000000         5.692099669648530E-110
   57.2850000000000         1.165151897793458E-109
   57.4750000000000         2.009442691990362E-109
   57.6650000000000         3.117067665513121E-109
   57.8550000000000         4.452314871895375E-109
   58.0450000000000         5.892952482922128E-109
   58.2350000000000         7.184008713531674E-109
   58.4250000000000         7.883204308845575E-109
   58.6150000000000         7.303827488475922E-109
   58.8050000000000         4.466407077381575E-109
   58.9950000000000        -1.921820955730377E-109
   59.1850000000000        -1.343096837355503E-108
   59.3750000000000        -3.177616086976087E-108
   59.5650000000000        -5.853744793054785E-108
   59.7550000000000        -9.467134969030067E-108
   59.9450000000000        -1.397504189600141E-107
   60.1350000000000        -1.908763576794028E-107
   60.3250000000000        -2.412417462485261E-107
   60.5150000000000        -2.783757479545539E-107
   60.7050000000000        -2.822124277285669E-107
   60.8950000000000        -2.232792330579839E-107
   61.0850000000000        -6.152835244856536E-108
   61.2750000000000         2.533704817921876E-107
   61.4650000000000         7.790987443028809E-107
   61.6550000000000         1.573550892959315E-106
   61.8450000000000         2.681558476143921E-106
   62.0350000000000         4.113322368473708E-106
   62.2250000000000         5.812485216085942E-106
   62.4150000000000         7.612418681578522E-106
   62.6050000000000         9.180827929084291E-106
   62.7950000000000         9.955594896759148E-106
   62.9850000000000         9.079345464330196E-106
   63.1750000000000         5.346967103528032E-106
   63.3650000000000        -2.810484815903823E-106
   63.5550000000000        -1.727041618831881E-105
   63.7450000000000        -4.004338487618042E-105
   63.9350000000000        -7.291589479402590E-105
   64.1250000000000        -1.168389289725650E-104
   64.3150000000000        -1.709877245188327E-104
   64.5050000000000        -2.314321790771669E-104
   64.6950000000000        -2.893978267999790E-104
   64.8850000000000        -3.291780036645209E-104
   65.0750000000000        -3.258941068994040E-104
   65.2650000000000        -2.435081441073875E-104
   65.4550000000000        -3.378152919848075E-105
   65.6450000000000         3.627524577226738E-104
   65.8350000000000         1.012296261831971E-103
   66.0250000000000         1.977815498460436E-103
   66.2150000000000         3.301255061222563E-103
   66.4050000000000         4.975487427454184E-103
   66.5950000000000         6.903900825461931E-103
   66.7850000000000         8.846722931312954E-103
   66.9750000000000         1.035560875721833E-102
   67.1650000000000         1.070217796031610E-102
   67.3550000000000         8.812534443677607E-103
   67.5450000000000         3.228671673002314E-103
   67.7350000000000        -7.870940894458570E-103
   67.9250000000000        -2.654600030984368E-102
   68.1150000000000        -5.480506426953852E-102
   68.3050000000000        -9.408228743483565E-102
   68.4950000000000        -1.444070724705060E-101
   68.6850000000000        -2.032053792669751E-101
   68.8750000000000        -2.637080673328283E-101
   69.0650000000000        -3.130150341464595E-101
   69.2550000000000        -3.299872388798149E-101
   69.4450000000000        -2.833241528597635E-101
   69.6350000000000        -1.304391989362786E-101
   69.8250000000000         1.819326638103328E-101
   70.0150000000000         7.140941974358311E-101
   70.2050000000000         1.525048441505835E-100
   70.3950000000000         2.657532053933312E-100
   70.5850000000000         4.114451621029060E-100
   70.7750000000000         5.825152823045213E-100
   70.9650000000000         7.601042771499499E-100
   71.1550000000000         9.082177123715273E-100
   71.3450000000000         9.679839420935274E-100
   71.5350000000000         8.525157132167489E-100
   71.7250000000000         4.440545279146148E-100
   71.9150000000000        -4.040923506769954E-100
   72.1050000000000        -1.857391356545384E-099
   72.2950000000000        -4.077395259687735E-099
   72.4850000000000        -7.181639307833399E-099
   72.6750000000000        -1.118129004681740E-098
   72.8650000000000        -1.589291514695748E-098
   73.0550000000000        -2.082370699723109E-098
   73.2450000000000        -2.503493798520319E-098
   73.4350000000000        -2.699706717463741E-098
   73.6250000000000        -2.446231401794822E-098
   73.8150000000000        -1.439681895494032E-098
   74.0050000000000         6.965867842097856E-099
   74.1950000000000         4.386706293403837E-098
   74.3850000000000         1.004588381651566E-097
   74.5750000000000         1.798197136025780E-097
   74.7650000000000         2.824405979458866E-097
   74.9550000000000         4.041027098013335E-097
   75.1450000000000         5.331412051406371E-097
   75.3350000000000         6.472160683128464E-097
   75.5250000000000         7.099099694133004E-097
   75.7150000000000         6.677514846133096E-097
   75.9050000000000         4.486220250962729E-097
   76.0950000000000        -3.706993312258402E-098
   76.2850000000000        -8.906146233971082E-097
   76.4750000000000        -2.212397907648562E-096
   76.6650000000000        -4.080019025267714E-096
   76.8550000000000        -6.514806048503131E-096
   77.0450000000000        -9.435109442364232E-096
   77.2350000000000        -1.259630702418847E-095
   77.4250000000000        -1.552015068056794E-095
   77.6150000000000        -1.742019817604973E-095
   77.8050000000000        -1.713577930323493E-095
   77.9950000000000        -1.309422390342292E-095
   78.1850000000000        -3.329576709554607E-096
   78.3750000000000         1.440510777982041E-095
   78.5650000000000         4.238707779406780E-095
   78.7550000000000         8.248577673767481E-095
   78.9450000000000         1.354908820068554E-094
   79.1350000000000         2.001737136003841E-094
   79.3250000000000         2.720789776628113E-094
   79.5150000000000         3.420949659568761E-094
   79.7050000000000         3.949277082717091E-094
   79.8950000000000         4.077111606848056E-094
   80.0850000000000         3.491206681236907E-094
   80.2750000000000         1.795140609918222E-094
   80.4650000000000        -1.472114862163846E-094
   80.6550000000000        -6.792152466473836E-094
   80.8450000000000        -1.458847882630351E-093
   81.0350000000000        -2.510448882109365E-093
   81.2250000000000        -3.823158409891717E-093
   81.4150000000000        -5.328601204504469E-093
   81.6050000000000        -6.874173005871863E-093
   81.7950000000000        -8.193980790304799E-093
   81.9850000000000        -8.881307301533132E-093
   82.1750000000000        -8.368779012894628E-093
   82.3650000000000        -5.925109247477537E-093
   82.5550000000000        -6.801195956237050E-094
   82.7450000000000         8.307716990890394E-093
   82.9350000000000         2.192537426698226E-092
   83.1250000000000         4.080543324272613E-092
   83.3150000000000         6.503998946623868E-092
   83.5050000000000         9.380360610014987E-092
   83.6950000000000         1.248940026306131E-091
   83.8850000000000         1.542196298944174E-091
   84.0750000000000         1.752916641807392E-091
   84.2650000000000         1.788142352480750E-091
   84.4550000000000         1.525094496224243E-091
   84.6450000000000         8.135950320916743E-092
   84.8350000000000        -5.150928245089810E-092
   85.0250000000000        -2.630457862098805E-091
   85.2150000000000        -5.673379776620453E-091
   85.4050000000000        -9.713010594588891E-091
   85.5950000000000        -1.468870340843262E-090
   85.7850000000000        -2.033763522971443E-090
   85.9750000000000        -2.611164364029932E-090
   86.1650000000000        -3.109084081773281E-090
   86.3550000000000        -3.390680890027344E-090
   86.5450000000000        -3.269445497217462E-090
   86.7350000000000        -2.509847633348666E-090
   86.9250000000000        -8.367058198477214E-091
   87.1150000000000         2.042934756136463E-090
   87.3050000000000         6.401427771297235E-090
   87.4950000000000         1.243200674651412E-089
   87.6850000000000         2.016762645134188E-089
   87.8750000000000         2.937692719930937E-089
   88.0650000000000         3.944072853154906E-089
   88.2550000000000         4.921770882557601E-089
   88.4450000000000         5.691486812240751E-089
   88.6350000000000         5.998686100745829E-089
   88.8250000000000         5.509784838519030E-089
   89.0150000000000         3.818922552874604E-089
   89.2050000000000         4.704955021833650E-090
   89.3950000000000        -4.996885474817180E-089
   89.5850000000000        -1.297948152565993E-088
   89.7750000000000        -2.370612055779827E-088
   89.9650000000000        -3.710249716261448E-088
   90.1550000000000        -5.262422396358491E-088
   90.3450000000000        -6.906696635569698E-088
   90.5350000000000        -8.437039451103840E-088
   90.7250000000000        -9.544323767989931E-088
   90.9150000000000        -9.804898569146653E-088
   91.1050000000000        -8.680479872785263E-088
   91.2950000000000        -5.535835977649822E-088
   91.4850000000000         3.183619702129322E-089
   91.6750000000000         9.549891229227105E-088
   91.8650000000000         2.268966393988703E-087
   92.0550000000000         3.997212647296390E-087
   92.2450000000000         6.113094168463658E-087
   92.4350000000000         8.515609462878454E-087
   92.6250000000000         1.100278138386632E-086
   92.8150000000000         1.324546947682474E-086
   93.0050000000000         1.476578317588973E-086
   93.1950000000000         1.492587579064141E-086
   93.3850000000000         1.293450149236702E-086
   93.5750000000000         7.880085577250671E-087
   93.7650000000000        -1.200136416474873E-087
   93.9550000000000        -1.520553211160265E-086
   94.1450000000000        -3.480431507253849E-086
   94.3350000000000        -6.020856816754627E-086
   94.5250000000000        -9.089422014121240E-086
   94.7150000000000        -1.252773492127294E-085
   94.9050000000000        -1.603705931718064E-085
   95.0950000000000        -1.914589323121905E-085
   95.2850000000000        -2.118520471249120E-085
   95.4750000000000        -2.127895251149804E-085
   95.6650000000000        -1.835932502101018E-085
   95.8550000000000        -1.121752459621489E-085
   96.0450000000000         1.398504893268097E-086
   96.2350000000000         2.062876499096876E-085
   96.4250000000000         4.728031451917560E-085
   96.6150000000000         8.153795865556983E-085
   96.8050000000000         1.226118384414340E-084
   96.9950000000000         1.683388305712589E-084
   97.1850000000000         2.147697721123415E-084
   97.3750000000000         2.557928108807257E-084
   97.5650000000000         2.828637026940941E-084
   97.7550000000000         2.849349051384487E-084
   97.9450000000000         2.486942028662167E-084
   98.1350000000000         1.592366783283281E-084
   98.3250000000000         1.296446489096153E-086
   98.5150000000000        -2.388488199231718E-084
   98.7050000000000        -5.707229754345829E-084
   98.8950000000000        -9.962319445078766E-084
   99.0850000000000        -1.505562126773251E-083
   99.2750000000000        -2.072611820898207E-083
   99.4650000000000        -2.650339464508719E-083
   99.6550000000000        -3.166611752572090E-083
   99.8450000000000        -3.521352698401826E-083
   100.035000000000        -3.586011376911394E-083
   100.225000000000        -3.206552000791243E-083
   100.415000000000        -2.211285796322951E-083
   100.605000000000        -4.248611923855298E-084
   100.795000000000         2.310448868314205E-083
   100.985000000000         6.105435492748843E-083
   101.175000000000         1.098659369524920E-082
   101.365000000000         1.685172699561889E-082
   101.555000000000         2.342092611060314E-082
   101.745000000000         3.018707108026693E-082
   101.935000000000         3.637202557611896E-082
   102.125000000000         4.089686046011960E-082
   102.315000000000         4.237655127677177E-082
   102.505000000000         3.915134334992834E-082
   102.695000000000         2.936798030902554E-082
   102.885000000000         1.112377726389082E-082
   103.075000000000        -1.731544033686362E-082
   103.265000000000        -5.721676415608439E-082
   103.455000000000        -1.090012795135078E-081
   103.645000000000        -1.717953025330050E-081
   103.835000000000        -2.429358482105079E-081
   104.025000000000        -3.174710925766854E-081
   104.215000000000        -3.877157451168753E-081
   104.405000000000        -4.429415819151846E-081
   104.595000000000        -4.693029143090764E-081
   104.785000000000        -4.501127119945938E-081
   104.975000000000        -3.665939151585447E-081
   105.165000000000        -1.992279273583546E-081
   105.355000000000         7.019631046330983E-082
   105.545000000000         4.557686812483149E-081
   105.735000000000         9.638802676470409E-081
   105.925000000000         1.588975174478550E-080
   106.115000000000         2.308847455250083E-080
   106.305000000000         3.079848407412410E-080
   106.495000000000         3.832540355591223E-080
   106.685000000000         4.468513839136791E-080
   106.875000000000         4.859258544634176E-080
   107.065000000000         4.848120572379634E-080
   107.255000000000         4.256459500575764E-080
   107.445000000000         2.895102508563920E-080
   107.635000000000         5.820402385532931E-081
   107.825000000000        -2.833019666717954E-080
   108.015000000000        -7.437166109886883E-080
   108.205000000000        -1.321656855221193E-079
   108.395000000000        -2.001426049264619E-079
   108.585000000000        -2.748640814738061E-079
   108.775000000000        -3.506148871248759E-079
   108.965000000000        -4.190833262183471E-079
   109.155000000000        -4.692046731120965E-079
   109.345000000000        -4.872544648023969E-079
   109.535000000000        -4.572861847653456E-079
   109.725000000000        -3.620079636726889E-079
   109.915000000000        -1.841822771139061E-079
   110.105000000000         9.139193964137257E-080