  -1.42500000000000         0.000000000000000E+000
  -1.23500000000000         0.000000000000000E+000
  -1.04500000000000         0.000000000000000E+000
 -0.855000000000000         0.000000000000000E+000
 -0.665000000000000         0.000000000000000E+000
 -0.475000000000000         0.000000000000000E+000
 -0.285000000000000         0.000000000000000E+000
 -9.499999999999975E-002    0.000000000000000E+000
  9.500000000000020E-002    0.000000000000000E+000
  0.285000000000000         0.000000000000000E+000
  0.475000000000000         0.000000000000000E+000
  0.665000000000000         0.000000000000000E+000
  0.855000000000000         0.000000000000000E+000
   1.04500000000000         0.000000000000000E+000
   1.23500000000000         0.000000000000000E+000
   1.42500000000000         0.000000000000000E+000
   1.61500000000000         0.000000000000000E+000
   1.80500000000000         0.000000000000000E+000
   1.99500000000000         0.000000000000000E+000
   2.18500000000000         0.000000000000000E+000
   2.37500000000000         0.000000000000000E+000
   2.56500000000000         0.000000000000000E+000
   2.75500000000000         0.000000000000000E+000
   2.94500000000000         0.000000000000000E+000
   3.13500000000000         0.000000000000000E+000
   3.32500000000000         0.000000000000000E+000
   3.51500000000000         0.000000000000000E+000
   3.70500000000000         0.000000000000000E+000
   3.89500000000000         0.000000000000000E+000
   4.08500000000000         0.000000000000000E+000
   4.27500000000000         0.000000000000000E+000
   4.46500000000000         0.000000000000000E+000
   4.65500000000000         0.000000000000000E+000
   4.84500000000000         0.000000000000000E+000
   5.03500000000000         0.000000000000000E+000
   5.22500000000000         0.000000000000000E+000
   5.41500000000000         0.000000000000000E+000
   5.60500000000000         0.000000000000000E+000
   5.79500000000000         0.000000000000000E+000
   5.98500000000000         0.000000000000000E+000
   6.17500000000000         0.000000000000000E+000
   6.36500000000000         0.000000000000000E+000
   6.55500000000000         0.000000000000000E+000
   6.74500000000000         0.000000000000000E+000
   6.93500000000000         0.000000000000000E+000
   7.12500000000000         0.000000000000000E+000
   7.31500000000000         0.000000000000000E+000
   7.50500000000000         0.000000000000000E+000
   7.69500000000000         0.000000000000000E+000
   7.88500000000000         1.980348501958203E-214
   8.07500000000000        -9.645232712085517E-209
   8.26500000000000        -6.205315373828988E-204
   8.45500000000000        -4.493210447960530E-202
   8.64500000000000        -3.054197496593037E-200
   8.83500000000000        -1.696441523303533E-198
   9.02500000000000        -6.692064444424956E-197
   9.21500000000000        -1.940149344054715E-195
   9.40500000000000        -4.374435867157164E-194
   9.59500000000000        -8.026758433381147E-193
   9.78500000000000        -1.239661951379255E-191
   9.97500000000000        -1.652188623065000E-190
   10.1650000000000        -1.935696868910715E-189
   10.3550000000000        -2.019057658013801E-188
   10.5450000000000        -1.886109888774818E-187
   10.7350000000000        -1.571278158270768E-186
   10.9250000000000        -1.140401595593242E-185
   11.1150000000000        -6.702915546030717E-185
   11.3050000000000        -2.328888551320545E-184
   11.4950000000000         1.164294479347087E-183
   11.6850000000000         3.470062490263359E-182
   11.8750000000000         4.557832835693444E-181
   12.0650000000000         4.631807534767759E-180
   12.2550000000000         4.031679747935126E-179
   12.4450000000000         3.115782439089233E-178
   12.6350000000000         2.170660122432443E-177
   12.8250000000000         1.370370180023349E-176
   13.0150000000000         7.821554153531393E-176
   13.2050000000000         3.987521776925143E-175
   13.3950000000000         1.758925856841202E-174
   13.5850000000000         6.125503872785885E-174
   13.7750000000000         1.056973340391674E-173
   13.9650000000000        -7.034294160189377E-173
   14.1550000000000        -1.004771326706688E-171
   14.3450000000000        -8.048556375285330E-171
   14.5350000000000        -5.228132056093679E-170
   14.7250000000000        -2.997855095851039E-169
   14.9150000000000        -1.569520211203055E-168
   15.1050000000000        -7.630016345813123E-168
   15.2950000000000        -3.476653958815287E-167
   15.4850000000000        -1.492831508934088E-166
   15.6750000000000        -6.057344494602053E-166
   15.8650000000000        -2.324245025641451E-165
   16.0550000000000        -8.421598200745531E-165
   16.2450000000000        -2.869523001813564E-164
   16.4350000000000        -9.116015217791107E-164
   16.6250000000000        -2.654403994985550E-163
   16.8150000000000        -6.824938648970692E-163
   17.0050000000000        -1.397395826983304E-162
   17.1950000000000        -1.289129940406527E-162
   17.3850000000000         7.446374058453851E-162
   17.5750000000000         6.228980058905463E-161
   17.7650000000000         3.165896609047698E-160
   17.9550000000000         1.338378364340342E-159
   18.1450000000000         5.082664296199633E-159
   18.3350000000000         1.788398557493010E-158
   18.5250000000000         5.920413482341779E-158
   18.7150000000000         1.859537422806249E-157
   18.9050000000000         5.567606235910990E-157
   19.0950000000000         1.592841338315189E-156
   19.2850000000000         4.356813565162920E-156
   19.4750000000000         1.138065524158802E-155
   19.6650000000000         2.829994740494586E-155
   19.8550000000000         6.657820656749860E-155
   20.0450000000000         1.464943434266847E-154
   20.2350000000000         2.947725994852655E-154
   20.4250000000000         5.153512970749324E-154
   20.6150000000000         6.658066982303586E-154
   20.8050000000000         5.052419543503674E-155
   20.9950000000000        -3.756219161825687E-153
   21.1850000000000        -1.802857104005930E-152
   21.3750000000000        -6.259461449934008E-152
   21.5650000000000        -1.877401494002501E-151
   21.7550000000000        -5.134206710192831E-151
   21.9450000000000        -1.310031594000012E-150
   22.1350000000000        -3.153637562424077E-150
   22.3250000000000        -7.199348636210163E-150
   22.5150000000000        -1.560445199764965E-149
   22.7050000000000        -3.203697396994837E-149
   22.8950000000000        -6.187117947449771E-149
   23.0850000000000        -1.107396000321962E-148
   23.2750000000000        -1.777895785999426E-148
   23.4650000000000        -2.345986118900920E-148
   23.6550000000000        -1.687311777418595E-148
   23.8450000000000         3.549112476275951E-148
   24.0350000000000         2.216775712310519E-147
   24.2250000000000         7.568109998338901E-147
   24.4150000000000         2.142861399038412E-146
   24.6050000000000         5.517076232372405E-146
   24.7950000000000         1.341064123645535E-145
   24.9850000000000         3.140624606576802E-145
   25.1750000000000         7.177850556751894E-145
   25.3650000000000         1.615208097259177E-144
   25.5550000000000         3.600534958270546E-144
   25.7450000000000         7.981382299769415E-144
   25.9350000000000         1.762677810962928E-143
   26.1250000000000         3.879230878579599E-143
   26.3150000000000         8.498757580543595E-143
   26.5050000000000         1.850247927409670E-142
   26.6950000000000         3.994400239712573E-142
   26.8850000000000         8.532961888617060E-142
   27.0750000000000         1.800275463614358E-141
   27.2650000000000         3.745059431338197E-141
   27.4550000000000         7.671495368887852E-141
   27.6450000000000         1.545753597711674E-140
   27.8350000000000         3.061030266462592E-140
   28.0250000000000         5.953209710802660E-140
   28.2150000000000         1.136343259301406E-139
   28.4050000000000         2.127445729859846E-139
   28.5950000000000         3.903698749367204E-139
   28.7850000000000         7.013961768887929E-139
   28.9750000000000         1.232511564865012E-138
   29.1650000000000         2.114604512456820E-138
   29.3550000000000         3.533759605740198E-138
   29.5450000000000         5.731678173040661E-138
   29.7350000000000         8.974594291750603E-138
   29.9250000000000         1.344726785917022E-137
   30.1150000000000         1.898760041981171E-137
   30.3050000000000         2.450558204084677E-137
   30.4950000000000         2.680939687157692E-137
   30.6850000000000         1.836621443143144E-137
   30.8750000000000        -1.677642615486713E-137
   31.0650000000000        -1.101238375102740E-136
   31.2550000000000        -3.207366983567979E-136
   31.4450000000000        -7.546438296119182E-136
   31.6350000000000        -1.594901976855549E-135
   31.8250000000000        -3.145776358130098E-135
   32.0150000000000        -5.893328795750974E-135
   32.2050000000000        -1.058012064287649E-134
   32.3950000000000        -1.828000513998668E-134
   32.5850000000000        -3.043326291216909E-134
   32.7750000000000        -4.875070281562446E-134
   32.9650000000000        -7.479778374549986E-134
   33.1550000000000        -1.088939213534065E-133
   33.3450000000000        -1.476576516719811E-133
   33.5350000000000        -1.790209946397362E-133
   33.7250000000000        -1.727237727650426E-133
   33.9150000000000        -6.305390921121641E-134
   34.1050000000000         2.812033618560388E-133
   34.2950000000000         1.107057522320108E-132
   34.4850000000000         2.858121207440890E-132
   34.6750000000000         6.298627994018855E-132
   34.8650000000000         1.269318984890490E-131
   35.0550000000000         2.404718771475034E-131
   35.2450000000000         4.338753484251158E-131
   35.4350000000000         7.500156804676526E-131
   35.6250000000000         1.244177468103923E-130
   35.8150000000000         1.976441986916288E-130
   36.0050000000000         2.986774145151970E-130
   36.1950000000000         4.233902960662176E-130
   36.3850000000000         5.463594784996028E-130
   36.5750000000000         5.946465609448827E-130
   36.7650000000000         3.985534414636772E-130
   36.9550000000000        -3.965758784916794E-130
   37.1450000000000        -2.481722827049980E-129
   37.3350000000000        -7.133447033721554E-129
   37.5250000000000        -1.660699019407520E-128
   37.7150000000000        -3.472685992272768E-128
   37.9050000000000        -6.772267029650048E-128
   38.0950000000000        -1.253186030346877E-127
   38.2850000000000        -2.219745789322990E-127
   38.4750000000000        -3.779309093765441E-127
   38.6650000000000        -6.192180001091719E-127
   38.8550000000000        -9.748894562171221E-127
   39.0450000000000        -1.468170086298546E-126
   39.2350000000000        -2.095633129049083E-126
   39.4250000000000        -2.784497100289984E-126
   39.6150000000000        -3.312193553297355E-126
   39.8050000000000        -3.164166139849393E-126
   39.9950000000000        -1.295576039998268E-126
   40.1850000000000         4.248432242528723E-126
   40.3750000000000         1.690717591148106E-125
   40.5650000000000         4.242324365356618E-125
   40.7550000000000         8.992370186499591E-125
   40.9450000000000         1.731925383673187E-124
   41.1350000000000         3.118666628662414E-124
   41.3250000000000         5.319049177382847E-124
   41.5150000000000         8.639920872941517E-124
   41.7050000000000         1.337382344794579E-123
   41.8950000000000         1.964846764442880E-123
   42.0850000000000         2.711630163259444E-123
   42.2750000000000         3.437445969530294E-123
   42.4650000000000         3.795530126412370E-123
   42.6550000000000         3.067085092931459E-123
   42.8450000000000        -9.552220664017052E-125
   43.0350000000000        -8.044516148354827E-123
   43.2250000000000        -2.465011342014542E-122
   43.4150000000000        -5.594014552179509E-122
   43.6050000000000        -1.107850439596463E-121
   43.7950000000000        -2.014103145889903E-121
   43.9850000000000        -3.432730008214241E-121
   44.1750000000000        -5.534292087877876E-121
   44.3650000000000        -8.458796109065951E-121
   44.5550000000000        -1.221440795536133E-120
   44.7450000000000        -1.648408565496917E-120
   44.9350000000000        -2.028686423028941E-120
   45.1250000000000        -2.142346775556617E-120
   45.3150000000000        -1.562288527057493E-120
   45.5050000000000         4.691876210759503E-121
   45.6950000000000         5.206516736360681E-120
   45.8850000000000         1.460419216789511E-119
   46.0750000000000         3.152997821282716E-119
   46.2650000000000         5.992011419392961E-119
   46.4550000000000         1.047395071359500E-118
   46.6450000000000         1.715006513704485E-118
   46.8350000000000         2.649337056960291E-118
   47.0250000000000         3.861787499378776E-118
   47.2150000000000         5.275933803025628E-118
   47.4050000000000         6.639633493645480E-118
   47.5950000000000         7.386463320921538E-118
   47.7850000000000         6.431222841352454E-118
   47.9750000000000         1.888412590084900E-118
   48.1650000000000        -9.284048923858598E-118
   48.3550000000000        -3.168437812373523E-117
   48.5450000000000        -7.182381852934134E-117
   48.7350000000000        -1.382633316353855E-116
   48.9250000000000        -2.412101674393014E-116
   49.1150000000000        -3.910487137175946E-116
   49.3050000000000        -5.950051041335027E-116
   49.4950000000000        -8.508113842422571E-116
   49.6850000000000        -1.135885212673576E-115
   49.8750000000000        -1.390273122065132E-115
   50.0650000000000        -1.491604304959691E-115
   50.2550000000000        -1.220878869310153E-115
   50.4450000000000        -2.195489966532950E-116
   50.6350000000000         2.058273789365139E-115
   50.8250000000000         6.388642608567092E-115
   51.0150000000000         1.379608864542549E-114
   51.2050000000000         2.551343657402350E-114
   51.3950000000000         4.282922012527445E-114
   51.5850000000000         6.674362383180015E-114
   51.7750000000000         9.732555167979514E-114
   51.9650000000000         1.326373513245705E-113
   52.1550000000000         1.670805116958757E-113
   52.3450000000000         1.890334361405424E-113
   52.5350000000000         1.777293130255323E-113
   52.7250000000000         9.949834383658243E-114
   52.9150000000000        -9.617313191826373E-114
   53.1050000000000        -4.797713010055102E-113
   53.2950000000000        -1.142255271088333E-112
   53.4850000000000        -2.189968031038493E-112
   53.6750000000000        -3.729529784831160E-112
   53.8650000000000        -5.836597668943144E-112
   54.0550000000000        -8.500738823425991E-112
   54.2450000000000        -1.153761371252971E-111
   54.4350000000000        -1.446011629814277E-111
   54.6250000000000        -1.630347089814733E-111
   54.8150000000000        -1.540752248295530E-111
   55.0050000000000        -9.175137288934906E-112
   55.1950000000000         6.148269848430320E-112
   55.3850000000000         3.558959812939793E-111
   55.5750000000000         8.531795260853926E-111
   55.7650000000000         1.620602573994345E-110
   55.9550000000000         2.717732377085609E-110
   56.1450000000000         4.172049961318517E-110
   56.3350000000000         5.939290241912988E-110
   56.5250000000000         7.844507050552336E-110
   56.7150000000000         9.501320762684872E-110
   56.9050000000000         1.021038564117393E-109
   57.0950000000000         8.844866342969688E-110
   57.2850000000000         3.741813380866201E-110
   57.4750000000000        -7.365132024069357E-110
   57.6650000000000        -2.731366268095893E-109
   57.8550000000000        -5.929507997267985E-109
   58.0450000000000        -1.063331681206921E-108
   58.2350000000000        -1.703127387892467E-108
   58.4250000000000        -2.503940810019747E-108
   58.6150000000000        -3.406611121059758E-108
   58.8050000000000        -4.269142327853048E-108
   58.9950000000000        -4.826645421561102E-108
   59.1850000000000        -4.646511588083172E-108
   59.3750000000000        -3.086268522651218E-108
   59.5650000000000         7.322872899128390E-109
   59.7550000000000         7.910932808507835E-108
   59.9450000000000         1.969323747571312E-107
   60.1350000000000         3.727108397447511E-107
   60.3250000000000         6.142849014268232E-107
   60.5150000000000         9.196808299202780E-107
   60.7050000000000         1.268728705035087E-106
   60.8950000000000         1.611820431472073E-106
   61.0850000000000         1.856143301218226E-106
   61.2750000000000         1.850671650718910E-106
   61.4650000000000         1.372653787389425E-106
   61.6550000000000         1.203653727517078E-107
   61.8450000000000        -2.280499695422132E-106
   62.0350000000000        -6.246433977360437E-106
   62.2250000000000        -1.216837558717159E-105
   62.4150000000000        -2.029110039504182E-105
   62.6050000000000        -3.052407575378278E-105
   62.7950000000000        -4.217176608962676E-105
   62.9850000000000        -5.358120029936584E-105
   63.1750000000000        -6.172338550671353E-105
   63.3650000000000        -6.175581230952833E-105
   63.5550000000000        -4.665828891732233E-105
   63.7450000000000        -7.094610018909287E-106
   63.9350000000000         6.827393666252591E-105
   64.1250000000000         1.917175262738052E-104
   64.3150000000000         3.742320373887760E-104
   64.5050000000000         6.217825279936972E-104
   64.6950000000000         9.296102455639703E-104
   64.8850000000000         1.274366992188033E-103
   65.0750000000000         1.604171436567468E-103
   65.2650000000000         1.827263009853934E-103
   65.4550000000000         1.800825266382365E-103
   65.6450000000000         1.322803842694612E-103
   65.8350000000000         1.311443050975541E-104
   66.0250000000000        -2.083279282733950E-103
   66.2150000000000        -5.641925550461938E-103
   66.4050000000000        -1.081250347951726E-102
   66.5950000000000        -1.770172072380101E-102
   66.7850000000000        -2.609883527153497E-102
   66.9750000000000        -3.526712166946107E-102
   67.1650000000000        -4.369029673066976E-102
   67.3550000000000        -4.879716017236452E-102
   67.5450000000000        -4.671137459601186E-102
   67.7350000000000        -3.210480612798686E-102
   67.9250000000000         1.728992933570894E-103
   68.1150000000000         6.242338127566292E-102
   68.3050000000000         1.575144569355447E-101
   68.4950000000000         2.926281137928845E-101
   68.6850000000000         4.686743627968727E-101
   68.8750000000000         6.779132193794340E-101
   69.0650000000000         8.989088801395256E-101
   69.2550000000000         1.090655699877314E-100
   69.4450000000000         1.186567982521661E-100
   69.6350000000000         1.089591910473754E-100
   69.8250000000000         6.704146972563019E-101
   70.0150000000000        -2.284336682811909E-101
   70.2050000000000        -1.778972742971718E-100
   70.3950000000000        -4.140414374449367E-100
   70.5850000000000        -7.413652791747124E-100
   70.7750000000000        -1.157390148049062E-099
   70.9650000000000        -1.637983337536290E-099
   71.1550000000000        -2.126155309173087E-099
   71.3450000000000        -2.519617212846121E-099
   71.5350000000000        -2.658909309462817E-099
   71.7250000000000        -2.319143751898038E-099
   71.9150000000000        -1.209889244832282E-099
   72.1050000000000         1.010678093364338E-099
   72.2950000000000         4.699788594724304E-099
   72.4850000000000         1.016382165693529E-098
   72.6750000000000         1.755366386092555E-098
   72.8650000000000         2.671588241066140E-098
   73.0550000000000         3.699917122856800E-098
   73.2450000000000         4.702474257388159E-098
   73.4350000000000         5.444340982577598E-098
   73.6250000000000         5.572154842921869E-098
   73.8150000000000         4.602266958533035E-098
   74.0050000000000         1.927946319785434E-098
   74.1950000000000        -3.142051736307764E-098
   74.3850000000000        -1.129896729864733E-097
   74.5750000000000        -2.308815535405196E-097
   74.7650000000000        -3.868824262459928E-097
   74.9550000000000        -5.760766554316383E-097
   75.1450000000000        -7.830269308570154E-097
   75.3350000000000        -9.774027405360519E-097
   75.5250000000000        -1.109570372462794E-096
   75.7150000000000        -1.107028802477577E-096
   75.9050000000000        -8.730255644573046E-097
   76.0950000000000        -2.891778134501327E-097
   76.2850000000000         7.756152240275849E-097
   76.4750000000000         2.447366033651819E-096
   76.6650000000000         4.817689200708473E-096
   76.8550000000000         7.900894664264481E-096
   77.0450000000000         1.157668438885428E-095
   77.2350000000000         1.551999862462596E-095
   77.4250000000000         1.912320292371379E-095
   77.6150000000000         2.142090843262438E-095
   77.8050000000000         2.103424926322046E-095
   77.9950000000000         1.615907451819647E-095
   78.1850000000000         4.630483911037046E-096
   78.3750000000000        -1.589689839887512E-095
   78.5650000000000        -4.760959955789229E-095
   78.7550000000000        -9.199554714844049E-095
   78.9450000000000        -1.490738310381158E-094
   79.1350000000000        -2.163886489334412E-094
   79.3250000000000        -2.878043558584791E-094
   79.5150000000000        -3.522017230645705E-094
   79.7050000000000        -3.922612666064197E-094
   79.8950000000000        -3.836262050246496E-094
   80.0850000000000        -2.948585638918007E-094
   80.2750000000000        -8.872341767092989E-095
   80.4650000000000         2.745645010558453E-094
   80.6550000000000         8.314538246614562E-094
   80.8450000000000         1.605907089617507E-093
   81.0350000000000         2.596576047545564E-093
   81.2250000000000         3.760311420436854E-093
   81.4150000000000         4.992710042946012E-093
   81.6050000000000         6.107410677463920E-093
   81.7950000000000         6.817187065307948E-093
   81.9850000000000         6.721514843798367E-093
   82.1750000000000         5.307092056874829E-093
   82.3650000000000         1.969550436413534E-093
   82.5550000000000        -3.934044265607216E-093
   82.7450000000000        -1.299183753613660E-092
   82.9350000000000        -2.559398397793016E-092
   83.1250000000000        -4.173398444749197E-092
   83.3150000000000        -6.075546303981671E-092
   83.5050000000000        -8.105570708936832E-092
   83.6950000000000        -9.977217523762387E-092
   83.8850000000000        -1.124976120954529E-091
   84.0750000000000        -1.130927317843396E-091
   84.2650000000000        -9.369089178057862E-092
   84.4550000000000        -4.501357305258860E-092
   84.6450000000000         4.286614077934743E-092
   84.8350000000000         1.791694255674604E-091
   85.0250000000000         3.703404914033468E-091
   85.2150000000000         6.171800577802721E-091
   85.4050000000000         9.111964131549641E-091
   85.5950000000000         1.230330897958547E-090
   85.7850000000000         1.534418266716779E-090
   85.9750000000000         1.761006248594031E-090
   86.1650000000000         1.822473348569700E-090
   86.3550000000000         1.605725906437564E-090
   86.5450000000000         9.760825317796046E-091
   86.7350000000000        -2.127980432851785E-091
   86.9250000000000        -2.101009419909476E-090
   87.1150000000000        -4.794773349785956E-090
   87.3050000000000        -8.327970814703600E-090
   87.4950000000000        -1.261285542373357E-089
   87.6850000000000        -1.738180242449836E-089
   87.8750000000000        -2.212452919721132E-089
   88.0650000000000        -2.602857111971965E-089
   88.2550000000000        -2.793479841584176E-089
   88.4450000000000        -2.632413232373012E-089
   88.6350000000000        -1.935585867541412E-089
   88.8250000000000        -4.981276068889805E-090
   89.0150000000000         1.884220058450927E-089
   89.2050000000000         5.381326428290451E-089
   89.3950000000000         1.008087918388517E-088
   89.5850000000000         1.592625117724734E-088
   89.7750000000000         2.264182125029331E-088
   89.9650000000000         2.965057229011191E-088
   90.1550000000000         3.599274997068036E-088
   90.3450000000000         4.025914798304646E-088
   90.5350000000000         4.055789025939684E-088
   90.7250000000000         3.453886158574458E-088
   90.9150000000000         1.950435414692874E-088
   91.1050000000000        -7.363115208633322E-089
   91.2950000000000        -4.862598490299852E-088
   91.4850000000000        -1.060463655981636E-087
   91.6750000000000        -1.798603230918564E-087
   91.8650000000000        -2.678841408972862E-087
   92.0550000000000        -3.644976270190848E-087
   92.2450000000000        -4.595929822760186E-087
   92.4350000000000        -5.376311827663528E-087
   92.6250000000000        -5.770084809889735E-087
   92.8150000000000        -5.499981819416451E-087
   93.0050000000000        -4.235888975104707E-087
   93.1950000000000        -1.615781782602493E-087
   93.3850000000000         2.717155460639550E-087
   93.5750000000000         9.058077191302556E-087
   93.7650000000000         1.756274132848617E-086
   93.9550000000000         2.814866207038796E-086
   94.1450000000000         4.037852945841037E-086
   94.3350000000000         5.333366366447606E-086
   94.5250000000000         6.549081248875066E-086
   94.7150000000000         7.462207969496912E-086
   94.9050000000000         7.774473257552420E-086
   95.0950000000000         7.115432086444097E-086
   95.2850000000000         5.057984267756599E-086
   95.4750000000000         1.150215408123405E-086
   95.6650000000000        -5.032535582689213E-086
   95.8550000000000        -1.381236464697029E-085
   96.0450000000000        -2.530899058003063E-085
   96.2350000000000        -3.931701843681757E-085
   96.4250000000000        -5.516589158947656E-085
   96.6150000000000        -7.157342553225778E-085
   96.8050000000000        -8.651021893933566E-085
   96.9950000000000        -9.709942815023213E-085
   97.1850000000000        -9.958376303030826E-085
   97.3750000000000        -8.939818638676773E-085
   97.5650000000000        -6.139139776473191E-085
   97.7550000000000        -1.024013443861911E-085
   97.9450000000000         6.890428031866896E-085
   98.1350000000000         1.795099427523871E-084
   98.3250000000000         3.224936268096008E-084
   98.5150000000000         4.948132702189067E-084
   98.7050000000000         6.878973201560144E-084
   98.8950000000000         8.860424292358109E-084
   99.0850000000000         1.064979166636526E-083
   99.2750000000000         1.190879748981002E-083
   99.4650000000000         1.220155380918915E-083
   99.6550000000000         1.100453553976362E-083
   99.8450000000000         7.733042156885464E-084
   100.035000000000         1.788616431555451E-084
   100.225000000000        -7.368726700849371E-084
   100.415000000000        -2.012101593548178E-083
   100.605000000000        -3.656552669517249E-083
   100.795000000000        -5.636412941918792E-083
   100.985000000000        -7.857695412021687E-083
   101.175000000000        -1.014944030575794E-082
   101.365000000000        -1.224883321324434E-082
   101.555000000000        -1.379105008711645E-082
   101.745000000000        -1.430734623209793E-082
   101.935000000000        -1.323549393671781E-082
   102.125000000000        -9.947012812877248E-083
   102.315000000000        -3.795572917663081E-083
   102.505000000000         5.809691427788379E-083
   102.695000000000         1.930362074583280E-082
   102.885000000000         3.683721511961326E-082
   103.075000000000         5.812594240574591E-082
   103.265000000000         8.228204509742837E-082
   103.455000000000         1.076442747917650E-081
   103.645000000000         1.316248844641653E-081
   103.835000000000         1.506005530875054E-081
   104.025000000000         1.598805686492927E-081
   104.215000000000         1.537911627866601E-081
   104.405000000000         1.259182220680851E-081
   104.595000000000         6.955031235172376E-082
   104.785000000000        -2.164151130309784E-082
   104.975000000000        -1.526628891665719E-081
   105.165000000000        -3.259906620195751E-081
   105.355000000000        -5.401290362912837E-081
   105.545000000000        -7.879937891834842E-081
   105.735000000000        -1.055240583050756E-080
   105.925000000000        -1.318711120785914E-080
   106.115000000000        -1.545233182272215E-080
   106.305000000000        -1.691072242173349E-080
   106.495000000000        -1.702385901739047E-080
   106.685000000000        -1.517068047179347E-080
   106.875000000000        -1.068375678813399E-080
   107.065000000000        -2.906943564349855E-081
   107.255000000000         8.722959231105743E-081
   107.445000000000         2.456957365823177E-080
   107.635000000000         4.466683008176879E-080
   107.825000000000         6.857021543076063E-080
   108.015000000000         9.519844644211270E-080
   108.205000000000         1.226796135598943E-079
   108.395000000000         1.482213405599954E-079
   108.585000000000         1.680301148415981E-079
   108.775000000000         1.773100749356024E-079
   108.965000000000         1.703754142984020E-079
   109.155000000000         1.409122089038628E-079
   109.345000000000         8.242378315995339E-080
   109.535000000000        -1.111251360581109E-080
   109.725000000000        -1.443612404095630E-079
   109.915000000000        -3.195204282464075E-079
   110.105000000000        -5.350180399374570E-079