  -1.42500000000000         0.000000000000000E+000
  -1.23500000000000         0.000000000000000E+000
  -1.04500000000000         0.000000000000000E+000
 -0.855000000000000         0.000000000000000E+000
 -0.665000000000000         0.000000000000000E+000
 -0.475000000000000         0.000000000000000E+000
 -0.285000000000000         0.000000000000000E+000
 -9.499999999999975E-002    0.000000000000000E+000
  9.500000000000020E-002    0.000000000000000E+000
  0.285000000000000         0.000000000000000E+000
  0.475000000000000         0.000000000000000E+000
  0.665000000000000         0.000000000000000E+000
  0.855000000000000         0.000000000000000E+000
   1.04500000000000         0.000000000000000E+000
   1.23500000000000         0.000000000000000E+000
   1.42500000000000         0.000000000000000E+000
   1.61500000000000         0.000000000000000E+000
   1.80500000000000         0.000000000000000E+000
   1.99500000000000         0.000000000000000E+000
   2.18500000000000         0.000000000000000E+000
   2.37500000000000         0.000000000000000E+000
   2.56500000000000         0.000000000000000E+000
   2.75500000000000         0.000000000000000E+000
   2.94500000000000         0.000000000000000E+000
   3.13500000000000         0.000000000000000E+000
   3.32500000000000         0.000000000000000E+000
   3.51500000000000         0.000000000000000E+000
   3.70500000000000         0.000000000000000E+000
   3.89500000000000         0.000000000000000E+000
   4.08500000000000         0.000000000000000E+000
   4.27500000000000         0.000000000000000E+000
   4.46500000000000         0.000000000000000E+000
   4.65500000000000         0.000000000000000E+000
   4.84500000000000         0.000000000000000E+000
   5.03500000000000         0.000000000000000E+000
   5.22500000000000         0.000000000000000E+000
   5.41500000000000         0.000000000000000E+000
   5.60500000000000         0.000000000000000E+000
   5.79500000000000         0.000000000000000E+000
   5.98500000000000         0.000000000000000E+000
   6.17500000000000         0.000000000000000E+000
   6.36500000000000         0.000000000000000E+000
   6.55500000000000         0.000000000000000E+000
   6.74500000000000         0.000000000000000E+000
   6.93500000000000         0.000000000000000E+000
   7.12500000000000         0.000000000000000E+000
   7.31500000000000         0.000000000000000E+000
   7.50500000000000         0.000000000000000E+000
   7.69500000000000         0.000000000000000E+000
   7.88500000000000        -3.793887595999256E-216
   8.07500000000000        -7.003628321562754E-211
   8.26500000000000        -2.171720934270149E-206
   8.45500000000000        -1.695553258153499E-205
   8.64500000000000         3.349171835281742E-203
   8.83500000000000         2.511443065192893E-201
   9.02500000000000         1.346029974284817E-199
   9.21500000000000         5.454495263971689E-198
   9.40500000000000         1.671217166541551E-196
   9.59500000000000         4.006662730254317E-195
   9.78500000000000         7.804727869870348E-194
   9.97500000000000         1.274106089483833E-192
   10.1650000000000         1.784794383747391E-191
   10.3550000000000         2.181828305357913E-190
   10.5450000000000         2.348608613724917E-189
   10.7350000000000         2.218152892874327E-188
   10.9250000000000         1.782725855944924E-187
   11.1150000000000         1.087158415882061E-186
   11.3050000000000         2.199857169498937E-186
   11.4950000000000        -6.961932276267771E-185
   11.6850000000000        -1.523512932344724E-183
   11.8750000000000        -2.139630344068739E-182
   12.0650000000000        -2.470123006331060E-181
   12.2550000000000        -2.506388811722585E-180
   12.4450000000000        -2.300236129108903E-179
   12.6350000000000        -1.939510601109622E-178
   12.8250000000000        -1.517729957668658E-177
   13.0150000000000        -1.110356569017388E-176
   13.2050000000000        -7.638436281497344E-176
   13.3950000000000        -4.964931438146680E-175
   13.5850000000000        -3.061997325909836E-174
   13.7750000000000        -1.798450669893354E-173
   13.9650000000000        -1.009406890904432E-172
   14.1550000000000        -5.430786569246072E-172
   14.3450000000000        -2.808948586260411E-171
   14.5350000000000        -1.400476234316332E-170
   14.7250000000000        -6.747420648285721E-170
   14.9150000000000        -3.148611193485573E-169
   15.1050000000000        -1.425974716925111E-168
   15.2950000000000        -6.279182300788482E-168
   15.4850000000000        -2.692563309694288E-167
   15.6750000000000        -1.125779558724820E-166
   15.8650000000000        -4.594054606117780E-166
   16.0550000000000        -1.831072558293116E-165
   16.2450000000000        -7.131505193702486E-165
   16.4350000000000        -2.714709498902395E-164
   16.6250000000000        -1.010061861269744E-163
   16.8150000000000        -3.672845748151524E-163
   17.0050000000000        -1.304914639565516E-162
   17.1950000000000        -4.528357157295338E-162
   17.3850000000000        -1.534271943193153E-161
   17.5750000000000        -5.073016785212317E-161
   17.7650000000000        -1.636095316024000E-160
   17.9550000000000        -5.143747045348728E-160
   18.1450000000000        -1.575422228627850E-159
   18.3350000000000        -4.697143144598747E-159
   18.5250000000000        -1.362074093748976E-158
   18.7150000000000        -3.837248699546876E-158
   18.9050000000000        -1.048786155661674E-157
   19.0950000000000        -2.775958498949418E-157
   19.2850000000000        -7.097971846242170E-157
   19.4750000000000        -1.747275192286540E-156
   19.6650000000000        -4.120129396445467E-156
   19.8550000000000        -9.233983920660044E-156
   20.0450000000000        -1.941244933063335E-155
   20.2350000000000        -3.733925386283504E-155
   20.4250000000000        -6.207461287191423E-155
   20.6150000000000        -7.379935230693143E-155
   20.8050000000000         1.410239981467576E-155
   20.9950000000000         4.904434366129245E-154
   21.1850000000000         2.203914582665201E-153
   21.3750000000000         7.466619979490697E-153
   21.5650000000000         2.227502212018553E-152
   21.7550000000000         6.170662313474416E-152
   21.9450000000000         1.630713978680031E-151
   22.1350000000000         4.184161431780407E-151
   22.3250000000000         1.056439944338267E-150
   22.5150000000000         2.652623946271662E-150
   22.7050000000000         6.673741987471128E-150
   22.8950000000000         1.688837320506150E-149
   23.0850000000000         4.298120514916794E-149
   23.2750000000000         1.096310074486005E-148
   23.4650000000000         2.786932382322395E-148
   23.6550000000000         7.015950243670851E-148
   23.8450000000000         1.738193584915302E-147
   24.0350000000000         4.213719271568969E-147
   24.2250000000000         9.941983306643739E-147
   24.4150000000000         2.270862949762491E-146
   24.6050000000000         4.990385958526239E-146
   24.7950000000000         1.046357593088841E-145
   24.9850000000000         2.066029913656776E-145
   25.1750000000000         3.750278959395190E-145
   25.3650000000000         5.930432531645545E-145
   25.5550000000000         6.872632312815207E-145
   25.7450000000000        -1.962432744015469E-146
   25.9350000000000        -3.622103771203404E-144
   26.1250000000000        -1.588107905855989E-143
   26.3150000000000        -5.148865404283964E-143
   26.5050000000000        -1.458760104079738E-142
   26.6950000000000        -3.807158731042994E-142
   26.8850000000000        -9.371284982254389E-142
   27.0750000000000        -2.203108552315939E-141
   27.2650000000000        -4.983632705242483E-141
   27.4550000000000        -1.089877306423150E-140
   27.6450000000000        -2.311405044155617E-140
   27.8350000000000        -4.763571896190620E-140
   28.0250000000000        -9.552568083972612E-140
   28.2150000000000        -1.865376775374511E-139
   28.4050000000000        -3.548086098340591E-139
   28.5950000000000        -6.572517609327931E-139
   28.7850000000000        -1.184966336803303E-138
   28.9750000000000        -2.076866222598858E-138
   29.1650000000000        -3.532080725291334E-138
   29.3550000000000        -5.812272413605893E-138
   29.5450000000000        -9.215075745351307E-138
   29.7350000000000        -1.398311342522683E-137
   29.9250000000000        -2.008719857863209E-137
   30.1150000000000        -2.678638130206036E-137
   30.3050000000000        -3.182465184956781E-137
   30.4950000000000        -3.008734564359842E-137
   30.6850000000000        -1.154204532569682E-137
   30.8750000000000         4.160356924346098E-137
   31.0650000000000         1.582558386017229E-136
   31.2550000000000         3.812475582856035E-136
   31.4450000000000         7.669928561130885E-136
   31.6350000000000         1.376537252042863E-135
   31.8250000000000         2.247802837004088E-135
   32.0150000000000         3.331384420235583E-135
   32.2050000000000         4.361378152737304E-135
   32.3950000000000         4.618028667410790E-135
   32.5850000000000         2.520977374080457E-135
   32.7750000000000        -5.027161097929074E-135
   32.9650000000000        -2.364220222466368E-134
   33.1550000000000        -6.290214246276651E-134
   33.3450000000000        -1.383064400531266E-133
   33.5350000000000        -2.737574039869775E-133
   33.7250000000000        -5.044474916626984E-133
   33.9150000000000        -8.798583083330112E-133
   34.1050000000000        -1.466382554053132E-132
   34.2950000000000        -2.348982765946891E-132
   34.4850000000000        -3.631540663982187E-132
   34.6750000000000        -5.436550840819516E-132
   34.8650000000000        -7.907204924482073E-132
   35.0550000000000        -1.121945927769046E-131
   35.2450000000000        -1.561891784369815E-131
   35.4350000000000        -2.150665400445571E-131
   35.6250000000000        -2.960550379428995E-131
   35.8150000000000        -4.123236102717557E-131
   36.0050000000000        -5.865541786346779E-131
   36.1950000000000        -8.537100957757074E-131
   36.3850000000000        -1.257816554734257E-130
   36.5750000000000        -1.829916471265063E-130
   36.7650000000000        -2.519058164714421E-130
   36.9550000000000        -3.019374641260739E-130
   37.1450000000000        -2.384893800064481E-130
   37.3350000000000         1.763761961172591E-130
   37.5250000000000         1.477836990467874E-129
   37.7150000000000         4.782304814090421E-129
   37.9050000000000         1.228836410544173E-128
   38.0950000000000         2.812273362992003E-128
   38.2850000000000         5.970614655907373E-128
   38.4750000000000         1.198515575450212E-127
   38.6650000000000         2.297992174039851E-127
   38.8550000000000         4.232647804338645E-127
   39.0450000000000         7.511853364966339E-127
   39.2350000000000         1.285942805283062E-126
   39.4250000000000         2.122007838873519E-126
   39.6150000000000         3.366530402063851E-126
   39.8050000000000         5.107457828209934E-126
   39.9950000000000         7.337016105596587E-126
   40.1850000000000         9.793337046057792E-126
   40.3750000000000         1.166123972374767E-125
   40.5650000000000         1.104416443777964E-125
   40.7550000000000         4.085019062874525E-126
   40.9450000000000        -1.641828953495796E-125
   41.1350000000000        -6.306871274958948E-125
   41.3250000000000        -1.567190965130692E-124
   41.5150000000000        -3.300705695638631E-124
   41.7050000000000        -6.315803651303426E-124
   41.8950000000000        -1.128442282541795E-123
   42.0850000000000        -1.905957788638685E-123
   42.2750000000000        -3.058190834047004E-123
   42.4650000000000        -4.660998345702414E-123
   42.6550000000000        -6.712960910675685E-123
   42.8450000000000        -9.022187794301299E-123
   43.0350000000000        -1.100772016683102E-122
   43.2250000000000        -1.137465828246600E-122
   43.4150000000000        -7.615527289489693E-123
   43.6050000000000         4.706550677530611E-123
   43.7950000000000         3.291270851386860E-122
   43.9850000000000         8.835547502499223E-122
   44.1750000000000         1.875765046760804E-121
   44.3650000000000         3.530454277319852E-121
   44.5550000000000         6.126374058816394E-121
   44.7450000000000         9.963679027053685E-121
   44.9350000000000         1.527982107381270E-120
   45.1250000000000         2.207769202892738E-120
   45.3150000000000         2.981493895882743E-120
   45.5050000000000         3.688823698187202E-120
   45.6950000000000         3.983572601328101E-120
   45.8850000000000         3.218416302591022E-120
   46.0750000000000         2.900533434034692E-121
   46.2650000000000        -6.550421910984055E-120
   46.4550000000000        -1.989930396515061E-119
   46.6450000000000        -4.335983969680866E-119
   46.8350000000000        -8.155373311523425E-119
   47.0250000000000        -1.398014994361571E-118
   47.2150000000000        -2.231808928218965E-118
   47.4050000000000        -3.345345224486027E-118
   47.5950000000000        -4.708391606158382E-118
   47.7850000000000        -6.171980060086090E-118
   47.9750000000000        -7.376303540219355E-118
   48.1650000000000        -7.619114192911042E-118
   48.3550000000000        -5.681192999988982E-118
   48.5450000000000         3.848690085481911E-119
   48.7350000000000         1.347781815977048E-117
   48.9250000000000         3.762667983447952E-117
   49.1150000000000         7.802072613292263E-117
   49.3050000000000         1.407159204530561E-116
   49.4950000000000         2.317507231701903E-116
   49.6850000000000         3.552922737311597E-116
   49.8750000000000         5.103157501527311E-116
   50.0650000000000         6.852236307836190E-116
   50.2550000000000         8.497893762997037E-116
   50.4450000000000         9.439455108463196E-116
   50.6350000000000         8.633535370242027E-116
   50.8250000000000         4.425627093426562E-116
   51.0150000000000        -5.619002369588994E-116
   51.2050000000000        -2.483728801073342E-115
   51.3950000000000        -5.745974256256517E-115
   51.5850000000000        -1.083395743098888E-114
   51.7750000000000        -1.822282166834739E-114
   51.9650000000000        -2.823400314571157E-114
   52.1550000000000        -4.078889963881320E-114
   52.3450000000000        -5.502486856261849E-114
   52.5350000000000        -6.874203828952551E-114
   52.7250000000000        -7.766469771310232E-114
   52.9150000000000        -7.453564307490982E-114
   53.1050000000000        -4.812507655079271E-114
   53.2950000000000         1.766213202842226E-114
   53.4850000000000         1.442459809839960E-113
   53.6750000000000         3.578569458058956E-113
   53.8650000000000         6.872490382904943E-113
   54.0550000000000         1.158551033847620E-112
   54.2450000000000         1.785888968168080E-112
   54.4350000000000         2.556233274422620E-112
   54.6250000000000         3.406979723470376E-112
   54.8150000000000         4.195267651486446E-112
   55.0050000000000         4.659247350243182E-112
   55.1950000000000         4.373774069675514E-112
   55.3850000000000         2.706712961714450E-112
   55.5750000000000        -1.212448017721539E-112
   55.7650000000000        -8.492426341949339E-112
   55.9550000000000        -2.041963594203656E-111
   56.1450000000000        -3.829768399532144E-111
   56.3350000000000        -6.313649809770495E-111
   56.5250000000000        -9.513295921648169E-111
   56.7150000000000        -1.328846861219510E-110
   56.9050000000000        -1.722926037889790E-110
   57.0950000000000        -2.051452085801069E-110
   57.2850000000000        -2.174493335638036E-110
   57.4750000000000        -1.876914750371565E-110
   57.6650000000000        -8.539273532965725E-111
   57.8550000000000         1.294321471028656E-110
   58.0450000000000         5.049855964108115E-110
   58.2350000000000         1.093274630352246E-109
   58.4250000000000         1.940906378852175E-109
   58.6150000000000         3.073121802901427E-109
   58.8050000000000         4.469005399284661E-109
   58.9950000000000         6.026126291161371E-109
   59.1850000000000         7.513869446536212E-109
   59.3750000000000         8.516754643625720E-109
   59.5650000000000         8.372520433316856E-109
   59.7550000000000         6.115084352715218E-109
   59.9450000000000         4.400125482937243E-110
   60.1350000000000        -1.028004938058428E-108
   60.3250000000000        -2.789074782168871E-108
   60.5150000000000        -5.421027330236494E-108
   60.7050000000000        -9.057916328420058E-108
   60.8950000000000        -1.371359219070375E-107
   61.0850000000000        -1.917530608432676E-107
   61.2750000000000        -2.485913733028909E-107
   61.4650000000000        -2.962830113698162E-107
   61.6550000000000        -3.158491847674077E-107
   61.8450000000000        -2.786101709291678E-107
   62.0350000000000        -1.445668961021323E-107
   62.2250000000000         1.379673162268039E-107
   62.4150000000000         6.303322448564428E-107
   62.6050000000000         1.397505487891066E-106
   62.7950000000000         2.496106619165632E-106
   62.9850000000000         3.954104726213204E-106
   63.1750000000000         5.739867204523097E-106
   63.3650000000000         7.718655195270352E-106
   63.5550000000000         9.595984684163477E-106
   63.7450000000000         1.084985214865829E-105
   63.9350000000000         1.065815341912300E-105
   64.1250000000000         7.834190887523364E-106
   64.3150000000000         7.923430200141390E-107
   64.5050000000000        -1.242216170262495E-105
   64.6950000000000        -3.399136808994975E-105
   64.8850000000000        -6.600783602475380E-105
   65.0750000000000        -1.099076298918470E-104
   65.2650000000000        -1.655722010180088E-104
   65.4550000000000        -2.300274161464472E-104
   65.6450000000000        -2.957021444789507E-104
   65.8350000000000        -3.482815090876658E-104
   66.0250000000000        -3.643169786442467E-104
   66.2150000000000        -3.089533087064059E-104
   66.4050000000000        -1.344143310584306E-104
   66.5950000000000         2.197397427206408E-104
   66.7850000000000         8.231246362988880E-104
   66.9750000000000         1.745876227697533E-103
   67.1650000000000         3.042465295231760E-103
   67.3550000000000         4.725402987133397E-103
   67.5450000000000         6.726473172451796E-103
   67.7350000000000         8.844098405165578E-103
   67.9250000000000         1.067758267158941E-102
   68.1150000000000         1.155275632682788E-102
   68.3050000000000         1.044946716193601E-102
   68.4950000000000         5.949807420646575E-103
   68.6850000000000        -3.762947636828128E-103
   68.8750000000000        -2.081141688584064E-102
   69.0650000000000        -4.737974736556824E-102
   69.2550000000000        -8.524792057798305E-102
   69.4450000000000        -1.350286331139592E-101
   69.6350000000000        -1.950373475681728E-101
   69.8250000000000        -2.597549171039860E-101
   70.0150000000000        -3.179047174762462E-101
   70.2050000000000        -3.502757173210729E-101
   70.3950000000000        -3.275924684275389E-101
   70.5850000000000        -2.089723123870125E-101
   70.7750000000000         5.817954717266310E-102
   70.9650000000000         5.356194236442709E-101
   71.1550000000000         1.287456944167011E-100
   71.3450000000000         2.367161058855872E-100
   71.5350000000000         3.796307376640496E-100
   71.7250000000000         5.533211866896366E-100
   71.9150000000000         7.430420041729413E-100
   72.1050000000000         9.181750877968063E-100
   72.2950000000000         1.026256343449383E-099
   72.4850000000000         9.871436302272326E-100
   72.6750000000000         6.887737379922963E-100
   72.8650000000000        -1.324072493274832E-101
   73.0550000000000        -1.288989424662958E-099
   73.2450000000000        -3.316473946993209E-099
   73.4350000000000        -6.247719730589297E-099
   73.6250000000000        -1.015355963918979E-098
   73.8150000000000        -1.494248908383822E-098
   74.0050000000000        -2.025114369276000E-098
   74.1950000000000        -2.530833047258204E-098
   74.3850000000000        -2.878191628048530E-098
   74.5750000000000        -2.862893803062640E-098
   74.7650000000000        -2.198446811971443E-098
   74.9550000000000        -5.143892622955968E-099
   75.1450000000000         2.628479069763064E-098
   75.3350000000000         7.695987152379422E-098
   75.5250000000000         1.509994524160515E-097
   75.7150000000000         2.506667832041290E-097
   75.9050000000000         3.744399425867469E-097
   76.0950000000000         5.144083570753403E-097
   76.2850000000000         6.530385469782085E-097
   76.4750000000000         7.595175489764411E-097
   76.6650000000000         7.861289865085603E-097
   76.8550000000000         6.654517372285154E-097
   77.0450000000000         3.095899895975074E-097
   77.2350000000000        -3.868792089028495E-097
   77.4250000000000        -1.538075090976410E-096
   77.6150000000000        -3.249548412618473E-096
   77.8050000000000        -5.589890888415932E-096
   77.9950000000000        -8.548834997060172E-096
   78.1850000000000        -1.198048058861798E-095
   78.3750000000000        -1.553232389939070E-095
   78.5650000000000        -1.856414281931192E-095
   78.7550000000000        -2.006578823086728E-095
   78.9450000000000        -1.858969710219259E-095
   79.1350000000000        -1.222238513307041E-095
   79.3250000000000         1.371197897025637E-096
   79.5150000000000         2.478683202074917E-095
   79.7050000000000         6.055209441551593E-095
   79.8950000000000         1.105742470788914E-094
   80.0850000000000         1.753147726429883E-094
   80.2750000000000         2.526585543263505E-094
   80.4650000000000         3.364827936115175E-094
   80.6550000000000         4.149926982442730E-094
   80.8450000000000         4.689829324730580E-094
   81.0350000000000         4.703087581388872E-094
   81.2250000000000         3.810073791605684E-094
   81.4150000000000         1.536899815851585E-094
   81.6050000000000        -2.659899194728626E-094
   81.7950000000000        -9.338274660428583E-094
   81.9850000000000        -1.897467719142857E-093
   82.1750000000000        -3.181723165828201E-093
   82.3650000000000        -4.768091534879043E-093
   82.5550000000000        -6.568356347763822E-093
   82.7450000000000        -8.393173478050620E-093
   82.9350000000000        -9.918082024966273E-093
   83.1250000000000        -1.065148456084386E-092
   83.3150000000000        -9.911810956659043E-093
   83.5050000000000        -6.824193732743009E-093
   83.6950000000000        -3.502663286115626E-094
   83.8850000000000         1.063233457048502E-092
   84.0750000000000         2.718226410877007E-092
   84.2650000000000         5.006022272397980E-092
   84.4550000000000         7.939337523164504E-092
   84.6450000000000         1.142321188706798E-091
   84.8350000000000         1.520079405755655E-091
   85.0250000000000         1.879242771839738E-091
   85.2150000000000         2.143446609102054E-091
   85.4050000000000         2.202841436428371E-091
   85.5950000000000         1.911596581290030E-091
   85.7850000000000         1.090089533107271E-091
   85.9750000000000        -4.656061468681791E-092
   86.1650000000000        -2.963932162258435E-091
   86.3550000000000        -6.584637531168848E-091
   86.5450000000000        -1.142937870137913E-090
   86.7350000000000        -1.745438969608491E-090
   86.9250000000000        -2.438545568642957E-090
   87.1150000000000        -3.161857247773926E-090
   87.3050000000000        -3.811418982208366E-090
   87.4950000000000        -4.229889174098978E-090
   87.6850000000000        -4.199563922440431E-090
   87.8750000000000        -3.441187355888440E-090
   88.0650000000000        -1.622303717441383E-090
   88.2550000000000         1.620390220994595E-090
   88.4450000000000         6.639843448033869E-090
   88.6350000000000         1.371392341429205E-089
   88.8250000000000         2.295352906291948E-089
   89.0150000000000         3.418216703825226E-089
   89.2050000000000         4.678943605517280E-089
   89.3950000000000         5.956655394838153E-089
   89.5850000000000         7.053979618518125E-089
   89.7750000000000         7.682744559121774E-089
   89.9650000000000         7.455718547588906E-089
   90.1550000000000         5.889292388485653E-089
   90.3450000000000         2.423131744296985E-089
   90.5350000000000        -3.536346385332344E-089
   90.7250000000000        -1.254159575681016E-088
   90.9150000000000        -2.499234600853234E-088
   91.1050000000000        -4.098266464371645E-088
   91.2950000000000        -6.010663651297605E-088
   91.4850000000000        -8.122904517016723E-088
   91.6750000000000        -1.022365251561115E-087
   91.8650000000000        -1.197964944083049E-087
   92.0550000000000        -1.291654949781990E-087
   92.2450000000000        -1.241045578913532E-087
   92.4350000000000        -9.697535085635351E-088
   92.6250000000000        -3.910479366036263E-088
   92.8150000000000         5.848580433138566E-088
   93.0050000000000         2.038925471344712E-087
   93.1950000000000         4.026037672025188E-087
   93.3850000000000         6.551973988747818E-087
   93.5750000000000         9.544845809344898E-087
   93.7650000000000         1.282218871928072E-086
   93.9550000000000         1.605620670458182E-086
   94.1450000000000         1.874130498065405E-086
   94.3350000000000         2.016996748260763E-086
   94.5250000000000         1.942510067371280E-086
   94.7150000000000         1.539895251772020E-086
   94.9050000000000         6.850292055148072E-087
   95.0950000000000        -7.487746820926261E-087
   95.2850000000000        -2.873745315347067E-086
   95.4750000000000        -5.763501838722440E-086
   95.6650000000000        -9.421428547762893E-086
   95.8550000000000        -1.374212689006181E-085
   96.0450000000000        -1.846777787028409E-085
   96.2350000000000        -2.314294282385939E-085
   96.4250000000000        -2.707340936126072E-085
   96.6150000000000        -2.929705654451981E-085
   96.8050000000000        -2.857718342031283E-085
   96.9950000000000        -2.343102292837008E-085
   97.1850000000000        -1.220783065280488E-085
   97.3750000000000         6.768550396015837E-086
   97.5650000000000         3.497905191763074E-085
   97.7550000000000         7.340093310650247E-085
   97.9450000000000         1.221089643708722E-084
   98.1350000000000         1.797948563587123E-084
   98.3250000000000         2.432291924342051E-084
   98.5150000000000         3.067103302279543E-084
   98.7050000000000         3.615690256224769E-084
   98.8950000000000         3.958246216038112E-084
   99.0850000000000         3.941162443884110E-084
   99.2750000000000         3.380570743964964E-084
   99.4650000000000         2.071766176701567E-084
   99.6550000000000        -1.938109372494783E-085
   99.8450000000000        -3.602534893879047E-084
   100.035000000000        -8.282467174631680E-084
   100.225000000000        -1.425694956244932E-083
   100.415000000000        -2.138899722255260E-083
   100.605000000000        -2.931931905512846E-083
   100.795000000000        -3.740301577815552E-083
   100.985000000000        -4.465264045972112E-083
   101.175000000000        -4.969820292840440E-083
   101.365000000000        -5.077760507310272E-083
   101.555000000000        -4.577353377238263E-083
   101.745000000000        -3.231450814573481E-083
   101.935000000000        -7.957949859110614E-084
   102.125000000000         2.952890966049251E-083
   102.315000000000         8.177953580619880E-083
   102.505000000000         1.493280969628197E-082
   102.695000000000         2.310102930687648E-082
   102.885000000000         3.232943300662680E-082
   103.075000000000         4.195940506560360E-082
   103.265000000000         5.096428972841961E-082
   103.455000000000         5.790364920520097E-082
   103.645000000000         6.090806249154470E-082
   103.835000000000         5.771066535644694E-082
   104.025000000000         4.574328410094987E-082
   104.215000000000         2.231519640343443E-082
   104.405000000000        -1.510942969280020E-082
   104.595000000000        -6.852424689617299E-082
   104.785000000000        -1.388808993061035E-081
   104.975000000000        -2.254866206190387E-081
   105.165000000000        -3.253263822691975E-081
   105.355000000000        -4.323582720969928E-081
   105.545000000000        -5.368560751170625E-081
   105.735000000000        -6.249006287440683E-081
   105.925000000000        -6.781491047090157E-081
   106.115000000000        -6.740355768752877E-081
   106.305000000000        -5.865726559070315E-081
   106.495000000000        -3.879272074311874E-081
   106.685000000000        -5.092705211850014E-082
   106.875000000000         4.473864527870252E-081
   107.065000000000         1.121119191153844E-080
   107.255000000000         1.969869082183568E-080
   107.445000000000         2.972277161184077E-080
   107.635000000000         4.079198440743744E-080
   107.825000000000         5.207131372915183E-080
   108.015000000000         6.232792295118107E-080
   108.205000000000         6.989971520754112E-080
   108.395000000000         7.270032621655270E-080
   108.585000000000         6.827578918771894E-080
   108.775000000000         5.392865881768082E-080
   108.965000000000         2.692433102243469E-080
   109.155000000000        -1.520890484929378E-080
   109.345000000000        -7.428042942036892E-080
   109.535000000000        -1.509418401708106E-079
   109.725000000000        -2.441112821912812E-079
   109.915000000000        -3.503492117003359E-079
   110.105000000000        -4.632361214132027E-079