  -1.42500000000000         0.000000000000000E+000
  -1.23500000000000         0.000000000000000E+000
  -1.04500000000000         0.000000000000000E+000
 -0.855000000000000         0.000000000000000E+000
 -0.665000000000000         0.000000000000000E+000
 -0.475000000000000         0.000000000000000E+000
 -0.285000000000000         0.000000000000000E+000
 -9.499999999999975E-002    0.000000000000000E+000
  9.500000000000020E-002    0.000000000000000E+000
  0.285000000000000         0.000000000000000E+000
  0.475000000000000         0.000000000000000E+000
  0.665000000000000         0.000000000000000E+000
  0.855000000000000         0.000000000000000E+000
   1.04500000000000         0.000000000000000E+000
   1.23500000000000         0.000000000000000E+000
   1.42500000000000         0.000000000000000E+000
   1.61500000000000         0.000000000000000E+000
   1.80500000000000         0.000000000000000E+000
   1.99500000000000         0.000000000000000E+000
   2.18500000000000         0.000000000000000E+000
   2.37500000000000         0.000000000000000E+000
   2.56500000000000         0.000000000000000E+000
   2.75500000000000         0.000000000000000E+000
   2.94500000000000         0.000000000000000E+000
   3.13500000000000         0.000000000000000E+000
   3.32500000000000         0.000000000000000E+000
   3.51500000000000         0.000000000000000E+000
   3.70500000000000         0.000000000000000E+000
   3.89500000000000         0.000000000000000E+000
   4.08500000000000         0.000000000000000E+000
   4.27500000000000         0.000000000000000E+000
   4.46500000000000         0.000000000000000E+000
   4.65500000000000         0.000000000000000E+000
   4.84500000000000         0.000000000000000E+000
   5.03500000000000         0.000000000000000E+000
   5.22500000000000         0.000000000000000E+000
   5.41500000000000         0.000000000000000E+000
   5.60500000000000         0.000000000000000E+000
   5.79500000000000         0.000000000000000E+000
   5.98500000000000         0.000000000000000E+000
   6.17500000000000         0.000000000000000E+000
   6.36500000000000         0.000000000000000E+000
   6.55500000000000         0.000000000000000E+000
   6.74500000000000         0.000000000000000E+000
   6.93500000000000         0.000000000000000E+000
   7.12500000000000         0.000000000000000E+000
   7.31500000000000         0.000000000000000E+000
   7.50500000000000         0.000000000000000E+000
   7.69500000000000        -3.194077672716698E-214
   7.88500000000000         5.572636574734903E-209
   8.07500000000000         3.093490882000574E-204
   8.26500000000000         2.655657997175586E-202
   8.45500000000000         1.999104705050346E-200
   8.64500000000000         1.133348585453553E-198
   8.83500000000000         4.509918851429004E-197
   9.02500000000000         1.324653788952758E-195
   9.21500000000000         3.038788985148260E-194
   9.40500000000000         5.684821270427228E-193
   9.59500000000000         8.948201054178380E-192
   9.78500000000000         1.212934960201736E-190
   9.97500000000000         1.444815792862525E-189
   10.1650000000000         1.551932375997000E-188
   10.3550000000000         1.572483749495999E-187
   10.5450000000000         1.618032585491088E-186
   10.7350000000000         1.819282040789753E-185
   10.9250000000000         2.246843493858898E-184
   11.1150000000000         2.856790951605166E-183
   11.3050000000000         3.498517388754869E-182
   11.4950000000000         3.981162517142250E-181
   11.6850000000000         4.157771773853185E-180
   11.8750000000000         3.980500244679090E-179
   12.0650000000000         3.504507848734667E-178
   12.2550000000000         2.850127472819501E-177
   12.4450000000000         2.150784108228351E-176
   12.6350000000000         1.512100196490804E-175
   12.8250000000000         9.938195979189284E-175
   13.0150000000000         6.123205315838411E-174
   13.2050000000000         3.543926950020527E-173
   13.3950000000000         1.929177169906418E-172
   13.5850000000000         9.880508715141446E-172
   13.7750000000000         4.756780077364749E-171
   13.9650000000000         2.146907740483066E-170
   14.1550000000000         9.034141100914033E-170
   14.3450000000000         3.506716438169284E-169
   14.5350000000000         1.228852139740060E-168
   14.7250000000000         3.698187217438904E-168
   14.9150000000000         8.150915171449056E-168
   15.1050000000000         1.282874824384056E-168
   15.2950000000000        -1.269368641666220E-166
   15.4850000000000        -1.010744165391353E-165
   15.6750000000000        -5.763773203522511E-165
   15.8650000000000        -2.820350187502647E-164
   16.0550000000000        -1.252232632745535E-163
   16.2450000000000        -5.172049783454054E-163
   16.4350000000000        -2.013901900523530E-162
   16.6250000000000        -7.452514737262806E-162
   16.8150000000000        -2.634651197534402E-161
   17.0050000000000        -8.930011945265334E-161
   17.1950000000000        -2.909356687105214E-160
   17.3850000000000        -9.128020906664443E-160
   17.5750000000000        -2.762006490827277E-159
   17.7650000000000        -8.069958182536774E-159
   17.9550000000000        -2.279412169217200E-158
   18.1450000000000        -6.232454248222510E-158
   18.3350000000000        -1.652597598608196E-157
   18.5250000000000        -4.261248137782347E-157
   18.7150000000000        -1.073094453590797E-156
   18.9050000000000        -2.656879732761619E-156
   19.0950000000000        -6.531370442645410E-156
   19.2850000000000        -1.615129045217681E-155
   19.4750000000000        -4.077153669154738E-155
   19.6650000000000        -1.063676242349363E-154
   19.8550000000000        -2.882471245123170E-154
   20.0450000000000        -8.077146067443442E-154
   20.2350000000000        -2.312957118983358E-153
   20.4250000000000        -6.673465933109305E-153
   20.6150000000000        -1.915883572327241E-152
   20.8050000000000        -5.422283172471805E-152
   20.9950000000000        -1.503522401347933E-151
   21.1850000000000        -4.069053278265002E-151
   21.3750000000000        -1.072357012543008E-150
   21.5650000000000        -2.748126650552874E-150
   21.7550000000000        -6.841490813765627E-150
   21.9450000000000        -1.653000994123843E-149
   22.1350000000000        -3.871678147482326E-149
   22.3250000000000        -8.776163655683153E-149
   22.5150000000000        -1.920377349383545E-148
   22.7050000000000        -4.040307958151627E-148
   22.8950000000000        -8.120420655473329E-148
   23.0850000000000        -1.541900488516221E-147
   23.2750000000000        -2.708816130861363E-147
   23.4650000000000        -4.205475189002316E-147
   23.6550000000000        -5.032342149427003E-147
   23.8450000000000        -1.461290066261973E-147
   24.0350000000000         1.758967723909218E-146
   24.2250000000000         8.152672479951776E-146
   24.4150000000000         2.629034272493884E-145
   24.6050000000000         7.314144871265877E-145
   24.7950000000000         1.867317148412212E-144
   24.9850000000000         4.492202601583431E-144
   25.1750000000000         1.032458340331776E-143
   25.3650000000000         2.285338689836362E-143
   25.5550000000000         4.896471554576160E-143
   25.7450000000000         1.018830399911670E-142
   25.9350000000000         2.063263801724058E-142
   26.1250000000000         4.072431155292925E-142
   26.3150000000000         7.840651892741648E-142
   26.5050000000000         1.472919440114865E-141
   26.6950000000000         2.699227007562883E-141
   26.8850000000000         4.821483620375710E-141
   27.0750000000000         8.381300632170738E-141
   27.2650000000000         1.413983399942682E-140
   27.4550000000000         2.304599480502215E-140
   27.6450000000000         3.600629010288266E-140
   27.8350000000000         5.316863304906374E-140
   28.0250000000000         7.211399577750404E-140
   28.2150000000000         8.372203849449620E-140
   28.4050000000000         6.326869001418438E-140
   28.5950000000000        -4.795420285513254E-140
   28.7850000000000        -3.793457145668556E-139
   28.9750000000000        -1.202181532579606E-138
   29.1650000000000        -3.063794654867920E-138
   29.3550000000000        -7.033085331287908E-138
   29.5450000000000        -1.513509388691609E-137
   29.7350000000000        -3.109081456591041E-137
   29.9250000000000        -6.151678994765416E-137
   30.1150000000000        -1.177466304389833E-136
   30.3050000000000        -2.183353000008628E-136
   30.4950000000000        -3.919228838984561E-136
   30.6850000000000        -6.791140132687702E-136
   30.8750000000000        -1.129703384829552E-135
   31.0650000000000        -1.786762919868891E-135
   31.2550000000000        -2.639843989525962E-135
   31.4450000000000        -3.512847097181300E-135
   31.6350000000000        -3.823865191619008E-135
   31.8250000000000        -2.109816804328378E-135
   32.0150000000000         4.855332544926493E-135
   32.2050000000000         2.360021317428655E-134
   32.3950000000000         6.648035124281081E-134
   32.5850000000000         1.555231191788307E-133
   32.7750000000000         3.277304151135166E-133
   32.9650000000000         6.412768160375337E-133
   33.1550000000000         1.180286949911629E-132
   33.3450000000000         2.052084281953977E-132
   33.5350000000000         3.363335322454528E-132
   33.7250000000000         5.147801964415035E-132
   33.9150000000000         7.194722369439349E-132
   34.1050000000000         8.688219936425964E-132
   34.2950000000000         7.508976551689493E-132
   34.4850000000000        -1.034741814753803E-132
   34.6750000000000        -2.638764244183405E-131
   34.8650000000000        -8.629675063846344E-131
   35.0550000000000        -2.122644227679773E-130
   35.2450000000000        -4.573720670031086E-130
   35.4350000000000        -9.065144007518006E-130
   35.6250000000000        -1.687905479224371E-129
   35.8150000000000        -2.982116885347720E-129
   36.0050000000000        -5.019806403278778E-129
   36.1950000000000        -8.050063096332929E-129
   36.3850000000000        -1.224564473472564E-128
   36.5750000000000        -1.748640131103515E-128
   36.7650000000000        -2.292469583660090E-128
   36.9550000000000        -2.618431216730299E-128
   37.1450000000000        -2.197807173831650E-128
   37.3350000000000         1.420377065861661E-130
   37.5250000000000         5.923995734952461E-128
   37.7150000000000         1.879701428676583E-127
   37.9050000000000         4.391805626149878E-127
   38.0950000000000         8.936756120692039E-127
   38.2850000000000         1.667404812996298E-126
   38.4750000000000         2.913895861954648E-126
   38.6650000000000         4.813400248584900E-126
   38.8550000000000         7.532990597016574E-126
   39.0450000000000         1.113055678722648E-125
   39.2350000000000         1.535910512314949E-125
   39.4250000000000         1.930529269231809E-125
   39.6150000000000         2.076860930518396E-125
   39.8050000000000         1.525942357179909E-125
   39.9950000000000        -5.523635468244486E-126
   40.1850000000000        -5.586074897958585E-125
   40.3750000000000        -1.588544582272386E-124
   40.5650000000000        -3.497415660921925E-124
   40.7550000000000        -6.789617953951485E-124
   40.9450000000000        -1.213334198166465E-123
   41.1350000000000        -2.032085726816015E-123
   41.3250000000000        -3.211905779328102E-123
   41.5150000000000        -4.791347481242317E-123
   41.7050000000000        -6.699514226420498E-123
   41.8950000000000        -8.627081027099936E-123
   42.0850000000000        -9.809956443849570E-123
   42.2750000000000        -8.689174499485418E-123
   42.4650000000000        -2.408958779222069E-123
   42.6550000000000         1.387414099996445E-122
   42.8450000000000         4.786178183099570E-122
   43.0350000000000         1.110728759628164E-121
   43.2250000000000         2.196430472034438E-121
   43.4150000000000         3.944442945171263E-121
   43.6050000000000         6.595680157216316E-121
   43.7950000000000         1.037560797432055E-120
   43.9850000000000         1.538891049789969E-120
   44.1750000000000         2.141957149932447E-120
   44.3650000000000         2.758619869594135E-120
   44.5550000000000         3.179026433062867E-120
   44.7450000000000         2.988963706956188E-120
   44.9350000000000         1.454174785561845E-120
   45.1250000000000        -2.629286072400606E-120
   45.3150000000000        -1.110888080774776E-119
   45.5050000000000        -2.664333960879184E-119
   45.6950000000000        -5.279898582409480E-119
   45.8850000000000        -9.395388762533919E-119
   46.0750000000000        -1.548077780626453E-118
   46.2650000000000        -2.391848424194895E-118
   46.4550000000000        -3.476780034543139E-118
   46.6450000000000        -4.735303924187413E-118
   46.8350000000000        -5.960152697631888E-118
   47.0250000000000        -6.705245076563166E-118
   47.2150000000000        -6.147195271524612E-118
   47.4050000000000        -2.906130205491939E-118
   47.5950000000000         5.164093327011594E-118
   47.7850000000000         2.118506208843892E-117
   47.9750000000000         4.939609961543573E-117
   48.1650000000000         9.510981891023544E-117
   48.3550000000000         1.642850487199352E-116
   48.5450000000000         2.624214724121616E-116
   48.7350000000000         3.923612510440177E-116
   48.9250000000000         5.504595760043047E-116
   49.1150000000000         7.204908271891660E-116
   49.3050000000000         8.646479918595149E-116
   49.4950000000000         9.111641965707104E-116
   49.6850000000000         7.385760169486208E-116
   49.8750000000000         1.576498089861713E-116
   50.0650000000000        -1.106254658193369E-115
   50.2550000000000        -3.424833029005776E-115
   50.4450000000000        -7.262892881569966E-115
   50.6350000000000        -1.314372925533401E-114
   50.8250000000000        -2.156191954744845E-114
   51.0150000000000        -3.281408033320065E-114
   51.2050000000000        -4.671119488557544E-114
   51.3950000000000        -6.213237202196979E-114
   51.5850000000000        -7.638354731092130E-114
   51.7750000000000        -8.434200266693258E-114
   51.9650000000000        -7.740738819051308E-114
   52.1550000000000        -4.235326414140497E-114
   52.3450000000000         3.970728030543154E-114
   52.5350000000000         1.938502856075952E-113
   52.7250000000000         4.507272422889486E-113
   52.9150000000000         8.438623974142444E-113
   53.1050000000000         1.403560283283271E-112
   53.2950000000000         2.145777530717922E-112
   53.4850000000000         3.054077477395223E-112
   53.6750000000000         4.052826585980790E-112
   53.8650000000000         4.970357542213263E-112
   54.0550000000000         5.492258198277743E-112
   54.2450000000000         5.107681187732700E-112
   54.4350000000000         3.056097255694855E-112
   54.6250000000000        -1.711290670096168E-112
   54.8150000000000        -1.053188238826894E-111
   55.0050000000000        -2.495829727443218E-111
   55.1950000000000        -4.656222766976389E-111
   55.3850000000000        -7.655318423507780E-111
   55.5750000000000        -1.151404827649162E-110
   55.7650000000000        -1.605675581492977E-110
   55.9550000000000        -2.077673861688967E-110
   56.1450000000000        -2.466384938539267E-110
   56.3350000000000        -2.600375973667549E-110
   56.5250000000000        -2.217436350694556E-110
   56.7150000000000        -9.488369551405922E-111
   56.9050000000000         1.683677534384995E-110
   57.0950000000000         6.246054111726194E-110
   57.2850000000000         1.332869141640293E-109
   57.4750000000000         2.342105475063773E-109
   57.6650000000000         3.670082672793292E-109
   57.8550000000000         5.271536467904026E-109
   58.0450000000000         6.994095843176119E-109
   58.2350000000000         8.522360262434836E-109
   58.4250000000000         9.313828538598842E-109
   58.6150000000000         8.535686132855542E-109
   58.8050000000000         5.019118566737721E-109
   58.9950000000000        -2.742064261171179E-109
   59.1850000000000        -1.650957328931496E-108
   59.3750000000000        -3.808382076096588E-108
   59.5650000000000        -6.888958320853472E-108
   59.7550000000000        -1.092972634003849E-107
   59.9450000000000        -1.576217549866849E-107
   60.1350000000000        -2.087722048914509E-107
   60.3250000000000        -2.525910795082186E-107
   60.5150000000000        -2.720325263771628E-107
   60.7050000000000        -2.414998182182310E-107
   60.8950000000000        -1.258967076126377E-107
   61.0850000000000         1.187556730294158E-107
   61.2750000000000         5.419482819305601E-107
   61.4650000000000         1.191046916948927E-106
   61.6550000000000         2.097653412154184E-106
   61.8450000000000         3.256256031846007E-106
   62.0350000000000         4.593937029384336E-106
   62.2250000000000         5.931098436515022E-106
   62.4150000000000         6.935384608265879E-106
   62.6050000000000         7.074534571978983E-106
   62.7950000000000         5.579031028447079E-106
   62.9850000000000         1.432177866786481E-106
   63.1750000000000        -6.586676666810801E-106
   63.3650000000000        -1.977154882206562E-105
   63.5550000000000        -3.923047160533901E-105
   63.7450000000000        -6.545307190348054E-105
   63.9350000000000        -9.766632803212255E-105
   64.1250000000000        -1.329595651209382E-104
   64.3150000000000        -1.652007543586334E-104
   64.5050000000000        -1.838359587717451E-104
   64.6950000000000        -1.727690891595464E-104
   64.8850000000000        -1.096636952211374E-104
   65.0750000000000         3.381048585448895E-105
   65.2650000000000         2.900600058039540E-104
   65.4550000000000         6.910577744356412E-104
   65.6450000000000         1.260186253642348E-103
   65.8350000000000         1.999391279051100E-103
   66.0250000000000         2.870876319960091E-103
   66.2150000000000         3.773246179097297E-103
   66.4050000000000         4.513263248021166E-103
   66.5950000000000         4.776375460687186E-103
   66.7850000000000         4.102038750444602E-103
   66.9750000000000         1.873610184233826E-103
   67.1650000000000        -2.662937985694532E-103
   67.3550000000000        -1.033251016670577E-102
   67.5450000000000        -2.189354391997345E-102
   67.7350000000000        -3.780484264700216E-102
   67.9250000000000        -5.787390014356933E-102
   68.1150000000000        -8.077341253327368E-102
   68.3050000000000        -1.034325403998408E-101
   68.4950000000000        -1.203435155968231E-101
   68.6850000000000        -1.228756951414004E-101
   68.8750000000000        -9.876006552164718E-102
   69.0650000000000        -3.199651358929245E-102
   69.2550000000000         9.646196990356918E-102
   69.4450000000000         3.067927861113921E-101
   69.6350000000000         6.166221120413533E-101
   69.8250000000000         1.035027099778919E-100
   70.0150000000000         1.553760932657851E-100
   70.2050000000000         2.135500763379070E-100
   70.3950000000000         2.699422467687025E-100
   70.5850000000000         3.105226017468209E-100
   70.7750000000000         3.137929992630082E-100
   70.9650000000000         2.497344839098673E-100
   71.1550000000000         7.980739470149990E-101
   71.3450000000000        -2.411978786837411E-100
   71.5350000000000        -7.604611880310536E-100
   71.7250000000000        -1.518449727860547E-099
   71.9150000000000        -2.535122517383696E-099
   72.1050000000000        -3.790140360346847E-099
   72.2950000000000        -5.196814406049057E-099
   72.4850000000000        -6.570646817726961E-099
   72.6750000000000        -7.595074332109050E-099
   72.8650000000000        -7.789513093815478E-099
   73.0550000000000        -6.488030074016891E-099
   73.2450000000000        -2.840795777677132E-099
   73.4350000000000         4.145452383236373E-099
   73.6250000000000         1.550804557505154E-098
   73.8150000000000         3.214801676355980E-098
   74.0050000000000         5.454733775719142E-098
   74.1950000000000         8.236789088419653E-098
   74.3850000000000         1.139288962741257E-097
   74.5750000000000         1.455815563852855E-097
   74.7650000000000         1.710333108992307E-097
   74.9550000000000         1.807206210083646E-097
   75.1450000000000         1.613882640651698E-097
   75.3350000000000         9.610164543334578E-098
   75.5250000000000        -3.501038339950888E-098
   75.7150000000000        -2.529234807301594E-097
   75.9050000000000        -5.764048431061292E-097
   76.0950000000000        -1.016848244330947E-096
   76.2850000000000        -1.570992168762184E-096
   76.4750000000000        -2.211484314340488E-096
   76.6650000000000        -2.875643202479768E-096
   76.8550000000000        -3.453345585487791E-096
   77.0450000000000        -3.775752130733008E-096
   77.2350000000000        -3.607559717763892E-096
   77.4250000000000        -2.646577518229581E-096
   77.6150000000000        -5.355433955458513E-097
   77.8050000000000         3.107976307977789E-096
   77.9950000000000         8.637324649613696E-096
   78.1850000000000         1.629230206913864E-095
   78.3750000000000         2.608051957311471E-095
   78.5650000000000         3.762428263199717E-095
   78.7550000000000         4.997889181648003E-095
   78.9450000000000         6.143723934540693E-095
   79.1350000000000         6.934753984638469E-095
   79.3250000000000         6.998563047606626E-095
   79.5150000000000         5.853949369540034E-095
   79.7050000000000         2.927955105564344E-095
   79.8950000000000        -2.399924119916239E-095
   80.0850000000000        -1.071727694821293E-094
   80.2750000000000        -2.245386348329553E-094
   80.4650000000000        -3.770694148231596E-094
   80.6550000000000        -5.601713458407415E-094
   80.8450000000000        -7.610414192152755E-094
   81.0350000000000        -9.558441439283386E-094
   81.2250000000000        -1.107096082057273E-093
   81.4150000000000        -1.161845272087698E-093
   81.6050000000000        -1.051447753746759E-093
   81.7950000000000        -6.939460129358823E-094
   81.9850000000000        -2.008091054884805E-097
   82.1750000000000         1.115040932375835E-093
   82.3650000000000         2.716118050888140E-093
   82.5550000000000         4.822876030478776E-093
   82.7450000000000         7.380740383242125E-093
   82.9350000000000         1.022587549417944E-092
   83.1250000000000         1.304856673670034E-092
   83.3150000000000         1.536012437442015E-092
   83.5050000000000         1.647111288814978E-092
   83.6950000000000         1.549132149447617E-092
   83.8850000000000         1.136421556285935E-092
   84.0750000000000         2.950068900377714E-093
   84.2650000000000        -1.082818622051792E-092
   84.4550000000000        -3.076505850715237E-092
   84.6450000000000        -5.707346534383167E-092
   84.8350000000000        -8.901225717832231E-092
   85.0250000000000        -1.244620191290964E-091
   85.2150000000000        -1.594924222000451E-091
   85.4050000000000        -1.879909124482536E-091
   85.5950000000000        -2.014522659885041E-091
   85.7850000000000        -1.890581959228266E-091
   85.9750000000000        -1.382005790925129E-091
   86.1650000000000        -3.561370574386958E-092
   86.3550000000000         1.307290337678089E-091
   86.5450000000000         3.688412563549206E-091
   86.7350000000000         6.790464285721642E-091
   86.9250000000000         1.049512509443334E-090
   87.1150000000000         1.451315908852891E-090
   87.3050000000000         1.833616376967156E-090
   87.4950000000000         2.119840128498641E-090
   87.6850000000000         2.206111144181945E-090
   87.8750000000000         1.963496891160803E-090
   88.0650000000000         1.245879507272919E-090
   88.2550000000000        -9.466155374307118E-092
   88.4450000000000        -2.183274040665238E-090
   88.6350000000000        -5.087492044510443E-090
   88.8250000000000        -8.772197247534263E-090
   89.0150000000000        -1.304623033851787E-089
   89.2050000000000        -1.750498524181149E-089
   89.3950000000000        -2.147648872250623E-089
   89.5850000000000        -2.398217938106979E-089
   89.7750000000000        -2.372753808084491E-089
   89.9650000000000        -1.914135690799788E-089
   90.1550000000000        -8.484989474609889E-090
   90.3450000000000         9.946631072979174E-090
   90.5350000000000         3.751335095225870E-089
   90.7250000000000         7.479639459404016E-089
   90.9150000000000         1.210459891965893E-088
   91.1050000000000         1.735341208333857E-088
   91.2950000000000         2.268658990005919E-088
   91.4850000000000         2.723401410418001E-088
   91.6750000000000         2.974929882670801E-088
   91.8650000000000         2.860040245821510E-088
   92.0550000000000         2.181865028304893E-088
   92.2450000000000         7.231319175308967E-089
   92.4350000000000        -1.729644828281748E-088
   92.6250000000000        -5.348779647493477E-088
   92.8150000000000        -1.021342896234605E-087
   93.0050000000000        -1.624313971103277E-087
   93.1950000000000        -2.311944664325921E-087
   93.3850000000000        -3.020131908387225E-087
   93.5750000000000        -3.644443846051255E-087
   93.7650000000000        -4.033919695510409E-087
   93.9550000000000        -3.988757977548911E-087
   94.1450000000000        -3.264411251294509E-087
   94.3350000000000        -1.584991502656317E-087
   94.5250000000000         1.330960641566698E-087
   94.7150000000000         5.729526936921278E-087
   94.9050000000000         1.176326021052784E-086
   95.0950000000000         1.941533338414489E-086
   95.2850000000000         2.840790709329968E-086
   95.4750000000000         3.810004884311028E-086
   95.6650000000000         4.738496756139714E-086
   95.8550000000000         5.460165040504896E-086
   96.0450000000000         5.748188381686138E-086
   96.2350000000000         5.315953884716644E-086
   96.4250000000000         3.827403851239513E-086
   96.6150000000000         9.202920946730194E-087
   96.8050000000000        -3.754212456866405E-086
   96.9950000000000        -1.047271832483693E-085
   97.1850000000000        -1.936003940975312E-085
   97.3750000000000        -3.028948748937114E-085
   97.5650000000000        -4.276688576033098E-085
   97.7550000000000        -5.580649214550856E-085
   97.9450000000000        -6.781240363170447E-085
   98.1350000000000        -7.648521552873949E-085
   98.3250000000000        -7.878027180547806E-085
   98.5150000000000        -7.095002444824077E-085
   98.7050000000000        -4.870776656841674E-085
   98.8950000000000        -7.551938608484209E-086
   99.0850000000000         5.671233802811844E-085
   99.2750000000000         1.472267403344799E-084
   99.4650000000000         2.650976357528604E-084
   99.6550000000000         4.081949303293677E-084
   99.8450000000000         5.697867410644717E-084
   100.035000000000         7.371145252363945E-084
   100.225000000000         8.900733402951922E-084
   100.415000000000         1.000229113558590E-083
   100.605000000000         1.030473600357138E-083
   100.795000000000         9.356796459063800E-084
   100.985000000000         6.647628553759357E-084
   101.175000000000         1.645661638341259E-084
   101.365000000000        -6.140561506309844E-084
   101.555000000000        -1.707687504744596E-083
   101.745000000000        -3.129260241741730E-083
   101.935000000000        -4.854658218562654E-083
   102.125000000000        -6.807652950876712E-083
   102.315000000000        -8.844341036133380E-083
   102.505000000000        -1.073887317869252E-082
   102.695000000000        -1.217294972922449E-082
   102.885000000000        -1.273224485960038E-082
   103.075000000000        -1.191352418501968E-082
   103.265000000000        -9.146622339882886E-083
   103.455000000000        -3.835503363989609E-083
   103.645000000000         4.577828794984620E-083
   103.835000000000         1.652394754931666E-082
   104.025000000000         3.219053298081550E-082
   104.215000000000         5.138320603142424E-082
   104.405000000000         7.336915018900053E-082
   104.595000000000         9.671515369049647E-082
   104.785000000000         1.191377542201931E-081
   104.975000000000         1.373897691081836E-081
   105.165000000000         1.472140773077005E-081
   105.355000000000         1.434012632370076E-081
   105.545000000000         1.199915532479381E-081
   105.735000000000         7.066204505777186E-082
   105.925000000000        -1.066396813524696E-082
   106.115000000000        -1.289593479461372E-081
   106.305000000000        -2.869793815117129E-081
   106.495000000000        -4.839118490739351E-081
   106.685000000000        -7.138482349662435E-081
   106.875000000000        -9.641805374918361E-081
   107.065000000000        -1.214083435225815E-080
   107.255000000000        -1.433302009194148E-080
   107.445000000000        -1.581525816808031E-080
   107.635000000000        -1.608683714002037E-080
   107.825000000000        -1.456531036788695E-080
   108.015000000000        -1.061910111606747E-080
   108.205000000000        -3.620334846786520E-081
   108.395000000000         6.979470887160407E-081
   108.585000000000         2.154977253471712E-080
   108.775000000000         4.015867011980711E-080
   108.965000000000         6.243231510373390E-080
   109.155000000000         8.740452302585123E-080
   109.345000000000         1.133698227390852E-079
   109.535000000000         1.377584311526120E-079
   109.725000000000         1.570569917406688E-079
   109.915000000000         1.668037802771381E-079
   110.105000000000         1.616907021812279E-079