  -1.42500000000000         0.000000000000000E+000
  -1.23500000000000         0.000000000000000E+000
  -1.04500000000000         0.000000000000000E+000
 -0.855000000000000         0.000000000000000E+000
 -0.665000000000000         0.000000000000000E+000
 -0.475000000000000         0.000000000000000E+000
 -0.285000000000000         0.000000000000000E+000
 -9.499999999999975E-002    0.000000000000000E+000
  9.500000000000020E-002    0.000000000000000E+000
  0.285000000000000         0.000000000000000E+000
  0.475000000000000         0.000000000000000E+000
  0.665000000000000         0.000000000000000E+000
  0.855000000000000         0.000000000000000E+000
   1.04500000000000         0.000000000000000E+000
   1.23500000000000         0.000000000000000E+000
   1.42500000000000         0.000000000000000E+000
   1.61500000000000         0.000000000000000E+000
   1.80500000000000         0.000000000000000E+000
   1.99500000000000         0.000000000000000E+000
   2.18500000000000         0.000000000000000E+000
   2.37500000000000         0.000000000000000E+000
   2.56500000000000         0.000000000000000E+000
   2.75500000000000         0.000000000000000E+000
   2.94500000000000         0.000000000000000E+000
   3.13500000000000         0.000000000000000E+000
   3.32500000000000         0.000000000000000E+000
   3.51500000000000         0.000000000000000E+000
   3.70500000000000         0.000000000000000E+000
   3.89500000000000         0.000000000000000E+000
   4.08500000000000         0.000000000000000E+000
   4.27500000000000         0.000000000000000E+000
   4.46500000000000         0.000000000000000E+000
   4.65500000000000         0.000000000000000E+000
   4.84500000000000         0.000000000000000E+000
   5.03500000000000         0.000000000000000E+000
   5.22500000000000         0.000000000000000E+000
   5.41500000000000         0.000000000000000E+000
   5.60500000000000         0.000000000000000E+000
   5.79500000000000         0.000000000000000E+000
   5.98500000000000         0.000000000000000E+000
   6.17500000000000         0.000000000000000E+000
   6.36500000000000         0.000000000000000E+000
   6.55500000000000         0.000000000000000E+000
   6.74500000000000         0.000000000000000E+000
   6.93500000000000         0.000000000000000E+000
   7.12500000000000         0.000000000000000E+000
   7.31500000000000         0.000000000000000E+000
   7.50500000000000         0.000000000000000E+000
   7.69500000000000         5.211443426205800E-214
   7.88500000000000        -2.538219134759347E-208
   8.07500000000000        -1.632977730007112E-203
   8.26500000000000        -1.182423548272963E-201
   8.45500000000000        -8.035728855409616E-200
   8.64500000000000        -4.463137374365100E-198
   8.83500000000000        -1.760265854454833E-196
   9.02500000000000        -5.101191848766874E-195
   9.21500000000000        -1.149406263871773E-193
   9.40500000000000        -2.107199194721211E-192
   9.59500000000000        -3.250756619768678E-191
   9.78500000000000        -4.326741749030578E-190
   9.97500000000000        -5.061316445781375E-189
   10.1650000000000        -5.269830978376712E-188
   10.3550000000000        -4.912507684436082E-187
   10.5450000000000        -4.081809425501659E-186
   10.7350000000000        -2.951422359751299E-185
   10.9250000000000        -1.722575718474642E-184
   11.1150000000000        -5.828548399371635E-184
   11.3050000000000         3.240325354756298E-183
   11.4950000000000         9.193029936254118E-182
   11.6850000000000         1.196365760763151E-180
   11.8750000000000         1.209764976280296E-179
   12.0650000000000         1.048974057783735E-178
   12.2550000000000         8.077537799319878E-178
   12.4450000000000         5.606166644613400E-177
   12.6350000000000         3.524243041138045E-176
   12.8250000000000         2.001181089812669E-175
   13.0150000000000         1.013285462874423E-174
   13.2050000000000         4.422921882383913E-174
   13.3950000000000         1.507039919761412E-173
   13.5850000000000         2.318633565019862E-173
   13.7750000000000        -2.012327512491566E-172
   13.9650000000000        -2.671950158185806E-171
   14.1550000000000        -2.099529850969327E-170
   14.3450000000000        -1.349382874585003E-169
   14.5350000000000        -7.677288242363648E-169
   14.7250000000000        -3.992733922742418E-168
   14.9150000000000        -1.929008114796847E-167
   15.1050000000000        -8.736057730776265E-167
   15.2950000000000        -3.727714067041992E-166
   15.4850000000000        -1.502547131242244E-165
   15.6750000000000        -5.723583880915900E-165
   15.8650000000000        -2.056806250338245E-164
   16.0550000000000        -6.939732892761625E-164
   16.2450000000000        -2.177330367820146E-163
   16.4350000000000        -6.230136038958405E-163
   16.6250000000000        -1.556141349260943E-162
   16.8150000000000        -2.978830072328285E-162
   17.0050000000000        -1.596410725024870E-162
   17.1950000000000         2.327307864588734E-161
   17.3850000000000         1.673129750775294E-160
   17.5750000000000         8.135349653850417E-160
   17.7650000000000         3.358127799345494E-159
   17.9550000000000         1.254230167182858E-158
   18.1450000000000         4.354107160681516E-158
   18.3350000000000         1.424249224400478E-157
   18.5250000000000         4.422888334360390E-157
   18.7150000000000         1.309359180967582E-156
   18.9050000000000         3.702335779038329E-156
   19.0950000000000         1.000013931992584E-155
   19.2850000000000         2.575740500861270E-155
   19.4750000000000         6.300824694679720E-155
   19.6650000000000         1.452567140155542E-154
   19.8550000000000         3.110378842677340E-154
   20.0450000000000         6.005115603099129E-154
   20.2350000000000         9.706761938111794E-154
   20.4250000000000         9.764055230134051E-154
   20.6150000000000        -1.223229214841816E-153
   20.8050000000000        -1.163691015804226E-152
   20.9950000000000        -4.757656640919565E-152
   21.1850000000000        -1.548378824671431E-151
   21.3750000000000        -4.466094167373439E-151
   21.5650000000000        -1.186384359263008E-150
   21.7550000000000        -2.953398538420427E-150
   21.9450000000000        -6.947939187907353E-150
   22.1350000000000        -1.549820274265829E-149
   22.3250000000000        -3.276530114533043E-149
   22.5150000000000        -6.536217193089004E-149
   22.7050000000000        -1.217545459917054E-148
   22.8950000000000        -2.071121738480206E-148
   23.0850000000000        -3.050484187511709E-148
   23.2750000000000        -3.259447680470944E-148
   23.4650000000000         2.383789699495341E-149
   23.6550000000000         1.551341735572861E-147
   23.8450000000000         6.277649710664151E-147
   24.0350000000000         1.898210197555605E-146
   24.2250000000000         5.055746915282530E-146
   24.4150000000000         1.252701376983820E-145
   24.6050000000000         2.965205220372879E-145
   24.7950000000000         6.812939429840951E-145
   24.9850000000000         1.535996429764831E-144
   25.1750000000000         3.424067464740781E-144
   25.3650000000000         7.586183954198313E-144
   25.5550000000000         1.675309000660590E-143
   25.7450000000000         3.691116618778616E-143
   25.9350000000000         8.108138548954364E-143
   26.1250000000000         1.772652570942280E-142
   26.3150000000000         3.848223261978184E-142
   26.5050000000000         8.275064425416350E-142
   26.6950000000000         1.758608937159839E-141
   26.8850000000000         3.686409051692373E-141
   27.0750000000000         7.609903269674981E-141
   27.2650000000000         1.545057869808813E-140
   27.4550000000000         3.082230669941719E-140
   27.6450000000000         6.036528235720539E-140
   27.8350000000000         1.159856871866049E-139
   28.0250000000000         2.184842717513544E-139
   28.2150000000000         4.031907259946265E-139
   28.4050000000000         7.282514447541570E-139
   28.5950000000000         1.285925273428443E-138
   28.7850000000000         2.216162341916560E-138
   28.9750000000000         3.718969304126388E-138
   29.1650000000000         6.055915897039964E-138
   29.3550000000000         9.518614896273270E-138
   29.5450000000000         1.431798601581684E-137
   29.7350000000000         2.030418338455148E-137
   29.9250000000000         2.635001612647658E-137
   30.1150000000000         2.910082679388569E-137
   30.3050000000000         2.058367487306639E-137
   30.4950000000000        -1.615623055109306E-137
   30.6850000000000        -1.146995342801159E-136
   30.8750000000000        -3.381317156360668E-136
   31.0650000000000        -7.998954531629754E-136
   31.2550000000000        -1.696105242372748E-135
   31.4450000000000        -3.353066522365135E-135
   31.6350000000000        -6.292454022416265E-135
   31.8250000000000        -1.131164952340901E-134
   32.0150000000000        -1.956406390722734E-134
   32.2050000000000        -3.259651669535712E-134
   32.3950000000000        -5.224511123498052E-134
   32.5850000000000        -8.018604651483628E-134
   32.7750000000000        -1.167487390350811E-133
   32.9650000000000        -1.582716277310054E-133
   33.1550000000000        -1.917364945433714E-133
   33.3450000000000        -1.845449297008674E-133
   33.5350000000000        -6.596347656068871E-134
   33.7250000000000         3.051765406013683E-133
   33.9150000000000         1.194545091108110E-132
   34.1050000000000         3.079240609292964E-132
   34.2950000000000         6.781362751539087E-132
   34.4850000000000         1.366202755710196E-131
   34.6750000000000         2.588175958280003E-131
   34.8650000000000         4.670673610718816E-131
   35.0550000000000         8.077459208843866E-131
   35.2450000000000         1.340904745579340E-130
   35.4350000000000         2.132373999154757E-130
   35.6250000000000         3.227437648549040E-130
   35.8150000000000         4.585780729073808E-130
   36.0050000000000         5.940686773015493E-130
   36.1950000000000         6.517949052221205E-130
   36.3850000000000         4.506743812596484E-130
   36.5750000000000        -3.889632553576966E-130
   36.7650000000000        -2.608480103780427E-129
   36.9550000000000        -7.579674390825414E-129
   37.1450000000000        -1.772860830323650E-128
   37.3350000000000        -3.717175622901374E-128
   37.5250000000000        -7.261424444475298E-128
   37.7150000000000        -1.345149476379613E-127
   37.9050000000000        -2.383993239788420E-127
   38.0950000000000        -4.059260753573644E-127
   38.2850000000000        -6.647692272154116E-127
   38.4750000000000        -1.045377424149666E-126
   38.6650000000000        -1.570943544317311E-126
   38.8550000000000        -2.234084437340458E-126
   39.0450000000000        -2.949325454820948E-126
   39.2350000000000        -3.464018457872205E-126
   39.4250000000000        -3.201474800653346E-126
   39.6150000000000        -9.991290514721245E-127
   39.8050000000000         5.306888192892334E-126
   39.9950000000000         1.950683784836346E-125
   40.1850000000000         4.790197881968246E-125
   40.3750000000000         1.004600300290460E-124
   40.5650000000000         1.921487525092496E-124
   40.7550000000000         3.441297229309278E-124
   40.9450000000000         5.840604236874880E-124
   41.1350000000000         9.439799457130679E-124
   41.3250000000000         1.452961643231343E-123
   41.5150000000000         2.119677439621826E-123
   41.7050000000000         2.896985992496654E-123
   41.8950000000000         3.616441627539122E-123
   42.0850000000000         3.875261066019511E-123
   42.2750000000000         2.852368324086650E-123
   42.4650000000000        -9.746338857864097E-124
   42.6550000000000        -1.023961140276985E-122
   42.8450000000000        -2.924105589812181E-122
   43.0350000000000        -6.461734529869803E-122
   43.2250000000000        -1.260411299301060E-121
   43.4150000000000        -2.266708698407918E-121
   43.6050000000000        -3.828162343873561E-121
   43.7950000000000        -6.118104127941521E-121
   43.9850000000000        -9.263655110494663E-121
   44.1750000000000        -1.322648973908344E-120
   44.3650000000000        -1.757925228285119E-120
   44.5550000000000        -2.111918301553480E-120
   44.7450000000000        -2.124330598665285E-120
   44.9350000000000        -1.299837394893944E-120
   45.1250000000000         1.227362884135390E-120
   45.3150000000000         6.872458938506753E-120
   45.5050000000000         1.781264543004783E-119
   45.6950000000000         3.719738038636622E-119
   45.8850000000000         6.927226704333285E-119
   46.0750000000000         1.192524263843013E-118
   46.2650000000000         1.926566550608495E-118
   46.4550000000000         2.936329925697867E-118
   46.6450000000000         4.215636804212612E-118
   46.8350000000000         5.649423646511296E-118
   47.0250000000000         6.912096700171940E-118
   47.2150000000000         7.310121037543954E-118
   47.4050000000000         5.554025047094498E-118
   47.5950000000000        -5.484490849816469E-119
   47.7850000000000        -1.446855455483325E-117
   47.9750000000000        -4.135597832950278E-117
   48.1650000000000        -8.834944924689507E-117
   48.3550000000000        -1.645783410670599E-116
   48.5450000000000        -2.804709302938167E-116
   48.7350000000000        -4.457535497630528E-116
   48.9250000000000        -6.652246896900240E-116
   49.1150000000000        -9.310393070900033E-116
   49.3050000000000        -1.209901764538586E-115
   49.4950000000000        -1.423368706684403E-115
   49.6850000000000        -1.419636152165459E-115
   49.8750000000000        -9.361028744371448E-116
   50.0650000000000         4.457743493552070E-116
   50.2550000000000         3.347513969227358E-115
   50.4450000000000         8.629349101777084E-115
   50.6350000000000         1.738997790847471E-114
   50.8250000000000         3.088898646331672E-114
   51.0150000000000         5.032840517225374E-114
   51.2050000000000         7.640297757854995E-114
   51.3950000000000         1.085004927836227E-113
   51.5850000000000         1.434113988276860E-113
   51.7750000000000         1.734045460336062E-113
   51.9650000000000         1.835656842528435E-113
   52.1550000000000         1.484107495157155E-113
   52.3450000000000         2.802316139383323E-114
   52.5350000000000        -2.356186639577893E-113
   52.7250000000000        -7.207959077468317E-113
   52.9150000000000        -1.524393802216033E-112
   53.1050000000000        -2.752847734658076E-112
   53.2950000000000        -4.500517710613115E-112
   53.4850000000000        -6.808617141428492E-112
   53.6750000000000        -9.596393783959606E-112
   53.8650000000000        -1.255581325946008E-111
   54.0550000000000        -1.500267379891203E-111
   54.2450000000000        -1.568257230188627E-111
   54.4350000000000        -1.254172943583583E-111
   54.6250000000000        -2.493174170559273E-112
   54.8150000000000         1.875877265582216E-111
   55.0050000000000         5.672576929312007E-111
   55.1950000000000         1.178019353114022E-110
   55.3850000000000         2.083412704213394E-110
   55.5750000000000         3.328175243948332E-110
   55.7650000000000         4.906718028947939E-110
   55.9550000000000         6.714335229800451E-110
   56.1450000000000         8.477783854808893E-110
   56.3350000000000         9.664360761141631E-110
   56.5250000000000         9.373764528347057E-110
   56.7150000000000         6.225996291109452E-110
   56.9050000000000        -1.727511630829421E-110
   57.0950000000000        -1.702255857975717E-109
   57.2850000000000        -4.265789043957644E-109
   57.4750000000000        -8.172493700480299E-109
   57.6650000000000        -1.366577577595013E-108
   57.8550000000000        -2.079460669466664E-108
   58.0450000000000        -2.921517337278074E-108
   58.2350000000000        -3.791076654770593E-108
   58.4250000000000        -4.482851929387610E-108
   58.6150000000000        -4.645267152192895E-108
   58.8050000000000        -3.736932369740379E-108
   58.9950000000000        -9.930770006055931E-109
   59.1850000000000         4.579939207657590E-108
   59.3750000000000         1.415473388946319E-107
   59.5650000000000         2.894000350305014E-107
   59.7550000000000         4.989723733105337E-107
   59.9450000000000         7.726355569991388E-107
   60.1350000000000         1.098296122814979E-106
   60.3250000000000         1.439394710988229E-106
   60.5150000000000         1.722220535811222E-106
   60.7050000000000         1.821420004083672E-106
   60.8950000000000         1.545827884692471E-106
   61.0850000000000         6.285558401232559E-107
   61.2750000000000        -1.272340825865268E-106
   61.4650000000000        -4.553437573597901E-106
   61.6550000000000        -9.613561796872521E-106
   61.8450000000000        -1.675473513187407E-105
   62.0350000000000        -2.602072603091962E-105
   62.2250000000000        -3.695964846758259E-105
   62.4150000000000        -4.830447412266103E-105
   62.6050000000000        -5.758069919627614E-105
   62.7950000000000        -6.067664354100808E-105
   62.9850000000000        -5.145163004496518E-105
   63.1750000000000        -2.151213686884862E-105
   63.3650000000000         3.964499102471367E-105
   63.5550000000000         1.438452691858395E-104
   63.7450000000000         3.024532252101269E-104
   63.9350000000000         5.231898323492486E-104
   64.1250000000000         8.051528966480266E-104
   64.3150000000000         1.131750004526031E-103
   64.5050000000000         1.461521600461037E-103
   64.6950000000000         1.717327537353517E-103
   64.8850000000000         1.775161028956573E-103
   65.0750000000000         1.454989520173423E-103
   65.2650000000000         5.175100784602553E-104
   65.4550000000000        -1.327524124103480E-103
   65.6450000000000        -4.393897266538976E-103
   65.8350000000000        -8.963376645864638E-103
   66.0250000000000        -1.519228909357761E-102
   66.2150000000000        -2.297164262311396E-102
   66.4050000000000        -3.173630308773440E-102
   66.5950000000000        -4.022718892636238E-102
   66.7850000000000        -4.622473933068437E-102
   66.9750000000000        -4.629331962930212E-102
   67.1650000000000        -3.560536448132484E-102
   67.3550000000000        -7.950204908794967E-103
   67.5450000000000         4.392724748520436E-102
   67.7350000000000         1.274746513936388E-101
   67.9250000000000         2.487583879043415E-101
   68.1150000000000         4.099617473736153E-101
   68.3050000000000         6.058019276768993E-101
   68.4950000000000         8.188418575298107E-101
   68.6850000000000         1.013908172596183E-100
   68.8750000000000         1.132196098270139E-100
   69.0650000000000         1.086164422362841E-100
   69.2550000000000         7.569976378477249E-101
   69.4450000000000        -2.799445798840261E-103
   69.6350000000000        -1.358298119119366E-100
   69.8250000000000        -3.468488365144593E-100
   70.0150000000000        -6.445756421652685E-100
   70.2050000000000        -1.029468606886362E-099
   70.3950000000000        -1.482810539151423E-099
   70.5850000000000        -1.956180817379276E-099
   70.7750000000000        -2.359521206214678E-099
   70.9650000000000        -2.549382002957963E-099
   71.1550000000000        -2.320089145552188E-099
   71.3450000000000        -1.401984211288763E-099
   71.5350000000000         5.275617393370607E-100
   71.7250000000000         3.813210696396145E-099
   71.9150000000000         8.762689066479940E-099
   72.1050000000000         1.555178378830681E-098
   72.2950000000000         2.408721990413409E-098
   72.4850000000000         3.382598754263486E-098
   72.6750000000000         4.355805461506872E-098
   72.8650000000000         5.117238780958540E-098
   73.0550000000000         5.344436885057946E-098
   73.2450000000000         4.590589104528417E-098
   73.4350000000000         2.288633119825555E-098
   73.6250000000000        -2.215984273801484E-098
   73.8150000000000        -9.590022429306414E-098
   74.0050000000000        -2.037978603905474E-097
   74.1950000000000        -3.480766741692834E-097
   74.3850000000000        -5.248974636248473E-097
   74.5750000000000        -7.207704033145251E-097
   74.7650000000000        -9.084081628713650E-097
   74.9550000000000        -1.042485538450059E-096
   75.1450000000000        -1.056121276590562E-096
   75.3350000000000        -8.593248463309973E-097
   75.5250000000000        -3.411212156355930E-097
   75.7150000000000         6.224863368565520E-097
   75.9050000000000         2.152239444809064E-096
   76.0950000000000         4.338528390749709E-096
   76.2850000000000         7.201431176584085E-096
   76.4750000000000         1.063703678073918E-095
   76.6650000000000         1.435139113319122E-095
   76.8550000000000         1.778682944248897E-095
   77.0450000000000         2.005027357989862E-095
   77.2350000000000         1.985925930226187E-095
   77.4250000000000         1.552871002104847E-095
   77.6150000000000         5.029069314491229E-096
   77.8050000000000        -1.384693135375766E-095
   77.9950000000000        -4.316780355837742E-095
   78.1850000000000        -8.435782346597790E-095
   78.3750000000000        -1.374739038656035E-094
   78.5650000000000        -2.002596019725404E-094
   78.7550000000000        -2.670111354742723E-094
   78.9450000000000        -3.273502678552650E-094
   79.1350000000000        -3.650803284746406E-094
   79.3250000000000        -3.574028266608668E-094
   79.5150000000000        -2.748866072314227E-094
   79.7050000000000        -8.269600515810289E-095
   79.8950000000000         2.563229018805765E-094
   80.0850000000000         7.760599667203155E-094
   80.2750000000000         1.498481749862226E-093
   80.4650000000000         2.421519058769438E-093
   80.6550000000000         3.503533127793846E-093
   80.8450000000000         4.645058481273969E-093
   81.0350000000000         5.669485081103545E-093
   81.2250000000000         6.305615777369597E-093
   81.4150000000000         6.176576992176492E-093
   81.6050000000000         4.801255322005096E-093
   81.7950000000000         1.616063595616965E-093
   81.9850000000000        -3.973934232718734E-093
   82.1750000000000        -1.250516949311798E-092
   82.3650000000000        -2.431877979600538E-092
   82.5550000000000        -3.937207361197405E-092
   82.7450000000000        -5.699984134821828E-092
   82.9350000000000        -7.563722871409308E-092
   83.1250000000000        -9.253020805759617E-092
   83.3150000000000        -1.034782174786220E-091
   83.5050000000000        -1.026755584152820E-091
   83.6950000000000        -8.274185527916996E-092
   83.8850000000000        -3.505409617556772E-092
   84.0750000000000         4.949136924966922E-092
   84.2650000000000         1.791556808730290E-091
   84.4550000000000         3.593606119998055E-091
   84.6450000000000         5.899552595264450E-091
   84.8350000000000         8.617746069052614E-091
   85.0250000000000         1.152659558454768E-090
   85.2150000000000         1.423305057241098E-090
   85.4050000000000         1.613554842574408E-090
   85.5950000000000         1.640057509373197E-090
   85.7850000000000         1.396514080619695E-090
   85.9750000000000         7.580396890866321E-091
   86.1650000000000        -4.086324793591214E-091
   86.3550000000000        -2.227344254710776E-090
   86.5450000000000        -4.785589341375640E-090
   86.7350000000000        -8.097610399181789E-090
   86.9250000000000        -1.205782975394941E-089
   87.1150000000000        -1.638674051261611E-089
   87.3050000000000        -2.057390019459899E-089
   87.4950000000000        -2.382587265735463E-089
   87.6850000000000        -2.503072045652039E-089
   87.8750000000000        -2.275465446110867E-089
   88.0650000000000        -1.529018215429062E-089
   88.2550000000000        -7.777926421327978E-091
   88.4450000000000         2.257615721165169E-089
   88.6350000000000         5.616541119694822E-089
   88.8250000000000         1.005212085787458E-088
   89.0150000000000         1.547224746099850E-088
   89.2050000000000         2.157015559324800E-088
   89.3950000000000         2.774980197093919E-088
   89.5850000000000         3.305511070107408E-088
   89.7750000000000         3.611663450753833E-088
   89.9650000000000         3.513402294838697E-088
   90.1550000000000         2.791730445509094E-088
   90.3450000000000         1.201352707556968E-088
   90.5350000000000        -1.505338525605759E-088
   90.7250000000000        -5.540404240123184E-088
   90.9150000000000        -1.102683599852050E-087
   91.1050000000000        -1.792903659208612E-087
   91.2950000000000        -2.596927641829745E-087
   91.4850000000000        -3.453535215496261E-087
   91.6750000000000        -4.258888823661120E-087
   91.8650000000000        -4.858876419137588E-087
   92.0550000000000        -5.044969509966642E-087
   92.2450000000000        -4.556146203875474E-087
   92.4350000000000        -3.089881545077760E-087
   92.6250000000000        -3.254473467182191E-088
   92.8150000000000         4.037357459960594E-087
   93.0050000000000         1.022157904424726E-086
   93.1950000000000         1.829748535722173E-086
   93.3850000000000         2.808910256290803E-086
   93.5750000000000         3.906733123117533E-086
   93.7650000000000         5.023838126075109E-086
   93.9550000000000         6.004154771032682E-086
   94.1450000000000         6.627631998444233E-086
   94.3350000000000         6.608495534300074E-086
   94.5250000000000         5.602214744866593E-086
   94.7150000000000         3.224715812308829E-086
   94.9050000000000        -9.125681132968805E-087
   95.0950000000000        -7.148655236304797E-086
   95.2850000000000        -1.569793862715972E-085
   95.4750000000000        -2.655399960643634E-085
   95.6650000000000        -3.937521067129920E-085
   95.8550000000000        -5.335909209826687E-085
   96.0450000000000        -6.711750997328232E-085
   96.2350000000000        -7.857079213012091E-085
   96.4250000000000        -8.488528183010583E-085
   96.6150000000000        -8.248507197331337E-085
   96.8050000000000        -6.717369109993257E-085
   96.9950000000000        -3.440406339729639E-085
   97.1850000000000         2.026642569332748E-085
   97.3750000000000         1.005062243830957E-084
   97.5650000000000         2.083106630214437E-084
   97.7550000000000         3.428833633773707E-084
   97.9450000000000         4.993423083973849E-084
   98.1350000000000         6.673403855024519E-084
   98.3250000000000         8.297455985961039E-084
   98.5150000000000         9.615886667010884E-084
   98.7050000000000         1.029550418465538E-083
   98.8950000000000         9.923206486329253E-084
   99.0850000000000         8.022034730136612E-084
   99.2750000000000         4.083584586378666E-084
   99.4650000000000        -2.379636710648433E-084
   99.6550000000000        -1.175924119027287E-083
   99.8450000000000        -2.425241870581096E-083
   100.035000000000        -3.974149699403905E-083
   100.225000000000        -5.765692728167693E-083
   100.415000000000        -7.683368419558715E-083
   100.605000000000        -9.537661443080565E-083
   100.795000000000        -1.105563879606431E-082
   100.985000000000        -1.187638779957670E-082
   101.175000000000        -1.155562579269118E-082
   101.365000000000        -9.583183635153961E-083
   101.555000000000        -5.417139523298921E-083
   101.745000000000         1.461989869470095E-083
   101.935000000000         1.147456162952810E-082
   102.125000000000         2.484189741856506E-082
   102.315000000000         4.146501115964640E-082
   102.505000000000         6.078735174604178E-082
   102.695000000000         8.165137813638129E-082
   102.885000000000         1.021640043681925E-081
   103.075000000000         1.195916578363556E-081
   103.265000000000         1.303114010158398E-081
   103.455000000000         1.298495772808867E-081
   103.645000000000         1.130428376203693E-081
   103.835000000000         7.435706364507217E-082
   104.025000000000         8.396341313565187E-083
   104.215000000000        -8.937459626633584E-082
   104.405000000000        -2.216864485129906E-081
   104.595000000000        -3.883150878189026E-081
   104.785000000000        -5.847715829428835E-081
   104.975000000000        -8.009188176749403E-081
   105.165000000000        -1.019647755591347E-080
   105.355000000000        -1.215797703062919E-080
   105.545000000000        -1.355556701998611E-080
   105.735000000000        -1.396624556848500E-080
   105.925000000000        -1.289454208477526E-080
   106.115000000000        -9.798976878616700E-081
   106.305000000000        -4.135597880706086E-081
   106.495000000000         4.579057763000042E-081
   106.685000000000         1.668447955067495E-080
   106.875000000000         3.227299186169372E-080
   107.065000000000         5.107030531378877E-080
   107.255000000000         7.230662426995165E-080
   107.445000000000         9.458913381753433E-080
   107.635000000000         1.157911625592865E-079
   107.825000000000         1.329779377903787E-079
   108.015000000000         1.423931529714045E-079
   108.205000000000         1.395339318891649E-079
   108.395000000000         1.193434244255364E-079
   108.585000000000         7.654930098843943E-080
   108.775000000000         6.171840675799528E-081
   108.965000000000        -9.578385797826199E-080
   109.155000000000        -2.314516608906542E-079
   109.345000000000        -4.000650592359839E-079
   109.535000000000        -5.968026936039904E-079
   109.725000000000        -8.115997753699905E-079
   109.915000000000        -1.028044209283932E-078
   110.105000000000        -1.222516465848305E-078