  -1.42500000000000         0.000000000000000E+000
  -1.23500000000000         0.000000000000000E+000
  -1.04500000000000         0.000000000000000E+000
 -0.855000000000000         0.000000000000000E+000
 -0.665000000000000         0.000000000000000E+000
 -0.475000000000000         0.000000000000000E+000
 -0.285000000000000         0.000000000000000E+000
 -9.499999999999975E-002    0.000000000000000E+000
  9.500000000000020E-002    0.000000000000000E+000
  0.285000000000000         0.000000000000000E+000
  0.475000000000000         0.000000000000000E+000
  0.665000000000000         0.000000000000000E+000
  0.855000000000000         0.000000000000000E+000
   1.04500000000000         0.000000000000000E+000
   1.23500000000000         0.000000000000000E+000
   1.42500000000000         0.000000000000000E+000
   1.61500000000000         0.000000000000000E+000
   1.80500000000000         0.000000000000000E+000
   1.99500000000000         0.000000000000000E+000
   2.18500000000000         0.000000000000000E+000
   2.37500000000000         0.000000000000000E+000
   2.56500000000000         0.000000000000000E+000
   2.75500000000000         0.000000000000000E+000
   2.94500000000000         0.000000000000000E+000
   3.13500000000000         0.000000000000000E+000
   3.32500000000000         0.000000000000000E+000
   3.51500000000000         0.000000000000000E+000
   3.70500000000000         0.000000000000000E+000
   3.89500000000000         0.000000000000000E+000
   4.08500000000000         0.000000000000000E+000
   4.27500000000000         0.000000000000000E+000
   4.46500000000000         0.000000000000000E+000
   4.65500000000000         0.000000000000000E+000
   4.84500000000000         0.000000000000000E+000
   5.03500000000000         0.000000000000000E+000
   5.22500000000000         0.000000000000000E+000
   5.41500000000000         0.000000000000000E+000
   5.60500000000000         0.000000000000000E+000
   5.79500000000000         0.000000000000000E+000
   5.98500000000000         0.000000000000000E+000
   6.17500000000000         0.000000000000000E+000
   6.36500000000000         0.000000000000000E+000
   6.55500000000000         0.000000000000000E+000
   6.74500000000000         0.000000000000000E+000
   6.93500000000000         0.000000000000000E+000
   7.12500000000000         0.000000000000000E+000
   7.31500000000000         0.000000000000000E+000
   7.50500000000000         0.000000000000000E+000
   7.69500000000000         0.000000000000000E+000
   7.88500000000000         0.000000000000000E+000
   8.07500000000000        -1.003068838337834E-224
   8.26500000000000         3.945996282898930E-218
   8.45500000000000        -4.160250251595116E-213
   8.64500000000000        -1.377248240862900E-207
   8.83500000000000         6.728639772199168E-201
   9.02500000000000         1.283179913543503E-197
   9.21500000000000        -7.469694346656707E-195
   9.40500000000000        -5.957258153034261E-193
   9.59500000000000        -2.211916158377323E-191
   9.78500000000000        -4.124234373358713E-190
   9.97500000000000         2.226387484885922E-189
   10.1650000000000         4.435259307880814E-187
   10.3550000000000         1.763047198353543E-185
   10.5450000000000         4.677166505627595E-184
   10.7350000000000         9.683933601552131E-183
   10.9250000000000         1.664811189019348E-181
   11.1150000000000         2.459491286987239E-180
   11.3050000000000         3.193689664934275E-179
   11.4950000000000         3.704962587781535E-178
   11.6850000000000         3.888071618314551E-177
   11.8750000000000         3.727776929866353E-176
   12.0650000000000         3.291903480385985E-175
   12.2550000000000         2.695591887005696E-174
   12.4450000000000         2.058479202656537E-173
   12.6350000000000         1.473130246606742E-172
   12.8250000000000         9.921223770659216E-172
   13.0150000000000         6.311126964773241E-171
   13.2050000000000         3.804117691434291E-170
   13.3950000000000         2.178830502673957E-169
   13.5850000000000         1.188734583996702E-168
   13.7750000000000         6.191245164805683E-168
   13.9650000000000         3.084085916040186E-167
   14.1550000000000         1.471798684393197E-166
   14.3450000000000         6.738509289407404E-166
   14.5350000000000         2.963462689581793E-165
   14.7250000000000         1.253115392247274E-164
   14.9150000000000         5.098977428758924E-164
   15.1050000000000         1.997678006180977E-163
   15.2950000000000         7.538190907102361E-163
   15.4850000000000         2.739965479649190E-162
   15.6750000000000         9.591103359803760E-162
   15.8650000000000         3.231437365780497E-161
   16.0550000000000         1.046889666133129E-160
   16.2450000000000         3.256330137918517E-160
   16.4350000000000         9.703502033937353E-160
   16.6250000000000         2.761656075840088E-159
   16.8150000000000         7.475241303512062E-159
   17.0050000000000         1.913602955561238E-158
   17.1950000000000         4.599949709903209E-158
   17.3850000000000         1.030462715392521E-157
   17.5750000000000         2.146373283770311E-157
   17.7650000000000         4.267553702020364E-157
   17.9550000000000         9.126206824676494E-157
   18.1450000000000         2.643690075536175E-156
   18.3350000000000         1.079498968621267E-155
   18.5250000000000         4.968777171071525E-155
   18.7150000000000         2.219983652014788E-154
   18.9050000000000         9.259488792310911E-154
   19.0950000000000         3.604211609798254E-153
   19.2850000000000         1.319553311270668E-152
   19.4750000000000         4.580557767184579E-152
   19.6650000000000         1.517542662873754E-151
   19.8550000000000         4.822875498787962E-151
   20.0450000000000         1.476024331240695E-150
   20.2350000000000         4.362791652008781E-150
   20.4250000000000         1.248096126050659E-149
   20.6150000000000         3.460988324769552E-149
   20.8050000000000         9.311900026363596E-149
   20.9950000000000         2.431950554057896E-148
   21.1850000000000         6.164629696395900E-148
   21.3750000000000         1.515587915261622E-147
   21.5650000000000         3.608399234680156E-147
   21.7550000000000         8.297571869276328E-147
   21.9450000000000         1.834708082447050E-146
   22.1350000000000         3.871931252686041E-146
   22.3250000000000         7.696506843847708E-146
   22.5150000000000         1.404040408780982E-145
   22.7050000000000         2.210332091186182E-145
   22.8950000000000         2.417067219962639E-145
   23.0850000000000        -1.083209489632589E-145
   23.2750000000000        -1.834384531031103E-144
   23.4650000000000        -7.856521344771407E-144
   23.6550000000000        -2.610507118200036E-143
   23.8450000000000        -7.711769032883423E-143
   24.0350000000000        -2.121798761131212E-142
   24.2250000000000        -5.556443728815578E-142
   24.4150000000000        -1.401669249669553E-141
   24.6050000000000        -3.431377562375033E-141
   24.7950000000000        -8.192372087788387E-141
   24.9850000000000        -1.914153246180812E-140
   25.1750000000000        -4.388043097534915E-140
   25.3650000000000        -9.888181328522228E-140
   25.5550000000000        -2.193499142086165E-139
   25.7450000000000        -4.795194379575572E-139
   25.9350000000000        -1.033890050529852E-138
   26.1250000000000        -2.199858130483074E-138
   26.3150000000000        -4.621007358615502E-138
   26.5050000000000        -9.585138065399426E-138
   26.6950000000000        -1.963431910682031E-137
   26.8850000000000        -3.971647659921710E-137
   27.0750000000000        -7.932249790117113E-137
   27.2650000000000        -1.563805675012293E-136
   27.4550000000000        -3.042143326373947E-136
   27.6450000000000        -5.837114455104355E-136
   27.8350000000000        -1.104105609706800E-135
   28.0250000000000        -2.057535812427071E-135
   28.2150000000000        -3.774779702924543E-135
   28.4050000000000        -6.811913721362375E-135
   28.5950000000000        -1.207907560819579E-134
   28.7850000000000        -2.102054990221925E-134
   28.9750000000000        -3.584509036739554E-134
   29.1650000000000        -5.977747587900833E-134
   29.3550000000000        -9.724072468673430E-134
   29.5450000000000        -1.537571601451619E-133
   29.7350000000000        -2.351363135226382E-133
   29.9250000000000        -3.451437359179434E-133
   30.1150000000000        -4.802491673211119E-133
   30.3050000000000        -6.191658499085193E-133
   30.4950000000000        -7.036754586587901E-133
   30.6850000000000        -6.057393791651948E-133
   30.8750000000000        -7.439119311650257E-134
   31.0650000000000         1.344947831040782E-132
   31.2550000000000         4.424938854232601E-132
   31.4450000000000         1.040522132849816E-131
   31.6350000000000         2.116246299641181E-131
   31.8250000000000         3.936021952237862E-131
   32.0150000000000         6.848723898287081E-131
   32.2050000000000         1.126118240533046E-130
   32.3950000000000         1.755597420517058E-130
   32.5850000000000         2.590616460960647E-130
   32.7750000000000         3.592253716888397E-130
   32.9650000000000         4.605101083018195E-130
   33.1550000000000         5.263045164712858E-130
   33.3450000000000         4.854076917410440E-130
   33.5350000000000         2.144562462176787E-130
   33.7250000000000        -4.819589997282172E-130
   33.9150000000000        -1.888542735136512E-129
   34.1050000000000        -4.383630920253270E-129
   34.2950000000000        -8.412265675814246E-129
   34.4850000000000        -1.439858321380292E-128
   34.6750000000000        -2.255448864222414E-128
   34.8650000000000        -3.252743226518639E-128
   35.0550000000000        -4.281974647270117E-128
   35.2450000000000        -4.991330127299471E-128
   35.4350000000000        -4.705856457478864E-128
   35.6250000000000        -2.275401816483773E-128
   35.8150000000000         4.092744173207631E-128
   36.0050000000000         1.697889305797729E-127
   36.1950000000000         3.980284239184158E-127
   36.3850000000000         7.666563857596898E-127
   36.5750000000000         1.318050078757736E-126
   36.7650000000000         2.084174589396175E-126
   36.9550000000000         3.065205353927676E-126
   37.1450000000000         4.194419174894736E-126
   37.3350000000000         5.284224884047004E-126
   37.5250000000000         5.946857176617353E-126
   37.7150000000000         5.481031495903595E-126
   37.9050000000000         2.711793366100867E-126
   38.0950000000000        -4.236529133878594E-126
   38.2850000000000        -1.826653199536363E-125
   38.4750000000000        -4.378312915455189E-125
   38.6650000000000        -8.738911831485557E-125
   38.8550000000000        -1.588860029344364E-124
   39.0450000000000        -2.726469784629109E-124
   39.2350000000000        -4.493257300066459E-124
   39.4250000000000        -7.175792833782462E-124
   39.6150000000000        -1.114853501622818E-123
   39.8050000000000        -1.685058041718000E-123
   39.9950000000000        -2.468798840580090E-123
   40.1850000000000        -3.478315591836304E-123
   40.3750000000000        -4.643961103515876E-123
   40.5650000000000        -5.711714307879290E-123
   40.7550000000000        -6.062146387205284E-123
   40.9450000000000        -4.411963471778663E-123
   41.1350000000000         1.646541923978309E-123
   41.3250000000000         1.630761680562718E-122
   41.5150000000000         4.642582517614702E-122
   41.7050000000000         1.025363718195860E-121
   41.8950000000000         1.998035350268112E-121
   42.0850000000000         3.584022671031513E-121
   42.2750000000000         6.023813232722991E-121
   42.4650000000000         9.553562087373122E-121
   42.6550000000000         1.430382926072781E-120
   42.8450000000000         2.010055930829406E-120
   43.0350000000000         2.611339930025476E-120
   43.2250000000000         3.028158073177831E-120
   43.4150000000000         2.843919093676478E-120
   43.6050000000000         1.307096042701265E-120
   43.7950000000000        -2.832432072661798E-120
   43.9850000000000        -1.151732853967471E-119
   44.1750000000000        -2.757589139212451E-119
   44.3650000000000        -5.484412894229152E-119
   44.5550000000000        -9.808357790513763E-119
   44.7450000000000        -1.624666080522459E-118
   44.9350000000000        -2.522673997390471E-118
   45.1250000000000        -3.682230613867018E-118
   45.3150000000000        -5.028253146843668E-118
   45.5050000000000        -6.326004584879190E-118
   45.6950000000000        -7.063027165787566E-118
   45.8850000000000        -6.280107032010947E-118
   46.0750000000000        -2.345910176610717E-118
   46.2650000000000         7.317946870941356E-118
   46.4550000000000         2.653039093594133E-117
   46.6450000000000         6.058925691842740E-117
   46.8350000000000         1.163118989792576E-116
   47.0250000000000         2.016318491882743E-116
   47.2150000000000         3.243600082461754E-116
   47.4050000000000         4.895297087379992E-116
   47.5950000000000         6.945212432467511E-116
   47.7850000000000         9.209334638289798E-116
   47.9750000000000         1.122003602272414E-115
   48.1650000000000         1.204391900260292E-115
   48.3550000000000         1.003543678822930E-115
   48.5450000000000         2.529212059730531E-116
   48.7350000000000        -1.450408318916196E-115
   48.9250000000000        -4.677466164986937E-115
   49.1150000000000        -1.018373057129192E-114
   49.3050000000000        -1.888823620607095E-114
   49.4950000000000        -3.178043090325731E-114
   49.6850000000000        -4.970293925095794E-114
   49.8750000000000        -7.293846164523991E-114
   50.0650000000000        -1.005086176065890E-113
   50.2550000000000        -1.290770165736085E-113
   50.4450000000000        -1.513478940595107E-113
   50.6350000000000        -1.538809906582836E-113
   50.8250000000000        -1.143265057626026E-113
   51.0150000000000         1.746257717030818E-115
   51.2050000000000         2.439540776798939E-113
   51.3950000000000         6.791883166376217E-113
   51.5850000000000         1.391027485996068E-112
   51.7750000000000         2.473834983955085E-112
   51.9650000000000         4.017646606000135E-112
   52.1550000000000         6.078483504442949E-112
   52.3450000000000         8.627233463198461E-112
   52.5350000000000         1.146911255627537E-111
   52.7250000000000         1.412562657378196E-111
   52.9150000000000         1.567296974280473E-111
   53.1050000000000         1.453650119281156E-111
   53.2950000000000         8.252475285325116E-112
   53.4850000000000        -6.771717652469829E-112
   53.6750000000000        -3.543581368845485E-111
   53.8650000000000        -8.395402143558487E-111
   54.0550000000000        -1.595187600040017E-110
   54.2450000000000        -2.693682269097484E-110
   54.4350000000000        -4.189136429202596E-110
   54.6250000000000        -6.084914266754285E-110
   54.8150000000000        -8.282407535088418E-110
   55.0050000000000        -1.050609966623740E-109
   55.1950000000000        -1.220130917272141E-109
   55.3850000000000        -1.240460961916423E-109
   55.5750000000000        -9.594005070590247E-110
   55.7650000000000        -1.537989454162917E-110
   55.9550000000000         1.481873532234139E-109
   56.1450000000000         4.336839065782764E-109
   56.3350000000000         8.865202933295936E-109
   56.5250000000000         1.553264327324350E-108
   56.7150000000000         2.470938506913907E-108
   56.9050000000000         3.648573702289538E-108
   57.0950000000000         5.038374177142399E-108
   57.2850000000000         6.493988541785011E-108
   57.4750000000000         7.714280635806491E-108
   57.6650000000000         8.173130352959965E-108
   57.8550000000000         7.039771772562305E-108
   58.0450000000000         3.100692663596778E-108
   58.2350000000000        -5.296122725083197E-108
   58.4250000000000        -2.024029254509442E-107
   58.6150000000000        -4.414977223066739E-107
   58.8050000000000        -7.948106877387904E-107
   58.9950000000000        -1.281655355828212E-106
   59.1850000000000        -1.906608143078945E-106
   59.3750000000000        -2.645002734552025E-106
   59.5650000000000        -3.422400189357908E-106
   59.7550000000000        -4.087590690865712E-106
   59.9450000000000        -4.379848610437964E-106
   60.1350000000000        -3.893187239110578E-106
   60.3250000000000        -2.043511607773525E-106
   60.5150000000000         1.950920860700890E-106
   60.7050000000000         9.059343806906384E-106
   60.8950000000000         2.037494592385778E-105
   61.0850000000000         3.696625303261950E-105
   61.2750000000000         5.960426181766611E-105
   61.4650000000000         8.832149513812670E-105
   61.6550000000000         1.217607919560590E-104
   61.8450000000000         1.562846069113667E-104
   62.0350000000000         1.848464891106497E-104
   62.2250000000000         1.956832520232853E-104
   62.4150000000000         1.709778565666506E-104
   62.6050000000000         8.577718829900304E-105
   62.7950000000000        -9.236951629072747E-105
   62.9850000000000        -4.023590800539542E-104
   63.1750000000000        -8.861196892173020E-104
   63.3650000000000        -1.581628664518924E-103
   63.5550000000000        -2.510967451899301E-103
   63.7450000000000        -3.661987587837245E-103
   63.9350000000000        -4.962428848855785E-103
   64.1250000000000        -6.246080844349924E-103
   64.3150000000000        -7.212036783155222E-103
   64.5050000000000        -7.380500601740573E-103
   64.6950000000000        -6.052208894202315E-103
   64.8850000000000        -2.283471004671309E-103
   65.0750000000000         5.104908475307457E-103
   65.2650000000000         1.745931573574912E-102
   65.4550000000000         3.613270534762944E-102
   65.6450000000000         6.219269076256413E-102
   65.8350000000000         9.595706024970123E-102
   66.0250000000000         1.363203540179215E-101
   66.2150000000000         1.798519201833527E-101
   66.4050000000000         2.196801643054487E-101
   66.5950000000000         2.442357714275851E-101
   66.7850000000000         2.360144594615631E-101
   66.9750000000000         1.706414390872352E-101
   67.1650000000000         1.667520441823006E-102
   67.3550000000000        -2.632297277334831E-101
   67.5450000000000        -7.089915446820491E-101
   67.7350000000000        -1.356628267353829E-100
   67.9250000000000        -2.227588284252794E-100
   68.1150000000000        -3.312908395994763E-100
   68.3050000000000        -4.551569111140321E-100
   68.4950000000000        -5.803157806011743E-100
   68.6850000000000        -6.816228653138133E-100
   68.8750000000000        -7.195699801295184E-100
   69.0650000000000        -6.375349609437883E-100
   69.2550000000000        -3.604972596160262E-100
   69.4450000000000         2.034115636970859E-100
   69.6350000000000         1.156716397521489E-099
   69.8250000000000         2.599570888567648E-099
   70.0150000000000         4.607471994291294E-099
   70.2050000000000         7.197397869465128E-099
   70.3950000000000         1.028070080888980E-098
   70.5850000000000         1.360255221275473E-098
   70.7750000000000         1.667031031944279E-098
   70.9650000000000         1.867714518757768E-098
   71.1550000000000         1.843281241808066E-098
   71.3450000000000         1.432064621265304E-098
   71.5350000000000         4.308368469568503E-099
   71.7250000000000        -1.395055508439818E-098
   71.9150000000000        -4.287992026152233E-098
   72.1050000000000        -8.455767579205116E-098
   72.2950000000000        -1.400569795282831E-097
   72.4850000000000        -2.085127581180581E-097
   72.6750000000000        -2.859015273673347E-097
   72.8650000000000        -3.635695724917689E-097
   73.0550000000000        -4.266181978915725E-097
   73.2450000000000        -4.523585723968199E-097
   73.4350000000000        -4.091835231640581E-097
   73.6250000000000        -2.563648508560278E-097
   73.8150000000000         5.454049098029514E-098
   74.0050000000000         5.758278632550271E-097
   74.1950000000000         1.356363590421642E-096
   74.3850000000000         2.429911776122840E-096
   74.5750000000000         3.798262841605234E-096
   74.7650000000000         5.408789096772951E-096
   74.9550000000000         7.126846673688416E-096
   75.1450000000000         8.704693327998990E-096
   75.3350000000000         9.750368984710663E-096
   75.5250000000000         9.702310380025201E-096
   75.7150000000000         7.818274249031184E-096
   75.9050000000000         3.190223195866950E-096
   76.0950000000000        -5.200200765309415E-096
   76.2850000000000        -1.836874517343189E-095
   76.4750000000000        -3.714065597768852E-095
   76.6650000000000        -6.187246971976089E-095
   76.8550000000000        -9.207447330819229E-095
   77.0450000000000        -1.259369196712579E-094
   77.2350000000000        -1.597824898368328E-094
   77.4250000000000        -1.874953969020936E-094
   77.6150000000000        -2.000143830841316E-094
   77.8050000000000        -1.850218014408880E-094
   77.9950000000000        -1.270111447468459E-094
   78.1850000000000        -7.965201468799372E-096
   78.3750000000000         1.910825516205443E-094
   78.5650000000000         4.873127138086230E-094
   78.7550000000000         8.919419687731414E-094
   78.9450000000000         1.404415867500010E-093
   79.1350000000000         2.004952648935114E-093
   79.3250000000000         2.645692836248784E-093
   79.5150000000000         3.241110820493729E-093
   79.7050000000000         3.658882293422845E-093
   79.8950000000000         3.713066602165645E-093
   80.0850000000000         3.162220146614418E-093
   80.2750000000000         1.715832702450311E-093
   80.4650000000000        -9.468475912372015E-094
   80.6550000000000        -5.141139086818764E-093
   80.8450000000000        -1.112005745919349E-092
   81.0350000000000        -1.899282966697193E-092
   81.2250000000000        -2.861742127516936E-092
   81.4150000000000        -3.946922782197962E-092
   81.6050000000000        -5.049335883994724E-092
   81.7950000000000        -5.995514875513173E-092
   81.9850000000000        -6.531261413052334E-092
   82.1750000000000        -6.314515572282117E-092
   82.3650000000000        -4.918401959284175E-092
   82.5550000000000        -1.850042273938625E-092
   82.7450000000000         3.408536157585371E-092
   82.9350000000000         1.133092272339343E-091
   83.1250000000000         2.224262468815874E-091
   83.3150000000000         3.617970762912003E-091
   83.5050000000000         5.271038756123812E-091
   83.6950000000000         7.072648862972857E-091
   83.8850000000000         8.822051642535771E-091
   84.0750000000000         1.020755126252534E-090
   84.2650000000000         1.079085138642795E-090
   84.4550000000000         1.000234547959388E-090
   84.6450000000000         7.154414151052989E-091
   84.8350000000000         1.481003137742254E-091
   85.0250000000000        -7.787640435463286E-091
   85.2150000000000        -2.130663267412566E-090
   85.4050000000000        -3.944806854313394E-090
   85.5950000000000        -6.208024133148100E-090
   85.7850000000000        -8.829887354163138E-090
   85.9750000000000        -1.161246049712548E-089
   86.1650000000000        -1.421941029525826E-089
   86.3550000000000        -1.614883674921837E-089
   86.5450000000000        -1.671603368472928E-089
   86.7350000000000        -1.505432303599447E-089
   86.9250000000000        -1.014387260522182E-089
   87.1150000000000        -8.796514618515081E-091
   87.3050000000000         1.381006691492931E-089
   87.4950000000000         3.478454557401491E-089
   87.6850000000000         6.244416292117663E-089
   87.8750000000000         9.641648433311742E-089
   88.0650000000000         1.351843900485756E-088
   88.2550000000000         1.756794742804525E-088
   88.4450000000000         2.128814694074501E-088
   88.6350000000000         2.394853812353747E-088
   88.8250000000000         2.457211064532128E-088
   89.0150000000000         2.194333491594985E-088
   89.2050000000000         1.465493395478959E-088
   89.3950000000000         1.207363176807185E-089
   89.5850000000000        -1.982526497152301E-088
   89.7750000000000        -4.955131264185487E-088
   89.9650000000000        -8.843332872025841E-088
   90.1550000000000        -1.358773970398668E-087
   90.3450000000000        -1.897548164358914E-087
   90.5350000000000        -2.458878913956438E-087
   90.7250000000000        -2.975530261383107E-087
   90.9150000000000        -3.350792968679278E-087
   91.1050000000000        -3.456475935662273E-087
   91.2950000000000        -3.134215639726508E-087
   91.4850000000000        -2.201630085611208E-087
   91.6750000000000        -4.649580141894914E-088
   91.8650000000000         2.260226685406590E-087
   92.0550000000000         6.118926362100567E-087
   92.2450000000000         1.117656869807735E-086
   92.4350000000000         1.736911260196424E-086
   92.6250000000000         2.444519449524999E-086
   92.8150000000000         3.190405090477534E-086
   93.0050000000000         3.893537469817913E-086
   93.1950000000000         4.437006388274019E-086
   93.3850000000000         4.665382250448817E-086
   93.5750000000000         4.385847908137470E-086
   93.7650000000000         3.374827712202100E-086
   93.9550000000000         1.391970750289824E-086
   94.1450000000000        -1.796699124360092E-086
   94.3350000000000        -6.384952783083748E-086
   94.5250000000000        -1.248096825302006E-085
   94.7150000000000        -2.005056534268789E-085
   94.9050000000000        -2.885078216163242E-085
   95.0950000000000        -3.835757458614295E-085
   95.2850000000000        -4.769399044440112E-085
   95.4750000000000        -5.556817019014342E-085
   95.6650000000000        -6.023378457304515E-085
   95.8550000000000        -5.948875540420112E-085
   96.0450000000000        -5.073090765393966E-085
   96.2350000000000        -3.109102168919796E-085
   96.4250000000000         2.336089688477231E-086
   96.6150000000000         5.214416165692724E-085
   96.8050000000000         1.201390372350490E-084
   96.9950000000000         2.067303723581713E-084
   97.1850000000000         3.102034688958171E-084
   97.3750000000000         4.259035376337309E-084
   97.5650000000000         5.453906314805448E-084
   97.7550000000000         6.556545478376376E-084
   97.9450000000000         7.385138416655829E-084
   98.1350000000000         7.703593160571397E-084
   98.3250000000000         7.224362929951161E-084
   98.5150000000000         5.618865178957329E-084
   98.7050000000000         2.537831413109874E-084
   98.8950000000000        -2.356171189509988E-084
   99.0850000000000        -9.342208736471504E-084
   99.2750000000000        -1.857941221764325E-083
   99.4650000000000        -3.003065283949864E-083
   99.6550000000000        -4.337362827718975E-083
   99.8450000000000        -5.790403622267855E-083
   100.035000000000        -7.243863842466732E-083
   100.225000000000        -8.522968254538310E-083
   100.415000000000        -9.390617016692014E-083
   100.605000000000        -9.546153117794076E-083
   100.795000000000        -8.631093338683431E-083
   100.985000000000        -6.244410329815195E-083
   101.175000000000        -1.970037313439067E-083
   101.365000000000         4.580924053835019E-083
   101.555000000000         1.371138370114155E-082
   101.745000000000         2.556198463717848E-082
   101.935000000000         4.001817721882239E-082
   102.125000000000         5.660379322514895E-082
   102.315000000000         7.436732226352304E-082
   102.505000000000         9.177084472799579E-082
   102.695000000000         1.065959066963666E-081
   102.885000000000         1.158852930527542E-081
   103.075000000000         1.159442737635766E-081
   103.265000000000         1.024288955528285E-081
   103.455000000000         7.055150578811220E-082
   103.645000000000         1.543397398211989E-082
   103.835000000000        -6.736410219713433E-082
   104.025000000000        -1.811227888851883E-081
   104.215000000000        -3.270392002342964E-081
   104.405000000000        -5.031201514089876E-081
   104.595000000000        -7.029341212924829E-081
   104.785000000000        -9.143034632151341E-081
   104.975000000000        -1.118062231251515E-080
   105.165000000000        -1.287055173907021E-080
   105.355000000000        -1.385606101658587E-080
   105.545000000000        -1.369733863262813E-080
   105.735000000000        -1.188434433772456E-080
   105.925000000000        -7.863688691915834E-081
   106.115000000000        -1.082878757687361E-081
   106.305000000000         8.945283181065135E-081
   106.495000000000         2.255644734704222E-080
   106.685000000000         3.982669184407668E-080
   106.875000000000         6.044538992042274E-080
   107.065000000000         8.357507653482334E-080
   107.255000000000         1.077087082143157E-079
   107.445000000000         1.305397157390757E-079
   107.635000000000         1.488657078501929E-079
   107.825000000000         1.585521567801995E-079
   108.015000000000         1.545872450884372E-079
   108.205000000000         1.312624285842961E-079
   108.395000000000         8.251411767820021E-080
   108.585000000000         2.458974217263065E-081
   108.775000000000        -1.138526633975082E-079
   108.965000000000        -2.694550919320752E-079
   109.155000000000        -4.642690711712602E-079
   109.345000000000        -6.937291575634314E-079
   109.535000000000        -9.473171599874978E-079
   109.725000000000        -1.207128563865693E-078
   109.915000000000        -1.446650546471140E-078
   110.105000000000        -1.629983932146675E-078