  -1.42500000000000         0.000000000000000E+000
  -1.23500000000000         0.000000000000000E+000
  -1.04500000000000         0.000000000000000E+000
 -0.855000000000000         0.000000000000000E+000
 -0.665000000000000         0.000000000000000E+000
 -0.475000000000000         0.000000000000000E+000
 -0.285000000000000         0.000000000000000E+000
 -9.499999999999975E-002    0.000000000000000E+000
  9.500000000000020E-002    0.000000000000000E+000
  0.285000000000000         0.000000000000000E+000
  0.475000000000000         0.000000000000000E+000
  0.665000000000000         0.000000000000000E+000
  0.855000000000000         0.000000000000000E+000
   1.04500000000000         0.000000000000000E+000
   1.23500000000000         0.000000000000000E+000
   1.42500000000000         0.000000000000000E+000
   1.61500000000000         0.000000000000000E+000
   1.80500000000000         0.000000000000000E+000
   1.99500000000000         0.000000000000000E+000
   2.18500000000000         0.000000000000000E+000
   2.37500000000000         0.000000000000000E+000
   2.56500000000000         0.000000000000000E+000
   2.75500000000000         0.000000000000000E+000
   2.94500000000000         0.000000000000000E+000
   3.13500000000000         0.000000000000000E+000
   3.32500000000000         0.000000000000000E+000
   3.51500000000000         0.000000000000000E+000
   3.70500000000000         0.000000000000000E+000
   3.89500000000000         0.000000000000000E+000
   4.08500000000000         0.000000000000000E+000
   4.27500000000000         0.000000000000000E+000
   4.46500000000000         0.000000000000000E+000
   4.65500000000000         0.000000000000000E+000
   4.84500000000000         0.000000000000000E+000
   5.03500000000000         0.000000000000000E+000
   5.22500000000000         0.000000000000000E+000
   5.41500000000000         0.000000000000000E+000
   5.60500000000000         0.000000000000000E+000
   5.79500000000000         0.000000000000000E+000
   5.98500000000000         0.000000000000000E+000
   6.17500000000000         0.000000000000000E+000
   6.36500000000000         0.000000000000000E+000
   6.55500000000000         0.000000000000000E+000
   6.74500000000000         0.000000000000000E+000
   6.93500000000000         0.000000000000000E+000
   7.12500000000000         0.000000000000000E+000
   7.31500000000000         0.000000000000000E+000
   7.50500000000000         0.000000000000000E+000
   7.69500000000000         0.000000000000000E+000
   7.88500000000000         0.000000000000000E+000
   8.07500000000000         0.000000000000000E+000
   8.26500000000000         1.438946920228153E-219
   8.45500000000000        -7.838410879081727E-218
   8.64500000000000         1.143515088746608E-213
   8.83500000000000        -3.370057254500388E-210
   9.02500000000000        -1.299131138701379E-202
   9.21500000000000        -5.042401269999447E-199
   9.40500000000000         2.312505559420291E-196
   9.59500000000000         2.640371964966644E-194
   9.78500000000000         1.133819479935722E-192
   9.97500000000000         2.072805759801309E-191
   10.1650000000000        -2.236714392990527E-190
   10.3550000000000        -2.714722824792664E-188
   10.5450000000000        -9.972427147234862E-187
   10.7350000000000        -2.510817129582865E-185
   10.9250000000000        -4.994473338356297E-184
   11.1150000000000        -8.326787210262272E-183
   11.3050000000000        -1.202448445798895E-181
   11.4950000000000        -1.536407963646368E-180
   11.6850000000000        -1.763380427575232E-179
   11.8750000000000        -1.838641710671232E-178
   12.0650000000000        -1.757087744517712E-177
   12.2550000000000        -1.549924804618827E-176
   12.4450000000000        -1.269296752971632E-175
   12.6350000000000        -9.696856700043102E-175
   12.8250000000000        -6.938127674647502E-174
   13.0150000000000        -4.664740822165179E-173
   13.2050000000000        -2.954960545299053E-172
   13.3950000000000        -1.767375057198533E-171
   13.5850000000000        -9.995803388159892E-171
   13.7750000000000        -5.350536000091275E-170
   13.9650000000000        -2.710872102353407E-169
   14.1550000000000        -1.298823278219976E-168
   14.3450000000000        -5.870485442877261E-168
   14.5350000000000        -2.491194479936933E-167
   14.7250000000000        -9.836794984733635E-167
   14.9150000000000        -3.551556111220904E-166
   15.1050000000000        -1.128495326623377E-165
   15.2950000000000        -2.834595996409423E-165
   15.4850000000000        -3.023015456257356E-165
   15.6750000000000         2.493219055188340E-164
   15.8650000000000         2.504599918995340E-163
   16.0550000000000         1.565071391151174E-162
   16.2450000000000         8.178413375477560E-162
   16.4350000000000         3.852737718040722E-161
   16.6250000000000         1.687831032196782E-160
   16.8150000000000         6.987788695565230E-160
   17.0050000000000         2.760303065460523E-159
   17.1950000000000         1.046869949678391E-158
   17.3850000000000         3.828659675835937E-158
   17.5750000000000         1.354636653000218E-157
   17.7650000000000         4.648428532929279E-157
   17.9550000000000         1.550130939091862E-156
   18.1450000000000         5.031925403178358E-156
   18.3350000000000         1.592305632814545E-155
   18.5250000000000         4.918113645945281E-155
   18.7150000000000         1.484430019048115E-154
   18.9050000000000         4.383242997024444E-154
   19.0950000000000         1.267612441921946E-153
   19.2850000000000         3.594388654393482E-153
   19.4750000000000         1.000534237785104E-152
   19.6650000000000         2.737610544090432E-152
   19.8550000000000         7.373362383782218E-152
   20.0450000000000         1.957950465609691E-151
   20.2350000000000         5.134966711145185E-151
   20.4250000000000         1.332580411358367E-150
   20.6150000000000         3.428708192094299E-150
   20.8050000000000         8.764239611374699E-150
   20.9950000000000         2.229770145093491E-149
   21.1850000000000         5.655475797126451E-149
   21.3750000000000         1.431735229351754E-148
   21.5650000000000         3.620181136630702E-148
   21.7550000000000         9.143319247181075E-148
   21.9450000000000         2.305502455854065E-147
   22.1350000000000         5.798118082844438E-147
   22.3250000000000         1.452413940815594E-146
   22.5150000000000         3.618402759252962E-146
   22.7050000000000         8.951388533050114E-146
   22.8950000000000         2.195671421698248E-145
   23.0850000000000         5.332982894300879E-145
   23.2750000000000         1.281166150909731E-144
   23.4650000000000         3.041372870360347E-144
   23.6550000000000         7.129303073091214E-144
   23.8450000000000         1.649311333171616E-143
   24.0350000000000         3.764201514589849E-143
   24.2250000000000         8.473370658694432E-143
   24.4150000000000         1.881066253529152E-142
   24.6050000000000         4.118252736617630E-142
   24.7950000000000         8.892372969171604E-142
   24.9850000000000         1.894024057660887E-141
   25.1750000000000         3.980261890712979E-141
   25.3650000000000         8.254958440319214E-141
   25.5550000000000         1.690182077240630E-140
   25.7450000000000         3.417598755539170E-140
   25.9350000000000         6.827189183390724E-140
   26.1250000000000         1.347924570520422E-139
   26.3150000000000         2.631238182320490E-139
   26.5050000000000         5.080243956480825E-139
   26.6950000000000         9.704637070600142E-139
   26.8850000000000         1.834661466395710E-138
   27.0750000000000         3.433093084005658E-138
   27.2650000000000         6.358964336646829E-138
   27.4550000000000         1.165763991568997E-137
   27.6450000000000         2.114614464264385E-137
   27.8350000000000         3.793388124974023E-137
   28.0250000000000         6.724628935765569E-137
   28.2150000000000         1.176776587436016E-136
   28.4050000000000         2.029955733622265E-136
   28.5950000000000         3.445311856676435E-136
   28.7850000000000         5.738976105003045E-136
   28.9750000000000         9.350476172969064E-136
   29.1650000000000         1.483068853261720E-135
   29.3550000000000         2.273823102119674E-135
   29.5450000000000         3.332183575440725E-135
   29.7350000000000         4.574895255553620E-135
   29.9250000000000         5.643220983485595E-135
   30.1150000000000         5.564631878704479E-135
   30.3050000000000         2.102841662895424E-135
   30.4950000000000        -9.441866514447973E-135
   30.6850000000000        -3.837394864393174E-134
   30.8750000000000        -1.023144515961590E-133
   31.0650000000000        -2.334680568297780E-133
   31.2550000000000        -4.889504630320054E-133
   31.4450000000000        -9.674230729813706E-133
   31.6350000000000        -1.835310294031800E-132
   31.8250000000000        -3.367257504024323E-132
   32.0150000000000        -6.007282228113014E-132
   32.2050000000000        -1.045929860416383E-131
   32.3950000000000        -1.781829496636362E-131
   32.5850000000000        -2.975619457497954E-131
   32.7750000000000        -4.877881809130441E-131
   32.9650000000000        -7.857138718054088E-131
   33.1550000000000        -1.244478524709071E-130
   33.3450000000000        -1.939109313875685E-130
   33.5350000000000        -2.973101340933151E-130
   33.7250000000000        -4.485464377205544E-130
   33.9150000000000        -6.657026138371785E-130
   34.1050000000000        -9.713589989529143E-130
   34.2950000000000        -1.392156605837587E-129
   34.4850000000000        -1.956845239514534E-129
   34.6750000000000        -2.691521660918676E-129
   34.8650000000000        -3.609874337841782E-129
   35.0550000000000        -4.694735329752919E-129
   35.2450000000000        -5.864595624882297E-129
   35.4350000000000        -6.914061479162296E-129
   35.6250000000000        -7.408929553187567E-129
   35.8150000000000        -6.501983774558174E-129
   36.0050000000000        -2.610571873013795E-129
   36.1950000000000         7.144664252435945E-129
   36.3850000000000         2.790706984553244E-128
   36.5750000000000         6.872516721311061E-128
   36.7650000000000         1.452779478978065E-127
   36.9550000000000         2.842766792924068E-127
   37.1450000000000         5.303335052621899E-127
   37.3350000000000         9.562303814060637E-127
   37.5250000000000         1.677458111011000E-126
   37.7150000000000         2.871339348366245E-126
   37.9050000000000         4.799521921999695E-126
   38.0950000000000         7.829394755031001E-126
   38.2850000000000         1.244401387060045E-125
   38.4750000000000         1.922015788384958E-125
   38.6650000000000         2.873882604553961E-125
   38.8550000000000         4.137086966943391E-125
   39.0450000000000         5.685262398799765E-125
   39.2350000000000         7.353465649968484E-125
   39.4250000000000         8.715675886364663E-125
   39.6150000000000         8.898416047014146E-125
   39.8050000000000         6.314780735120523E-125
   39.9950000000000        -1.691954592505189E-125
   40.1850000000000        -1.929624815925237E-124
   40.3750000000000        -5.271800642282959E-124
   40.5650000000000        -1.108092586011519E-123
   40.7550000000000        -2.056888782037522E-123
   40.9450000000000        -3.534702509950610E-123
   41.1350000000000        -5.752664122169241E-123
   41.3250000000000        -8.989195749814561E-123
   41.5150000000000        -1.362296443713834E-122
   41.7050000000000        -2.019427910782210E-122
   41.8950000000000        -2.950931420805819E-122
   42.0850000000000        -4.279258909648197E-122
   42.2750000000000        -6.185778042424086E-122
   42.4650000000000        -8.917643580876027E-122
   42.6550000000000        -1.275310665378301E-121
   42.8450000000000        -1.785722233711312E-121
   43.0350000000000        -2.389626818529856E-121
   43.2250000000000        -2.917758090865305E-121
   43.4150000000000        -2.893293742287548E-121
   43.6050000000000        -1.216866852990960E-121
   43.7950000000000         4.371067908019315E-121
   43.9850000000000         1.814616734177480E-120
   44.1750000000000         4.766475239300734E-120
   44.3650000000000         1.054692768949417E-119
   44.5550000000000         2.111031365915993E-119
   44.7450000000000         3.929497421933273E-119
   44.9350000000000         6.887459635779424E-119
   45.1250000000000         1.142482904645758E-118
   45.3150000000000         1.793610131528712E-118
   45.5050000000000         2.651830709758446E-118
   45.6950000000000         3.647247821752571E-118
   45.8850000000000         4.541410393398283E-118
   46.0750000000000         4.780680111824605E-118
   46.2650000000000         3.271088127091004E-118
   46.4550000000000        -1.943111136537411E-118
   46.6450000000000        -1.410076567163095E-117
   46.8350000000000        -3.821392588001669E-117
   47.0250000000000        -8.152690146247359E-117
   47.2150000000000        -1.537234908805594E-116
   47.4050000000000        -2.664663365353875E-116
   47.5950000000000        -4.315602195773797E-116
   47.7850000000000        -6.566264810044529E-116
   47.9750000000000        -9.366642157021005E-116
   48.1650000000000        -1.239306201410810E-115
   48.3550000000000        -1.481086795655109E-115
   48.5450000000000        -1.491893729325536E-115
   48.7350000000000        -9.654491804519248E-116
   48.9250000000000         6.040824890799094E-116
   49.1150000000000         3.994306024360866E-115
   49.3050000000000         1.032136637631378E-114
   49.4950000000000         2.107163920486603E-114
   49.6850000000000         3.804502543317868E-114
   49.8750000000000         6.312274284168501E-114
   50.0650000000000         9.772801023697391E-114
   50.2550000000000         1.417950641376248E-113
   50.4450000000000         1.920081107892325E-113
   50.6350000000000         2.390335754687336E-113
   50.8250000000000         2.634764546568551E-113
   51.0150000000000         2.303940085445919E-113
   51.2050000000000         8.247168700063192E-114
   51.3950000000000        -2.674896147856647E-113
   51.5850000000000        -9.431771012505187E-113
   51.7750000000000        -2.107358199931164E-112
   51.9650000000000        -3.955155164444089E-112
   52.1550000000000        -6.689707602456441E-112
   52.3450000000000        -1.046821836554559E-111
   52.5350000000000        -1.530229675740550E-111
   52.7250000000000        -2.089289640950977E-111
   52.9150000000000        -2.637857876800193E-111
   53.1050000000000        -2.997896527036155E-111
   53.2950000000000        -2.852710872483458E-111
   53.4850000000000        -1.691079504834436E-111
   53.6750000000000         1.250916884979180E-111
   53.8650000000000         7.035721637683650E-111
   54.0550000000000         1.703139609110020E-110
   54.2450000000000         3.283733320337901E-110
   54.4350000000000         5.606520694842440E-110
   54.6250000000000         8.788793476776668E-110
   54.8150000000000         1.282461258895922E-109
   55.0050000000000         1.745858557711559E-109
   55.1950000000000         2.200057540183817E-109
   55.3850000000000         2.507339240222430E-109
   55.5750000000000         2.429624406312495E-109
   55.7650000000000         1.592733807295225E-109
   55.9550000000000        -5.476389753933564E-110
   56.1450000000000        -4.727173634057605E-109
   56.3350000000000        -1.186290509168849E-108
   56.5250000000000        -2.298383646065075E-108
   56.7150000000000        -3.906271887302958E-108
   56.9050000000000        -6.069782453589695E-108
   57.0950000000000        -8.758428119987343E-108
   57.2850000000000        -1.177125329210436E-107
   57.4750000000000        -1.462441544930150E-107
   57.6650000000000        -1.640530744380081E-107
   57.8550000000000        -1.559969566086959E-107
   58.0450000000000        -9.911534371628800E-108
   58.2350000000000         3.884479727712872E-108
   58.4250000000000         2.998852426849458E-107
   58.6150000000000         7.341223841323117E-107
   58.8050000000000         1.394533189872428E-106
   58.9950000000000         2.326064592497995E-106
   59.1850000000000         3.546670313629220E-106
   59.3750000000000         5.017655200963681E-106
   59.5650000000000         6.601017541770104E-106
   59.7550000000000         8.002650960241927E-106
   59.9450000000000         8.702777032997154E-106
   60.1350000000000         7.879395787785387E-106
   60.3250000000000         4.337461178185122E-106
   60.5150000000000        -3.533582618035489E-106
   60.7050000000000        -1.773812275915425E-105
   60.8950000000000        -4.053681140509662E-105
   61.0850000000000        -7.412401222400725E-105
   61.2750000000000        -1.200354214306604E-104
   61.4650000000000        -1.781921011006960E-104
   61.6550000000000        -2.454930761544189E-104
   61.8450000000000        -3.139007197533584E-104
   62.0350000000000        -3.680361002059250E-104
   62.2250000000000        -3.824327608980110E-104
   62.4150000000000        -3.188054728059970E-104
   62.6050000000000        -1.239911523618248E-104
   62.7950000000000         2.703802921164293E-104
   62.9850000000000         9.449368387120254E-104
   63.1750000000000         1.984247093924205E-103
   63.3650000000000         3.460535817447890E-103
   63.5550000000000         5.406500580628397E-103
   63.7450000000000         7.774364232187530E-103
   63.9350000000000         1.037907566038868E-102
   64.1250000000000         1.282546555990228E-102
   64.3150000000000         1.442265429964611E-102
   64.5050000000000         1.409460181303460E-102
   64.6950000000000         1.030382459982733E-102
   64.8850000000000         1.016204267759817E-103
   65.0750000000000        -1.625174367084698E-102
   65.2650000000000        -4.424674354538311E-102
   65.4550000000000        -8.558284007569490E-102
   65.6450000000000        -1.420543056385411E-101
   65.8350000000000        -2.135751829370832E-101
   66.0250000000000        -2.966798616658576E-101
   66.2150000000000        -3.825631111892834E-101
   66.4050000000000        -4.547213147221910E-101
   66.5950000000000        -4.863918168130348E-101
   66.7850000000000        -4.381853350138415E-101
   66.9750000000000        -2.565732843023030E-101
   67.1650000000000         1.257765694260122E-101
   67.3550000000000         7.864476728634539E-101
   67.5450000000000         1.804765086515755E-100
   67.7350000000000         3.246300770358089E-100
   67.9250000000000         5.138287369920854E-100
   68.1150000000000         7.434139542267356E-100
   68.3050000000000         9.966196403457943E-100
   68.4950000000000         1.238758871216810E-099
   68.6850000000000         1.410708245550237E-099
   68.8750000000000         1.422510863694468E-099
   69.0650000000000         1.148510445161077E-099
   69.2550000000000         4.261698829947735E-100
   69.4450000000000        -9.384242782259203E-100
   69.6350000000000        -3.154508705269635E-099
   69.8250000000000        -6.415470170232452E-099
   70.0150000000000        -1.084768034593565E-098
   70.2050000000000        -1.643493051374097E-098
   70.3950000000000        -2.291574798459139E-098
   70.5850000000000        -2.965433722681717E-098
   70.7750000000000        -3.549170366536064E-098
   70.9650000000000        -3.859221595169902E-098
   71.1550000000000        -3.631277642979745E-098
   71.3450000000000        -2.513683314315556E-098
   71.5350000000000        -7.329466365112599E-100
   71.7250000000000         4.178420200579932E-098
   71.9150000000000         1.072966744563869E-097
   72.1050000000000         1.997276367759342E-097
   72.2950000000000         3.205899377264827E-097
   72.4850000000000         4.669691049429045E-097
   72.6750000000000         6.289310844076044E-097
   72.8650000000000         7.864488518514791E-097
   73.0550000000000         9.060997577852471E-097
   73.2450000000000         9.380041067001979E-097
   73.4350000000000         8.137551722050446E-097
   73.6250000000000         4.464203168883964E-097
   73.8150000000000        -2.659562072573640E-097
   74.0050000000000        -1.431597305042681E-096
   74.1950000000000        -3.149021962105201E-096
   74.3850000000000        -5.481910583559885E-096
   74.5750000000000        -8.423243513424797E-096
   74.7650000000000        -1.184808348628383E-095
   74.9550000000000        -1.545604846869004E-095
   75.1450000000000        -1.870712262279827E-095
   75.3350000000000        -2.075811501475474E-095
   75.5250000000000        -2.041182792361068E-095
   75.7150000000000        -1.609668971461586E-095
   75.9050000000000        -5.900823596915265E-096
   76.0950000000000         1.230952018516793E-095
   76.2850000000000         4.065278831927704E-095
   76.4750000000000         8.084064930739451E-095
   76.6650000000000         1.336010951523223E-094
   76.8550000000000         1.978978510950086E-094
   77.0450000000000         2.699522228855220E-094
   77.2350000000000         3.421125085740343E-094
   77.4250000000000         4.016721136227028E-094
   77.6150000000000         4.298114798497715E-094
   77.8050000000000         4.009292603007289E-094
   77.9950000000000         2.827293643613471E-094
   78.1850000000000         3.753175970074541E-095
   78.3750000000000        -3.746412953970261E-094
   78.5650000000000        -9.906110250132392E-094
   78.7550000000000        -1.835663116399374E-093
   78.9450000000000        -2.911840951809291E-093
   79.1350000000000        -4.182826706263944E-093
   79.3250000000000        -5.555856353554983E-093
   79.5150000000000        -6.861896760355623E-093
   79.7050000000000        -7.836368314856756E-093
   79.8950000000000        -8.104013163578588E-093
   80.0850000000000        -7.173024177189990E-093
   80.2750000000000        -4.445129004434272E-093
   80.4650000000000         7.502586516426542E-094
   80.6550000000000         9.088785979336381E-093
   80.8450000000000         2.114179546209627E-092
   81.0350000000000         3.721736829433360E-092
   81.2250000000000         5.714798579467318E-092
   81.4150000000000         8.002753426679722E-092
   81.6050000000000         1.039103308801763E-091
   81.7950000000000         1.254986366683187E-091
   81.9850000000000         1.398627572891313E-091
   82.1750000000000         1.402587026763415E-091
   82.3650000000000         1.181309937028807E-091
   82.5550000000000         6.340993221908315E-092
   82.7450000000000        -3.477052506539738E-092
   82.9350000000000        -1.868017702161258E-091
   83.1250000000000        -4.006550277323838E-091
   83.3150000000000        -6.791768419159536E-091
   83.5050000000000        -1.016612749292037E-090
   83.6950000000000        -1.394461227467413E-090
   83.8850000000000        -1.776924687654503E-090
   84.0750000000000        -2.106441079954373E-090
   84.2650000000000        -2.300044118498984E-090
   84.4550000000000        -2.247597744910265E-090
   84.6450000000000        -1.813253501308955E-090
   84.8350000000000        -8.417439247180860E-091
   85.0250000000000         8.287116748221584E-091
   85.2150000000000         3.345132281980097E-090
   85.4050000000000         6.808675394360112E-090
   85.5950000000000         1.123294905604610E-089
   85.7850000000000         1.649216628054846E-089
   85.9750000000000         2.226136206287691E-089
   86.1650000000000         2.795333354639515E-089
   86.3550000000000         3.266004138565026E-089
   86.5450000000000         3.510980768017802E-089
   86.7350000000000         3.365550411795449E-089
   86.9250000000000         2.631260548016499E-089
   87.1150000000000         1.086884195608938E-089
   87.3050000000000        -1.491165126079810E-089
   87.4950000000000        -5.296839993116969E-089
   87.6850000000000        -1.044932210835174E-088
   87.8750000000000        -1.693427435677170E-088
   88.0650000000000        -2.453276895710128E-088
   88.2550000000000        -3.274168101293641E-088
   88.4450000000000        -4.069261615186195E-088
   88.6350000000000        -4.708042895098907E-088
   88.8250000000000        -5.011687809606208E-088
   89.0150000000000        -4.752956659258691E-088
   89.2050000000000        -3.663042472593710E-088
   89.3950000000000        -1.448076077340134E-088
   89.5850000000000         2.181976518717781E-088
   89.7750000000000         7.469630550658063E-088
   89.9650000000000         1.454987993708727E-087
   90.1550000000000         2.337386849507679E-087
   90.3450000000000         3.361854244824642E-087
   90.5350000000000         4.458777245740203E-087
   90.7250000000000         5.511447372551383E-087
   90.9150000000000         6.347802241716676E-087
   91.1050000000000         6.735646768041244E-087
   91.2950000000000         6.383816296512419E-087
   91.4850000000000         4.952173613888583E-087
   91.6750000000000         2.073577225364685E-087
   91.8650000000000        -2.609106731353465E-087
   92.0550000000000        -9.388398304479616E-087
   92.2450000000000        -1.841858713963946E-086
   92.4350000000000        -2.962358578054896E-086
   92.6250000000000        -4.258951023182656E-086
   92.8150000000000        -5.644896006400901E-086
   93.0050000000000        -6.976858109888437E-086
   93.1950000000000        -8.045681675072501E-086
   93.3850000000000        -8.571442049127321E-086
   93.5750000000000        -8.205571749770082E-086
   93.7650000000000        -6.543292011087472E-086
   93.9550000000000        -3.149790824595930E-086
   94.1450000000000         2.396556949834905E-086
   94.3350000000000         1.044128640393501E-085
   94.5250000000000         2.116993766396205E-085
   94.7150000000000         3.450396714964247E-085
   94.9050000000000         4.998035302219656E-085
   95.0950000000000         6.662279666019090E-085
   95.2850000000000         8.281734298227237E-085
   95.4750000000000         9.621084579968486E-085
   95.6650000000000         1.036565856634717E-084
   95.8550000000000         1.012368764495308E-084
   96.0450000000000         8.439679283673242E-085
   96.2350000000000         4.822508054669823E-085
   96.4250000000000        -1.208348370958630E-085
   96.6150000000000        -1.005570494686627E-084
   96.8050000000000        -2.195535559976224E-084
   96.9950000000000        -3.686541060202400E-084
   97.1850000000000        -5.433826770080243E-084
   97.3750000000000        -7.338327503543864E-084
   97.5650000000000        -9.233309914797634E-084
   97.7550000000000        -1.087324298465560E-083
   97.9450000000000        -1.192735365301653E-083
   98.1350000000000        -1.198087242543852E-083
   98.3250000000000        -1.054740730371546E-083
   98.5150000000000        -7.096089447809488E-084
   98.7050000000000        -1.096980994747812E-084
   98.8950000000000         7.912419567670842E-084
   99.0850000000000         2.023804340171323E-083
   99.2750000000000         3.591804520999170E-083
   99.4650000000000         5.459305079241958E-083
   99.6550000000000         7.536527009849873E-083
   99.8450000000000         9.665862989274848E-083
   100.035000000000         1.160974873927562E-082
   100.225000000000         1.304272016476701E-082
   100.415000000000         1.355053105329146E-082
   100.605000000000         1.263965198878771E-082
   100.795000000000         9.760717062314953E-083
   100.985000000000         4.349412555892997E-083
   101.175000000000        -4.112221641123551E-083
   101.365000000000        -1.601221900544339E-082
   101.555000000000        -3.150281127329320E-082
   101.745000000000        -5.037486517496592E-082
   101.935000000000        -7.191875199078004E-082
   102.125000000000        -9.478210612439345E-082
   102.315000000000        -1.168399453468044E-081
   102.505000000000        -1.350980322023374E-081
   102.695000000000        -1.456556901087714E-081
   102.885000000000        -1.437588928794064E-081
   103.075000000000        -1.239774668018272E-081
   103.265000000000        -8.054063727405816E-082
   103.455000000000        -7.861728025644264E-083
   103.645000000000         9.872568131983479E-082
   103.835000000000         2.420126332842163E-081
   104.025000000000         4.217553155292450E-081
   104.215000000000         6.333558835858875E-081
   104.405000000000         8.664661804278145E-081
   104.595000000000         1.103641835598704E-080
   104.785000000000         1.319223897135147E-080
   104.975000000000         1.478675974313778E-080
   105.165000000000         1.538651531639596E-080
   105.355000000000         1.448101359307957E-080
   105.545000000000         1.150746482963347E-080
   105.735000000000         5.892265035878879E-081
   105.925000000000        -2.888237365229468E-081
   106.115000000000        -1.522626569233476E-080
   106.305000000000        -3.128074117403512E-080
   106.495000000000        -5.085776714124603E-080
   106.685000000000        -7.327940462484396E-080
   106.875000000000        -9.725053542671344E-080
   107.065000000000        -1.207380122672519E-079
   107.255000000000        -1.408809735835487E-079
   107.445000000000        -1.539557432190530E-079
   107.635000000000        -1.554225752919873E-079
   107.825000000000        -1.400839145503532E-079
   108.015000000000        -1.023839494252882E-079
   108.205000000000        -3.687605678319275E-080
   108.395000000000         6.112275249669010E-080
   108.585000000000         1.946840544059027E-079
   108.775000000000         3.642394220447384E-079
   108.965000000000         5.664089288022813E-079
   109.155000000000         7.927564587892467E-079
   109.345000000000         1.028578929156342E-078
   109.535000000000         1.251877674043769E-078
   109.725000000000         1.432702139623834E-078
   109.915000000000         1.533094365377174E-078
   110.105000000000         1.507891753022763E-078