  -1.42500000000000         0.000000000000000E+000
  -1.23500000000000         0.000000000000000E+000
  -1.04500000000000         0.000000000000000E+000
 -0.855000000000000         0.000000000000000E+000
 -0.665000000000000         0.000000000000000E+000
 -0.475000000000000         0.000000000000000E+000
 -0.285000000000000         0.000000000000000E+000
 -9.499999999999975E-002    0.000000000000000E+000
  9.500000000000020E-002    0.000000000000000E+000
  0.285000000000000         0.000000000000000E+000
  0.475000000000000         0.000000000000000E+000
  0.665000000000000         0.000000000000000E+000
  0.855000000000000         0.000000000000000E+000
   1.04500000000000         0.000000000000000E+000
   1.23500000000000         0.000000000000000E+000
   1.42500000000000         0.000000000000000E+000
   1.61500000000000         0.000000000000000E+000
   1.80500000000000         0.000000000000000E+000
   1.99500000000000         0.000000000000000E+000
   2.18500000000000         0.000000000000000E+000
   2.37500000000000         0.000000000000000E+000
   2.56500000000000         0.000000000000000E+000
   2.75500000000000         0.000000000000000E+000
   2.94500000000000         0.000000000000000E+000
   3.13500000000000         0.000000000000000E+000
   3.32500000000000         0.000000000000000E+000
   3.51500000000000         0.000000000000000E+000
   3.70500000000000         0.000000000000000E+000
   3.89500000000000         0.000000000000000E+000
   4.08500000000000         0.000000000000000E+000
   4.27500000000000         0.000000000000000E+000
   4.46500000000000         0.000000000000000E+000
   4.65500000000000         0.000000000000000E+000
   4.84500000000000         0.000000000000000E+000
   5.03500000000000         0.000000000000000E+000
   5.22500000000000         0.000000000000000E+000
   5.41500000000000         0.000000000000000E+000
   5.60500000000000         0.000000000000000E+000
   5.79500000000000         0.000000000000000E+000
   5.98500000000000         0.000000000000000E+000
   6.17500000000000         0.000000000000000E+000
   6.36500000000000         0.000000000000000E+000
   6.55500000000000         0.000000000000000E+000
   6.74500000000000         0.000000000000000E+000
   6.93500000000000         0.000000000000000E+000
   7.12500000000000         0.000000000000000E+000
   7.31500000000000         0.000000000000000E+000
   7.50500000000000         0.000000000000000E+000
   7.69500000000000         0.000000000000000E+000
   7.88500000000000         0.000000000000000E+000
   8.07500000000000         3.986002549108457E-218
   8.26500000000000        -2.251025003636388E-216
   8.45500000000000         3.168070071775927E-212
   8.64500000000000        -9.341674135905761E-209
   8.83500000000000        -3.598701028500824E-201
   9.02500000000000        -1.396067315167795E-197
   9.21500000000000         6.433764716978259E-195
   9.40500000000000         7.185793434253570E-193
   9.59500000000000         2.995133770615875E-191
   9.78500000000000         5.121003423210890E-190
   9.97500000000000        -7.312845845294820E-189
   10.1650000000000        -7.390348285797929E-187
   10.3550000000000        -2.612664625116156E-185
   10.5450000000000        -6.410203073304600E-184
   10.7350000000000        -1.247169623154282E-182
   10.9250000000000        -2.036842303015746E-181
   11.1150000000000        -2.883399376542954E-180
   11.3050000000000        -3.612867206916486E-179
   11.4950000000000        -4.066823599179911E-178
   11.6850000000000        -4.158808046517035E-177
   11.8750000000000        -3.897488107089245E-176
   12.0650000000000        -3.370896600614951E-175
   12.2550000000000        -2.706046175881009E-174
   12.4450000000000        -2.025832596831501E-173
   12.6350000000000        -1.419857620480899E-172
   12.8250000000000        -9.346492671014155E-172
   13.0150000000000        -5.793334231613551E-171
   13.2050000000000        -3.387895723989957E-170
   13.3950000000000        -1.871620312546463E-169
   13.5850000000000        -9.773165729028120E-169
   13.7750000000000        -4.821947191736153E-168
   13.9650000000000        -2.244194509003343E-167
   14.1550000000000        -9.816969796877148E-167
   14.3450000000000        -4.008254069760329E-166
   14.5350000000000        -1.507328135497920E-165
   14.7250000000000        -5.078439230658920E-165
   14.9150000000000        -1.430892116971004E-164
   15.1050000000000        -2.583825358129527E-164
   15.2950000000000         4.204103074620806E-164
   15.4850000000000         7.796018135176922E-163
   15.6750000000000         5.472925078656784E-162
   15.8650000000000         3.016852071756203E-161
   16.0550000000000         1.467792405837880E-160
   16.2450000000000         6.574964493241906E-160
   16.4350000000000         2.767500338901423E-159
   16.6250000000000         1.107313131018210E-158
   16.8150000000000         4.242461023731731E-158
   17.0050000000000         1.564230536127255E-157
   17.1950000000000         5.570498844945170E-157
   17.3850000000000         1.921306683658919E-156
   17.5750000000000         6.432191674549687E-156
   17.7650000000000         2.093930464836642E-155
   17.9550000000000         6.638521823511257E-155
   18.1450000000000         2.052447773097118E-154
   18.3350000000000         6.195830805080406E-154
   18.5250000000000         1.828359703990343E-153
   18.7150000000000         5.280316685658562E-153
   18.9050000000000         1.494201785102129E-152
   19.0950000000000         4.148166399590125E-152
   19.2850000000000         1.131351111076462E-151
   19.4750000000000         3.035958265815987E-151
   19.6650000000000         8.029572114643932E-151
   19.8550000000000         2.097061061668394E-150
   20.0450000000000         5.419396172587330E-150
   20.2350000000000         1.388870126565926E-149
   20.4250000000000         3.537518117706602E-149
   20.6150000000000         8.973417281286618E-149
   20.8050000000000         2.270894853263105E-148
   20.9950000000000         5.740607944811469E-148
   21.1850000000000         1.450462837772334E-147
   21.3750000000000         3.662765256620054E-147
   21.5650000000000         9.237374524297580E-147
   21.7550000000000         2.323702825708920E-146
   21.9450000000000         5.821177550843257E-146
   22.1350000000000         1.449696869341033E-145
   22.3250000000000         3.582788603618332E-145
   22.5150000000000         8.772844751689153E-145
   22.7050000000000         2.125301914164879E-144
   22.8950000000000         5.088030205566194E-144
   23.0850000000000         1.202594776230970E-143
   23.2750000000000         2.804262764462529E-143
   23.4650000000000         6.447987488310946E-143
   23.6550000000000         1.461462619361239E-142
   23.8450000000000         3.264568297938333E-142
   24.0350000000000         7.186368317690729E-142
   24.2250000000000         1.559036768003463E-141
   24.4150000000000         3.333676718639248E-141
   24.6050000000000         7.027517311538770E-141
   24.7950000000000         1.460871848998142E-140
   24.9850000000000         2.995709341574420E-140
   25.1750000000000         6.062212511230314E-140
   25.3650000000000         1.211126255534861E-139
   25.5550000000000         2.389835027949673E-139
   25.7450000000000         4.659761079094223E-139
   25.9350000000000         8.981900537290685E-139
   26.1250000000000         1.712210414456287E-138
   26.3150000000000         3.229064161662789E-138
   26.5050000000000         6.026003711797735E-138
   26.6950000000000         1.112904287877463E-137
   26.8850000000000         2.033888804083802E-137
   27.0750000000000         3.677118102579563E-137
   27.2650000000000         6.572865170088574E-137
   27.4550000000000         1.160617492496046E-136
   27.6450000000000         2.021947889236150E-136
   27.8350000000000         3.469438088869549E-136
   28.0250000000000         5.850127777847769E-136
   28.2150000000000         9.663862945340454E-136
   28.4050000000000         1.557276944232467E-135
   28.5950000000000         2.432986496599558E-135
   28.7850000000000         3.650514735843243E-135
   28.9750000000000         5.176488342609753E-135
   29.1650000000000         6.723906174325221E-135
   29.3550000000000         7.412914805071924E-135
   29.5450000000000         5.106681628582979E-135
   29.7350000000000        -4.830635794485401E-135
   29.9250000000000        -3.177049398097207E-134
   30.1150000000000        -9.371748229994287E-134
   30.3050000000000        -2.239035446408402E-133
   30.4950000000000        -4.816447078155229E-133
   30.6850000000000        -9.697623496604866E-133
   30.8750000000000        -1.861858788958219E-132
   31.0650000000000        -3.444011107163667E-132
   31.2550000000000        -6.177013954214348E-132
   31.4450000000000        -1.078710834074970E-131
   31.6350000000000        -1.839501354410229E-131
   31.8250000000000        -3.069466798050328E-131
   32.0150000000000        -5.019367456958798E-131
   32.2050000000000        -8.052576138916816E-131
   32.3950000000000        -1.268394251084802E-130
   32.5850000000000        -1.962527398257327E-130
   32.7750000000000        -2.983364424629249E-130
   32.9650000000000        -4.455372908900197E-130
   33.1550000000000        -6.533687985123352E-130
   33.3450000000000        -9.400588307225816E-130
   33.5350000000000        -1.325127449348827E-129
   33.7250000000000        -1.826035249013426E-129
   33.9150000000000        -2.451529335155453E-129
   34.1050000000000        -3.189507528225405E-129
   34.2950000000000        -3.985901019176555E-129
   34.4850000000000        -4.708802984132857E-129
   34.6750000000000        -5.087984917422835E-129
   34.8650000000000        -4.612418697729337E-129
   35.0550000000000        -2.354551335685351E-129
   35.2450000000000         3.335026062309665E-129
   35.4350000000000         1.536281939763792E-128
   35.6250000000000         3.883140866079392E-128
   35.8150000000000         8.267219177049805E-128
   36.0050000000000         1.624328039862986E-127
   36.1950000000000         3.049077414860591E-127
   36.3850000000000         5.555593289330108E-127
   36.5750000000000         9.898804242968885E-127
   36.7650000000000         1.729804728806219E-126
   36.9550000000000         2.965598187678196E-126
   37.1450000000000         4.981718841387547E-126
   37.3350000000000         8.180910068173493E-126
   37.5250000000000         1.309289495153210E-125
   37.7150000000000         2.034075723762339E-125
   37.9050000000000         3.051773571739217E-125
   38.0950000000000         4.389878898997619E-125
   38.2850000000000         5.987603594680576E-125
   38.4750000000000         7.597019801775353E-125
   38.6650000000000         8.624308759568577E-125
   38.8550000000000         7.893935442297609E-125
   39.0450000000000         3.324870341062219E-125
   39.2350000000000        -8.476260797023303E-125
   39.4250000000000        -3.267230126722141E-124
   39.6150000000000        -7.663089951642955E-124
   39.8050000000000        -1.502243771670939E-123
   39.9950000000000        -2.658603390338361E-123
   40.1850000000000        -4.381569168096958E-123
   40.3750000000000        -6.833654824029119E-123
   40.5650000000000        -1.019068349702989E-122
   40.7550000000000        -1.465422526003010E-122
   40.9450000000000        -2.050271147660779E-122
   41.1350000000000        -2.821523588439575E-122
   41.3250000000000        -3.870462769192423E-122
   41.5150000000000        -5.367163388808806E-122
   41.7050000000000        -7.600333599867970E-122
   41.8950000000000        -1.099235398389937E-121
   42.0850000000000        -1.601638902862918E-121
   42.2750000000000        -2.286278132066620E-121
   42.4650000000000        -3.057056882146948E-121
   42.6550000000000        -3.514273159066825E-121
   42.8450000000000        -2.589834251676831E-121
   43.0350000000000         2.098983725293525E-121
   43.2250000000000         1.530735792003339E-120
   43.4150000000000         4.576073519996763E-120
   43.6050000000000         1.083520186070274E-119
   43.7950000000000         2.267912651729977E-119
   43.9850000000000         4.361076348331595E-119
   44.1750000000000         7.835440291053133E-119
   44.3650000000000         1.324912332263803E-118
   44.5550000000000         2.111156396262337E-118
   44.7450000000000         3.156499052157535E-118
   44.9350000000000         4.375089187900282E-118
   45.1250000000000         5.467874953327971E-118
   45.3150000000000         5.736657932043724E-118
   45.5050000000000         3.800457999013630E-118
   45.6950000000000        -2.804834912698468E-118
   45.8850000000000        -1.814107626646503E-117
   46.0750000000000        -4.844492252520563E-117
   46.2650000000000        -1.026207002463938E-116
   46.4550000000000        -1.923394812040203E-116
   46.6450000000000        -3.311774424734681E-116
   46.8350000000000        -5.318508413870123E-116
   47.0250000000000        -8.001001062501073E-116
   47.2150000000000        -1.123164992707548E-115
   47.4050000000000        -1.450167240641657E-115
   47.5950000000000        -1.661284719808344E-115
   47.7850000000000        -1.522755492259679E-115
   47.9750000000000        -6.261565377025333E-116
   48.1650000000000         1.685911120897763E-115
   48.3550000000000         6.398162342766578E-115
   48.5450000000000         1.488231253584591E-114
   48.7350000000000         2.889438007363499E-114
   48.9250000000000         5.043467772158235E-114
   49.1150000000000         8.135282040642555E-114
   49.3050000000000         1.225266614016435E-113
   49.4950000000000         1.723854127357451E-113
   49.6850000000000         2.244967085926226E-113
   49.8750000000000         2.639210522654463E-113
   50.0650000000000         2.620993491790005E-113
   50.2550000000000         1.702491066747075E-113
   50.4450000000000        -8.829866958744503E-114
   50.6350000000000        -6.255563848027557E-113
   50.8250000000000        -1.593499315800130E-112
   51.0150000000000        -3.181159984257531E-112
   51.2050000000000        -5.596647652142289E-112
   51.3950000000000        -9.022886002176104E-112
   51.5850000000000        -1.353167900874768E-111
   51.7750000000000        -1.893672758538171E-111
   51.9650000000000        -2.456386353184005E-111
   52.1550000000000        -2.891851316002223E-111
   52.3450000000000        -2.924010051996562E-111
   52.5350000000000        -2.095626759679648E-111
   52.7250000000000         2.906296221941866E-112
   52.9150000000000         5.222426194272993E-111
   53.1050000000000         1.399513309663875E-110
   53.2950000000000         2.815639094449653E-110
   53.4850000000000         4.931759064167850E-110
   53.6750000000000         7.874815409669954E-110
   53.8650000000000         1.166445900474262E-109
   54.0550000000000         1.609491041236080E-109
   54.2450000000000         2.055938125420111E-109
   54.4350000000000         2.380846003960351E-109
   54.6250000000000         2.364394266615871E-109
   54.8150000000000         1.656935944525790E-109
   55.0050000000000        -2.548010067417845E-110
   55.1950000000000        -4.069730815336431E-109
   55.3850000000000        -1.066472393209277E-108
   55.5750000000000        -2.102979958746079E-108
   55.7650000000000        -3.610753971388673E-108
   55.9550000000000        -5.648647855888275E-108
   56.1450000000000        -8.188910800461598E-108
   56.3350000000000        -1.103933493443595E-107
   56.5250000000000        -1.373393640835613E-107
   56.7150000000000        -1.539120013985749E-107
   56.9050000000000        -1.454667867343239E-107
   57.0950000000000        -8.980041709677727E-108
   57.2850000000000         4.422798197226278E-108
   57.4750000000000         2.970277458996766E-107
   57.6650000000000         7.164830408394826E-107
   57.8550000000000         1.352506788451405E-106
   58.0450000000000         2.245942606676144E-106
   58.2350000000000         3.409426715080343E-106
   58.4250000000000         4.797692411067833E-106
   58.6150000000000         6.265198456862886E-106
   58.8050000000000         7.510265841702242E-106
   58.9950000000000         8.007598850572247E-106
   59.1850000000000         6.935710975158909E-106
   59.3750000000000         3.112948849638825E-106
   59.5650000000000        -5.034042169933546E-106
   59.7550000000000        -1.943233644644304E-105
   59.9450000000000        -4.220241878024919E-105
   60.1350000000000        -7.530618737918282E-105
   60.3250000000000        -1.199199220670456E-104
   60.5150000000000        -1.754431120470401E-104
   60.7050000000000        -2.380650555352797E-104
   60.8950000000000        -2.988507527138027E-104
   61.0850000000000        -3.413908140648894E-104
   61.2750000000000        -3.392041679607346E-104
   61.4650000000000        -2.533045812655735E-104
   61.6550000000000        -3.065563837164994E-105
   61.8450000000000         3.953535497610164E-104
   62.0350000000000         1.100795561232155E-103
   62.2250000000000         2.161328221166200E-103
   62.4150000000000         3.633989815849262E-103
   62.6050000000000         5.527898172689250E-103
   62.7950000000000         7.761360169455456E-103
   62.9850000000000         1.010398084810481E-102
   63.1750000000000         1.210466671223004E-102
   63.3650000000000         1.301041661099236E-102
   63.5550000000000         1.168694981658241E-102
   63.7450000000000         6.560880239391021E-103
   63.9350000000000        -4.385637913782483E-103
   64.1250000000000        -2.352357783295771E-102
   64.3150000000000        -5.333078189349985E-102
   64.5050000000000        -9.592035253727832E-102
   64.6950000000000        -1.522671224061013E-101
   64.8850000000000        -2.210617065523345E-101
   65.0750000000000        -2.971482530728346E-101
   65.2650000000000        -3.695594641489108E-101
   65.4550000000000        -4.192623000702049E-101
   65.6450000000000        -4.168812115151216E-101
   65.8350000000000        -3.208809260452149E-101
   66.0250000000000        -7.696872007344709E-102
   66.2150000000000         3.801951797927474E-101
   66.4050000000000         1.121542976234455E-100
   66.5950000000000         2.212658833519030E-100
   66.7850000000000         3.695445122225634E-100
   66.9750000000000         5.560603961683566E-100
   67.1650000000000         7.709729908840069E-100
   67.3550000000000         9.907100005951785E-100
   67.5450000000000         1.172349778919755E-099
   67.7350000000000         1.247786470139704E-099
   67.9250000000000         1.118741198846911E-099
   68.1150000000000         6.543066172966381E-100
   68.3050000000000        -3.065500068709981E-100
   68.4950000000000        -1.944317355611874E-099
   68.6850000000000        -4.436198232387708E-099
   68.8750000000000        -7.916981625418886E-099
   69.0650000000000        -1.241939456046849E-098
   69.2550000000000        -1.779095842255928E-098
   69.4450000000000        -2.358698797293688E-098
   69.6350000000000        -2.894396226922721E-098
   69.8250000000000        -3.244456262438720E-098
   70.0150000000000        -3.199556764825838E-098
   70.2050000000000        -2.475255687105532E-098
   70.3950000000000        -7.140492281865850E-099
   70.5850000000000         2.496462060061784E-098
   70.7750000000000         7.581313441011328E-098
   70.9650000000000         1.490291359623259E-097
   71.1550000000000         2.464405474997313E-097
   71.3450000000000         3.664250199446653E-097
   71.5350000000000         5.017524137303680E-097
   71.7250000000000         6.369895791766482E-097
   71.9150000000000         7.456645393063628E-097
   72.1050000000000         7.875717072299508E-097
   72.2950000000000         7.068384007167121E-097
   72.4850000000000         4.316568489827779E-097
   72.6750000000000        -1.231083662278552E-097
   72.8650000000000        -1.048943532135916E-096
   73.0550000000000        -2.430652548997705E-096
   73.2450000000000        -4.325575717731410E-096
   73.4350000000000        -6.733682017215937E-096
   73.6250000000000        -9.557940964795343E-096
   73.8150000000000        -1.255580536397662E-095
   74.0050000000000        -1.528486313787269E-095
   74.1950000000000        -1.704886327956134E-095
   74.3850000000000        -1.685441297535260E-095
   74.5750000000000        -1.339354689734396E-095
   74.7650000000000        -5.072714945905175E-096
   74.9550000000000         9.886172529029857E-096
   75.1450000000000         3.324326210946680E-095
   75.3350000000000         6.640663388090158E-095
   75.5250000000000         1.099404741786911E-094
   75.7150000000000         1.629010501026531E-094
   75.9050000000000         2.220076915341443E-094
   76.0950000000000         2.806904252638755E-094
   76.2850000000000         3.281050652079883E-094
   76.4750000000000         3.482710486651075E-094
   76.6650000000000         3.195653766692061E-094
   76.8550000000000         2.148924057569883E-094
   77.0450000000000         2.933902991654986E-096
   77.2350000000000        -3.490493252034290E-094
   77.4250000000000        -8.703667263601032E-094
   77.6150000000000        -1.579545312357656E-093
   77.8050000000000        -2.474173861228230E-093
   77.9950000000000        -3.517942069839887E-093
   78.1850000000000        -4.625358737871740E-093
   78.3750000000000        -5.645337244278158E-093
   78.5650000000000        -6.345771794180674E-093
   78.7550000000000        -6.402375180714178E-093
   78.9450000000000        -5.396341247776630E-093
   79.1350000000000        -2.826700632586843E-093
   79.3250000000000         1.855657631312979E-093
   79.5150000000000         9.184732750678882E-093
   79.7050000000000         1.957968714070086E-092
   79.8950000000000         3.320315332715868E-092
   80.0850000000000         4.977579463620830E-092
   80.2750000000000         6.835159233576760E-092
   80.4650000000000         8.706758093121332E-092
   80.6550000000000         1.028942425226083E-091
   80.8450000000000         1.114283476309545E-091
   81.0350000000000         1.067879409446598E-091
   81.2250000000000         8.168783855358647E-092
   81.4150000000000         2.779080723698128E-092
   81.6050000000000        -6.355930263813430E-092
   81.7950000000000        -2.001159326130152E-091
   81.9850000000000        -3.869300618726390E-091
   82.1750000000000        -6.239239435088971E-091
   82.3650000000000        -9.028629504248366E-091
   82.5550000000000        -1.203861379520307E-090
   82.7450000000000        -1.491711575242324E-090
   82.9350000000000        -1.712521118158711E-090
   83.1250000000000        -1.791372760867368E-090
   83.3150000000000        -1.631969340512828E-090
   83.5050000000000        -1.119461794994254E-090
   83.6950000000000        -1.278388368896282E-091
   83.8850000000000         1.466677780809441E-090
   84.0750000000000         3.764912846406094E-090
   84.2650000000000         6.815773189288879E-090
   84.4550000000000         1.057888836599978E-089
   84.6450000000000         1.487992612159442E-089
   84.8350000000000         1.936138567726802E-089
   85.0250000000000         2.343393372902198E-089
   85.2150000000000         2.623608047706585E-089
   85.4050000000000         2.661303460681366E-089
   85.5950000000000         2.312863054892989E-089
   85.7850000000000         1.412682985667839E-089
   85.9750000000000        -2.139177252360614E-090
   86.1650000000000        -2.729262172474009E-089
   86.3550000000000        -6.251915636363845E-089
   86.5450000000000        -1.081459794113930E-088
   86.7350000000000        -1.631189771624927E-088
   86.9250000000000        -2.244006893708062E-088
   87.1150000000000        -2.863360025709662E-088
   87.3050000000000        -3.400624779358474E-088
   87.4950000000000        -3.730768000547416E-088
   87.6850000000000        -3.691053000512985E-088
   87.8750000000000        -3.084604852935237E-088
   88.0650000000000        -1.690907078962715E-088
   88.2550000000000         7.146174983644804E-089
   88.4450000000000         4.329978780605054E-088
   88.6350000000000         9.283555828404728E-088
   88.8250000000000         1.557828434500885E-087
   89.0150000000000         2.302446083981888E-087
   89.2050000000000         3.116488112433788E-087
   89.3950000000000         3.919906373419219E-087
   89.5850000000000         4.591693728206007E-087
   89.7750000000000         4.965638101077353E-087
   89.9650000000000         4.830302414294502E-087
   90.1550000000000         3.935416607147107E-087
   90.3450000000000         2.007080487495766E-087
   90.5350000000000        -1.225841387932949E-087
   90.7250000000000        -5.992112400163089E-087
   90.9150000000000        -1.242410921996468E-086
   91.1050000000000        -2.048961212890288E-086
   91.2950000000000        -2.991169559819974E-086
   91.4850000000000        -4.008182010803493E-086
   91.6750000000000        -4.997472488072730E-086
   91.8650000000000        -5.807777330770082E-086
   92.0550000000000        -6.235172471007438E-086
   92.2450000000000        -6.024403894043400E-086
   92.4350000000000        -4.877910832044599E-086
   92.6250000000000        -2.475139559293151E-086
   92.8150000000000         1.495370629659464E-086
   93.0050000000000         7.289156185691729E-086
   93.1950000000000         1.504330169333093E-085
   93.3850000000000         2.469891062083262E-085
   93.5750000000000         3.591161881787730E-085
   93.7650000000000         4.795627279249122E-085
   93.9550000000000         5.963563955510510E-085
   94.1450000000000         6.920724874430118E-085
   94.3350000000000         7.434686443010878E-085
   94.5250000000000         7.217114198485866E-085
   94.7150000000000         5.934505226796804E-085
   94.9050000000000         3.230076912576872E-085
   95.0950000000000        -1.240712786462184E-085
   95.2850000000000        -7.759123281631524E-085
   95.4750000000000        -1.647579765547264E-084
   95.6650000000000        -2.732811378871988E-084
   95.8550000000000        -3.994563545389848E-084
   96.0450000000000        -5.355021794248153E-084
   96.2350000000000        -6.686108577908687E-084
   96.4250000000000        -7.801939474457586E-084
   96.6150000000000        -8.455108246505039E-084
   96.8050000000000        -8.339070219849860E-084
   96.9950000000000        -7.099174782594658E-084
   97.1850000000000        -4.354986802930194E-084
   97.3750000000000         2.636654351760294E-085
   97.5650000000000         7.065078709025153E-084
   97.7550000000000         1.622776735448836E-083
   97.9450000000000         2.771722703431962E-083
   98.1350000000000         4.119068958850555E-083
   98.3250000000000         5.589619762279553E-083
   98.5150000000000         7.057591681871748E-083
   98.7050000000000         8.338759305697999E-083
   98.8950000000000         9.186214048819201E-083
   99.0850000000000         9.291905745806332E-083
   99.2750000000000         8.296409346674287E-083
   99.4650000000000         5.809456298202932E-083
   99.6550000000000         1.443602460306393E-083
   99.8450000000000        -5.137125468814572E-083
   100.035000000000        -1.415275137145073E-082
   100.225000000000        -2.562771570545584E-082
   100.415000000000        -3.929889066560078E-082
   100.605000000000        -5.451678288002814E-082
   100.795000000000        -7.014874182684745E-082
   100.985000000000        -8.449666732949019E-082
   101.175000000000        -9.524551709981410E-082
   101.365000000000        -9.946246270166108E-082
   101.555000000000        -9.366929733581510E-082
   101.745000000000        -7.401199208147857E-082
   101.935000000000        -3.655034121327721E-082
   102.125000000000         2.231343244328047E-082
   102.315000000000         1.052562982514673E-081
   102.505000000000         2.133082811384781E-081
   102.695000000000         3.449987572243483E-081
   102.885000000000         4.954190816679821E-081
   103.075000000000         6.552743338002743E-081
   103.265000000000         8.100299091591360E-081
   103.455000000000         9.392936314976516E-081
   103.645000000000         1.016607828778458E-080
   103.835000000000         1.009854024394663E-080
   104.025000000000         8.824899116790488E-081
   104.215000000000         5.958373624732581E-081
   104.405000000000         1.126138041263888E-081
   104.595000000000        -5.981604884888348E-081
   104.785000000000        -1.554847212127739E-080
   104.975000000000        -2.755582267390958E-080
   105.165000000000        -4.169687802145630E-080
   105.355000000000        -5.728662161024098E-080
   105.545000000000        -7.317592881740999E-080
   105.735000000000        -8.768151266907898E-080
   105.925000000000        -9.854642454285172E-080
   106.115000000000        -1.029486746425227E-079
   106.305000000000        -9.757757577591554E-080
   106.495000000000        -7.879810294700852E-080
   106.685000000000        -4.292225258369958E-080
   106.875000000000         1.339761665736927E-080
   107.065000000000         9.264585939727662E-080
   107.255000000000         1.957947834014513E-079
   107.445000000000         3.215495169686986E-079
   107.635000000000         4.655261167470501E-079
   107.825000000000         6.194267142224614E-079
   108.015000000000         7.703027013027812E-079
   108.205000000000         9.000253916284611E-079
   108.395000000000         9.851105991504085E-079
   108.585000000000         9.970655326765397E-079
   108.775000000000         9.034387567508933E-079
   108.965000000000         6.697513359950849E-079
   109.155000000000         2.624637224412603E-079
   109.345000000000        -3.469176033149001E-079
   109.535000000000        -1.176572833998930E-078
   109.725000000000        -2.228039884396859E-078
   109.915000000000        -3.479081388026303E-078
   110.105000000000        -4.876200893135053E-078