  -1.42500000000000         0.000000000000000E+000
  -1.23500000000000         0.000000000000000E+000
  -1.04500000000000         0.000000000000000E+000
 -0.855000000000000         0.000000000000000E+000
 -0.665000000000000         0.000000000000000E+000
 -0.475000000000000         0.000000000000000E+000
 -0.285000000000000         0.000000000000000E+000
 -9.499999999999975E-002    0.000000000000000E+000
  9.500000000000020E-002    0.000000000000000E+000
  0.285000000000000         0.000000000000000E+000
  0.475000000000000         0.000000000000000E+000
  0.665000000000000         0.000000000000000E+000
  0.855000000000000         0.000000000000000E+000
   1.04500000000000         0.000000000000000E+000
   1.23500000000000         0.000000000000000E+000
   1.42500000000000         0.000000000000000E+000
   1.61500000000000         0.000000000000000E+000
   1.80500000000000         0.000000000000000E+000
   1.99500000000000         0.000000000000000E+000
   2.18500000000000         0.000000000000000E+000
   2.37500000000000         0.000000000000000E+000
   2.56500000000000         0.000000000000000E+000
   2.75500000000000         0.000000000000000E+000
   2.94500000000000         0.000000000000000E+000
   3.13500000000000         0.000000000000000E+000
   3.32500000000000         0.000000000000000E+000
   3.51500000000000         0.000000000000000E+000
   3.70500000000000         0.000000000000000E+000
   3.89500000000000         0.000000000000000E+000
   4.08500000000000         0.000000000000000E+000
   4.27500000000000         0.000000000000000E+000
   4.46500000000000         0.000000000000000E+000
   4.65500000000000         0.000000000000000E+000
   4.84500000000000         0.000000000000000E+000
   5.03500000000000         0.000000000000000E+000
   5.22500000000000         0.000000000000000E+000
   5.41500000000000         0.000000000000000E+000
   5.60500000000000         0.000000000000000E+000
   5.79500000000000         0.000000000000000E+000
   5.98500000000000         0.000000000000000E+000
   6.17500000000000         0.000000000000000E+000
   6.36500000000000         0.000000000000000E+000
   6.55500000000000         0.000000000000000E+000
   6.74500000000000         0.000000000000000E+000
   6.93500000000000         0.000000000000000E+000
   7.12500000000000         0.000000000000000E+000
   7.31500000000000         0.000000000000000E+000
   7.50500000000000         0.000000000000000E+000
   7.69500000000000         0.000000000000000E+000
   7.88500000000000         0.000000000000000E+000
   8.07500000000000         0.000000000000000E+000
   8.26500000000000         6.134303815859587E-233
   8.45500000000000        -1.059771439587631E-226
   8.64500000000000        -5.768934349101470E-210
   8.83500000000000         1.139716541280117E-203
   9.02500000000000        -6.766988774898771E-201
   9.21500000000000        -5.397709389974688E-200
   9.40500000000000         9.335270630294436E-198
   9.59500000000000         2.798690588767178E-196
   9.78500000000000         1.188903963329903E-195
   9.97500000000000        -7.286706650730700E-194
   10.1650000000000        -3.591870170901739E-193
   10.3550000000000         7.632588000123678E-191
   10.5450000000000         3.325652010138121E-189
   10.7350000000000         8.470110293321284E-188
   10.9250000000000         1.614180206169741E-186
   11.1150000000000         2.510663804157362E-185
   11.3050000000000         3.332255039091256E-184
   11.4950000000000         3.878345373136558E-183
   11.6850000000000         4.032350823790849E-182
   11.8750000000000         3.795870680619571E-181
   12.0650000000000         3.268401006862995E-180
   12.2550000000000         2.594754002719211E-179
   12.4450000000000         1.911449778940808E-178
   12.6350000000000         1.313333219648648E-177
   12.8250000000000         8.451837669699992E-177
   13.0150000000000         5.111640433545969E-176
   13.2050000000000         2.913160017907044E-175
   13.3950000000000         1.567616015223786E-174
   13.5850000000000         7.975856061060080E-174
   13.7750000000000         3.839354433144438E-173
   13.9650000000000         1.748214533574687E-172
   14.1550000000000         7.519977634578237E-172
   14.3450000000000         3.046888188929445E-171
   14.5350000000000         1.156469155097766E-170
   14.7250000000000         4.070785567400127E-170
   14.9150000000000         1.303262465071256E-169
   15.1050000000000         3.635204543578969E-169
   15.2950000000000         7.792787040443602E-169
   15.4850000000000         5.214898423839754E-169
   15.6750000000000        -6.912531508485516E-168
   15.8650000000000        -5.534650196730459E-167
   16.0550000000000        -2.935309927056397E-166
   16.2450000000000        -1.308695330160873E-165
   16.4350000000000        -5.233210935876634E-165
   16.6250000000000        -1.926726319427636E-164
   16.8150000000000        -6.610161536331482E-164
   17.0050000000000        -2.123538373356498E-163
   17.1950000000000        -6.387370010257659E-163
   17.3850000000000        -1.789604492371698E-162
   17.5750000000000        -4.611721136846711E-162
   17.7650000000000        -1.062961667677979E-161
   17.9550000000000        -2.042371832490447E-161
   18.1450000000000        -2.488186704438709E-161
   18.3350000000000         2.929640769358593E-161
   18.5250000000000         3.534502781432214E-160
   18.7150000000000         1.647678439253337E-159
   18.9050000000000         5.953382689375627E-159
   19.0950000000000         1.855837426155396E-158
   19.2850000000000         5.136401856946342E-158
   19.4750000000000         1.256981791342876E-157
   19.6650000000000         2.605647057841739E-157
   19.8550000000000         3.872058877337855E-157
   20.0450000000000        -1.718400635859017E-158
   20.2350000000000        -3.227647117701247E-156
   20.4250000000000        -1.739499124863265E-155
   20.6150000000000        -6.867039444450776E-155
   20.8050000000000        -2.347431490429505E-154
   20.9950000000000        -7.328978857617595E-154
   21.1850000000000        -2.140625921334503E-153
   21.3750000000000        -5.924559936657561E-153
   21.5650000000000        -1.565577319226992E-152
   21.7550000000000        -3.968600336419614E-152
   21.9450000000000        -9.679016005677074E-152
   22.1350000000000        -2.275312938490659E-151
   22.3250000000000        -5.160508818893313E-151
   22.5150000000000        -1.129635591822518E-150
   22.7050000000000        -2.386299489646184E-150
   22.8950000000000        -4.862550938891326E-150
   23.0850000000000        -9.553267570692192E-150
   23.2750000000000        -1.809693867595011E-149
   23.4650000000000        -3.310997887764154E-149
   23.6550000000000        -5.884162907378220E-149
   23.8450000000000        -1.030076587235191E-148
   24.0350000000000        -1.827353773009658E-148
   24.2250000000000        -3.434641530087584E-148
   24.4150000000000        -7.150975654305024E-148
   24.6050000000000        -1.667396450805217E-147
   24.7950000000000        -4.213294643998898E-147
   24.9850000000000        -1.099792899707140E-146
   25.1750000000000        -2.860359913581004E-146
   25.3650000000000        -7.267595994671752E-146
   25.5550000000000        -1.788310769842461E-145
   25.7450000000000        -4.248819222732260E-145
   25.9350000000000        -9.742001374106909E-145
   26.1250000000000        -2.156526916062737E-144
   26.3150000000000        -4.611175149484197E-144
   26.5050000000000        -9.526254782448352E-144
   26.6950000000000        -1.900936626297373E-143
   26.8850000000000        -3.660280363081651E-143
   27.0750000000000        -6.787229783074916E-143
   27.2650000000000        -1.207800261677646E-142
   27.4550000000000        -2.050709117516624E-142
   27.6450000000000        -3.289473002084390E-142
   27.8350000000000        -4.895802044466252E-142
   28.0250000000000        -6.511452503237955E-142
   28.2150000000000        -6.998061060574793E-142
   28.4050000000000        -3.596090112695426E-142
   28.5950000000000         9.518358948568812E-142
   28.7850000000000         4.349116444413819E-141
   28.9750000000000         1.179193833105265E-140
   29.1650000000000         2.643834706048211E-140
   29.3550000000000         5.286274255062459E-140
   29.5450000000000         9.669368233967473E-140
   29.7350000000000         1.627191238702628E-139
   29.9250000000000         2.496350864737170E-139
   30.1150000000000         3.382503470366534E-139
   30.3050000000000         3.680621883450494E-139
   30.4950000000000         1.949263068539309E-139
   30.6850000000000        -4.790227240362279E-139
   30.8750000000000        -2.210660877695363E-138
   31.0650000000000        -5.954548241492382E-138
   31.2550000000000        -1.320648197716773E-137
   31.4450000000000        -2.606259784111111E-137
   31.6350000000000        -4.698222408301175E-137
   31.8250000000000        -7.781672367326664E-137
   32.0150000000000        -1.172786939045059E-136
   32.2050000000000        -1.554040452502472E-136
   32.3950000000000        -1.626325003242073E-136
   32.5850000000000        -6.986787026929827E-137
   32.7750000000000         2.656341101479128E-136
   32.9650000000000         1.115105625786336E-135
   33.1550000000000         2.960785874810137E-135
   33.3450000000000         6.610601536420270E-135
   33.5350000000000         1.334068894378708E-134
   33.7250000000000         2.504032788892236E-134
   33.9150000000000         4.429080749396667E-134
   34.1050000000000         7.423023366816394E-134
   34.2950000000000         1.179199902780025E-133
   34.4850000000000         1.767096863113043E-133
   34.6750000000000         2.467680230616246E-133
   34.8650000000000         3.124864385947749E-133
   35.0550000000000         3.348777871995758E-133
   35.2450000000000         2.324579890173024E-133
   35.4350000000000        -1.483751460376668E-133
   35.6250000000000        -1.076306566235145E-132
   35.8150000000000        -2.992613154358921E-132
   36.0050000000000        -6.579755729272592E-132
   36.1950000000000        -1.282742948510271E-131
   36.3850000000000        -2.306305382903785E-131
   36.5750000000000        -3.887987075700520E-131
   36.7650000000000        -6.184111662881758E-131
   36.9550000000000        -9.275634840519657E-131
   37.1450000000000        -1.302113763924460E-130
   37.3350000000000        -1.678892156584928E-130
   37.5250000000000        -1.900655088141675E-130
   37.7150000000000        -1.645490622901299E-130
   37.9050000000000        -3.237090394888285E-131
   38.0950000000000         3.061102803642530E-130
   38.2850000000000         1.008023551345203E-129
   38.4750000000000         2.304999223143853E-129
   38.6650000000000         4.513968953871962E-129
   38.8550000000000         8.029404648562548E-129
   39.0450000000000         1.327599248571375E-128
   39.2350000000000         2.058944618135722E-128
   39.4250000000000         2.998058412227642E-128
   39.6150000000000         4.072762989219270E-128
   39.8050000000000         5.074145926161476E-128
   39.9950000000000         5.567116963275381E-128
   40.1850000000000         4.778252823308229E-128
   40.3750000000000         1.477549335562318E-128
   40.5650000000000        -6.106284199693985E-128
   40.7550000000000        -2.026280211587622E-127
   40.9450000000000        -4.355016291068496E-127
   41.1350000000000        -7.815373577904371E-127
   41.3250000000000        -1.246626173272971E-126
   41.5150000000000        -1.801142208637785E-126
   41.7050000000000        -2.353409436776708E-126
   41.8950000000000        -2.720991764495701E-126
   42.0850000000000        -2.613311964598239E-126
   42.2750000000000        -1.653900417291205E-126
   42.4650000000000         5.070308502974375E-127
   42.6550000000000         3.909106748562579E-126
   42.8450000000000         7.713489493976846E-126
   43.0350000000000         9.210887734465826E-126
   43.2250000000000         2.275610293050884E-126
   43.4150000000000        -2.477638241489169E-125
   43.6050000000000        -9.172439583143305E-125
   43.7950000000000        -2.286645397545125E-124
   43.9850000000000        -4.762821859595922E-124
   44.1750000000000        -8.810353887691126E-124
   44.3650000000000        -1.479875957467801E-123
   44.5550000000000        -2.266152207971654E-123
   44.7450000000000        -3.124882020929077E-123
   44.9350000000000        -3.722519706577265E-123
   45.1250000000000        -3.335540317871717E-123
   45.3150000000000        -6.070867632093201E-124
   45.5050000000000         6.762725273909924E-123
   45.6950000000000         2.235088803544281E-122
   45.8850000000000         5.125989340841610E-122
   46.0750000000000         1.000561941809927E-121
   46.2650000000000         1.759998410778510E-121
   46.4550000000000         2.849221999664780E-121
   46.6450000000000         4.268016109932827E-121
   46.8350000000000         5.877568370181847E-121
   47.0250000000000         7.269246152630888E-121
   47.2150000000000         7.567062403700005E-121
   47.4050000000000         5.154963899599987E-121
   47.5950000000000        -2.662265811376275E-121
   47.7850000000000        -2.001909785581661E-120
   47.9750000000000        -5.275958194418216E-120
   48.1650000000000        -1.084017367964041E-119
   48.3550000000000        -1.954240913628316E-119
   48.5450000000000        -3.212918621699393E-119
   48.7350000000000        -4.883846536690434E-119
   48.9250000000000        -6.867246892217957E-119
   49.1150000000000        -8.822195393318041E-119
   49.3050000000000        -9.991843312377931E-119
   49.4950000000000        -8.964568963990109E-119
   49.6850000000000        -3.378589258736396E-119
   49.8750000000000         1.039369950810746E-118
   50.0650000000000         3.749551944774947E-118
   50.2550000000000         8.460515579620449E-118
   50.4450000000000         1.594475580324189E-117
   50.6350000000000         2.693715009499959E-117
   50.8250000000000         4.183894406511875E-117
   51.0150000000000         6.019017883483072E-117
   51.2050000000000         7.982118257621013E-117
   51.3950000000000         9.559869639572710E-117
   51.5850000000000         9.772039757051606E-117
   51.7750000000000         6.960741963150178E-117
   51.9650000000000        -1.436951771952691E-117
   52.1550000000000        -1.907794850736999E-116
   52.3450000000000        -5.076005458203499E-116
   52.5350000000000        -1.021548760116465E-115
   52.7250000000000        -1.789663630786900E-115
   52.9150000000000        -2.851527672692273E-115
   53.1050000000000        -4.197515951337241E-115
   53.2950000000000        -5.717870323791743E-115
   53.4850000000000        -7.127760149359456E-115
   53.6750000000000        -7.865731779198819E-115
   53.8650000000000        -6.968340518641377E-115
   54.0550000000000        -2.933947635441903E-115
   54.2450000000000         6.394448553051193E-115
   54.4350000000000         2.387204952581379E-114
   54.6250000000000         5.293030525918119E-114
   54.8150000000000         9.715531693462648E-114
   55.0050000000000         1.593817833731865E-113
   55.1950000000000         2.400712039012681E-113
   55.3850000000000         3.347170881870197E-113
   55.5750000000000         4.300425353369044E-113
   55.7650000000000         4.988685978154149E-113
   55.9550000000000         4.937925834220998E-113
   56.1450000000000         3.402952110072493E-113
   56.3350000000000        -6.932673140002422E-114
   56.5250000000000        -8.786581900395316E-113
   56.7150000000000        -2.262395669980823E-112
   56.9050000000000        -4.408089457079875E-112
   57.0950000000000        -7.476271322600622E-112
   57.2850000000000        -1.152895195502189E-111
   57.4750000000000        -1.641553092687131E-111
   57.6650000000000        -2.160632737991023E-111
   57.8550000000000        -2.596888966904992E-111
   58.0450000000000        -2.749320284964667E-111
   58.2350000000000        -2.299156762192020E-111
   58.4250000000000        -7.830118227112281E-112
   58.6150000000000         2.420592356844380E-111
   58.8050000000000         8.075119491974994E-111
   58.9950000000000         1.701686700905176E-110
   59.1850000000000         3.000152925590984E-110
   59.3750000000000         4.742852999666876E-110
   59.5650000000000         6.890225349022065E-110
   59.7550000000000         9.259435653342533E-110
   59.9450000000000         1.143902747509701E-109
   60.1350000000000         1.268434534866581E-109
   60.3250000000000         1.180316206295951E-109
   60.5150000000000         7.051959728565043E-110
   60.7050000000000        -3.921029506719846E-110
   60.8950000000000        -2.402948048562392E-109
   61.0850000000000        -5.651850682745085E-109
   61.2750000000000        -1.044438388960502E-108
   61.4650000000000        -1.697332523889122E-108
   61.6550000000000        -2.516948812682092E-108
   61.8450000000000        -3.448556967865339E-108
   62.0350000000000        -4.360771025690456E-108
   62.2250000000000        -5.010263952479160E-108
   62.4150000000000        -5.003089473489174E-108
   62.6050000000000        -3.759118546450589E-108
   62.7950000000000        -4.909346149269456E-109
   62.9850000000000         5.785254172651798E-108
   63.1750000000000         1.618186801137664E-107
   63.3650000000000         3.178311026154854E-107
   63.5550000000000         5.336074827299500E-107
   63.7450000000000         8.092228903794423E-107
   63.9350000000000         1.130572533106323E-106
   64.1250000000000         1.460662098867308E-106
   64.3150000000000         1.728955042291007E-106
   64.5050000000000         1.819651260023203E-106
   64.6950000000000         1.560743676106184E-106
   64.8850000000000         7.170395655860633E-107
   65.0750000000000        -1.007968348985391E-106
   65.2650000000000        -3.954540747762069E-106
   65.4550000000000        -8.464628473248797E-106
   65.6450000000000        -1.480494328387516E-105
   65.8350000000000        -2.304435497342062E-105
   66.0250000000000        -3.287645496663172E-105
   66.2150000000000        -4.338315438748176E-105
   66.4050000000000        -5.274513680358051E-105
   66.5950000000000        -5.792151631030833E-105
   66.7850000000000        -5.434564126844689E-105
   66.9750000000000        -3.571747865493762E-105
   67.1650000000000         5.985052140829090E-106
   67.3550000000000         8.010573646660604E-105
   67.5450000000000         1.963032125129842E-104
   67.7350000000000         3.626834761891432E-104
   67.9250000000000         5.828080439952502E-104
   68.1150000000000         8.513543466506092E-104
   68.3050000000000         1.148324292123741E-103
   68.4950000000000         1.431929731204690E-103
   68.6850000000000         1.630665634931318E-103
   68.8750000000000         1.635644002793422E-103
   69.0650000000000         1.295019438774894E-103
   69.2550000000000         4.132766526124739E-104
   69.4450000000000        -1.240792332669097E-103
   69.6350000000000        -3.912552472944542E-103
   69.8250000000000        -7.820768537927061E-103
   70.0150000000000        -1.309176381830681E-102
   70.2050000000000        -1.966350450779721E-102
   70.3950000000000        -2.715716727280131E-102
   70.5850000000000        -3.471866465898892E-102
   70.7750000000000        -4.084059751588719E-102
   70.9650000000000        -4.318676200519284E-102
   71.1550000000000        -3.845691947292906E-102
   71.3450000000000        -2.234868533644535E-102
   71.5350000000000         1.030522305887388E-102
   71.7250000000000         6.512524660565879E-102
   71.9150000000000         1.473837710039476E-101
   72.1050000000000         2.606954000320168E-101
   72.2950000000000         4.050965271335712E-101
   72.4850000000000         5.744611013216657E-101
   72.6750000000000         7.532936074317021E-101
   72.8650000000000         9.130922226159527E-101
   73.0550000000000         1.008695080633582E-100
   73.2450000000000         9.753144484402550E-101
   73.4350000000000         7.273198536934211E-101
   73.6250000000000         1.602265440142880E-101
   73.8150000000000        -8.422699443536122E-101
   74.0050000000000        -2.394080775133185E-100
   74.1950000000000        -4.583120646485071E-100
   74.3850000000000        -7.436394455265558E-100
   74.5750000000000        -1.087271092477316E-099
   74.7650000000000        -1.464359923514611E-099
   74.9550000000000        -1.826563687441854E-099
   75.1450000000000        -2.095118575789624E-099
   75.3350000000000        -2.154953173524634E-099
   75.5250000000000        -1.851648910093860E-099
   75.7150000000000        -9.937232457740817E-100
   75.9050000000000         6.366384002034594E-100
   76.0950000000000         3.260781051895850E-099
   76.2850000000000         7.064941086619401E-099
   76.4750000000000         1.214245667896772E-098
   76.6650000000000         1.841487756893350E-098
   76.8550000000000         2.553263031610410E-098
   77.0450000000000         3.276006746787381E-098
   77.2350000000000         3.885570847606454E-098
   77.4250000000000         4.196633150593275E-098
   77.6150000000000         3.956306355696374E-098
   77.8050000000000         2.845806106030765E-098
   77.9950000000000         4.950492195448041E-099
   78.1850000000000        -3.484170258687037E-098
   78.3750000000000        -9.440525754712369E-098
   78.5650000000000        -1.759576394643405E-097
   78.7550000000000        -2.792429362776631E-097
   78.9450000000000        -4.000028201933311E-097
   79.1350000000000        -5.281886001611913E-097
   79.3250000000000        -6.460672025579347E-097
   79.5150000000000        -7.264875267010455E-097
   79.7050000000000        -7.317104769744083E-097
   79.8950000000000        -6.133563068398142E-097
   80.0850000000000        -3.141686672497691E-097
   80.2750000000000         2.275922413961221E-097
   80.4650000000000         1.070274217871513E-096
   80.6550000000000         2.256704167565534E-096
   80.8450000000000         3.797299251905612E-096
   81.0350000000000         5.648422642058741E-096
   81.2250000000000         7.686805489161797E-096
   81.4150000000000         9.682022101955395E-096
   81.6050000000000         1.127052688569792E-095
   81.7950000000000         1.193659112368894E-095
   81.9850000000000         1.100748630428332E-095
   82.1750000000000         7.672213760415726E-096
   82.3650000000000         1.034615715866990E-096
   82.5550000000000        -9.787682031792511E-096
   82.7450000000000        -2.550798980184282E-095
   82.9350000000000        -4.645168110991244E-095
   83.1250000000000        -7.227282260000644E-095
   83.3150000000000        -1.016155838863437E-094
   83.5050000000000        -1.317442314388740E-094
   83.6950000000000        -1.581844714407173E-094
   83.8850000000000        -1.744417072957739E-094
   84.0750000000000        -1.718868552357245E-094
   84.2650000000000        -1.399248955244192E-094
   84.4550000000000        -6.658100497218521E-095
   84.6450000000000         6.035203832712004E-095
   84.8350000000000         2.514709985981670E-094
   85.0250000000000         5.131263260546117E-094
   85.2150000000000         8.439687579776185E-094
   85.4050000000000         1.230771738670118E-093
   85.5950000000000         1.643791841337199E-093
   85.7850000000000         2.032150286312506E-093
   85.9750000000000         2.319985136216903E-093
   86.1650000000000         2.404418451083369E-093
   86.3550000000000         2.156674263675155E-093
   86.5450000000000         1.427923746428189E-093
   86.7350000000000         6.155744692404024E-095
   86.9250000000000        -2.086492285147183E-093
   87.1150000000000        -5.118129368059327E-093
   87.3050000000000        -9.053696558242690E-093
   87.4950000000000        -1.378359446341736E-092
   87.6850000000000        -1.901354060764562E-092
   87.8750000000000        -2.420850610012287E-092
   88.0650000000000        -2.854330205402959E-092
   88.2550000000000        -3.087106853266900E-092
   88.4450000000000        -2.972422522978702E-092
   88.6350000000000        -2.336528208870481E-092
   88.8250000000000        -9.906598176342396E-093
   89.0150000000000         1.248214586589808E-092
   89.2050000000000         4.526334363484714E-092
   89.3950000000000         8.910976159016019E-092
   89.5850000000000         1.433763586618308E-091
   89.7750000000000         2.054887464203599E-091
   89.9650000000000         2.702961370712941E-091
   90.1550000000000         3.294671199764415E-091
   90.3450000000000         3.710413131934046E-091
   90.5350000000000         3.792858821970994E-091
   90.7250000000000         3.350384302178218E-091
   90.9150000000000         2.167402952217399E-091
   91.1050000000000         2.368426196309443E-093
   91.2950000000000        -3.275502298870665E-091
   91.4850000000000        -7.857214210471833E-091
   91.6750000000000        -1.372656457568328E-090
   91.8650000000000        -2.070200695892450E-090
   92.0550000000000        -2.834419117475811E-090
   92.2450000000000        -3.588538354618557E-090
   92.4350000000000        -4.216992648153342E-090
   92.6250000000000        -4.561995169981294E-090
   92.8150000000000        -4.424415744498164E-090
   93.0050000000000        -3.571033342000634E-090
   93.1950000000000        -1.750370582223708E-090
   93.3850000000000         1.280784903498612E-090
   93.5750000000000         5.718515558076373E-090
   93.7650000000000         1.165981014596506E-089
   93.9550000000000         1.903819767624971E-089
   94.1450000000000         2.754974629010464E-089
   94.3350000000000         3.657490121405848E-089
   94.5250000000000         4.510491747476591E-089
   94.7150000000000         5.168533098955205E-089
   94.9050000000000         5.439270216090513E-089
   95.0950000000000         5.086429702244925E-089
   95.2850000000000         3.840280863748405E-089
   95.4750000000000         1.417886418728457E-089
   95.6650000000000        -2.444803152656614E-089
   95.8550000000000        -7.947532309201261E-089
   96.0450000000000        -1.516658427054393E-088
   96.2350000000000        -2.398309737804918E-088
   96.4250000000000        -3.400231005667044E-088
   96.6150000000000        -4.447005058013518E-088
   96.8050000000000        -5.419618144116175E-088
   96.9950000000000        -6.149844656424880E-088
   97.1850000000000        -6.418393282185285E-088
   97.3750000000000        -5.958867426763565E-088
   97.5650000000000        -4.469816654822140E-088
   97.7550000000000        -1.637193395021797E-088
   97.9450000000000         2.830711030053202E-088
   98.1350000000000         9.154393202081534E-088
   98.3250000000000         1.741995808714649E-087
   98.5150000000000         2.750290706370459E-087
   98.7050000000000         3.898241524399392E-087
   98.8950000000000         5.105247159076133E-087
   99.0850000000000         6.243963532727013E-087
   99.2750000000000         7.134089567454788E-087
   99.4650000000000         7.539891183470466E-087
   99.6550000000000         7.173531745348746E-087
   99.8450000000000         5.706520695698064E-087
   100.035000000000         2.791663823915065E-087
   100.225000000000        -1.902288394031715E-087
   100.415000000000        -8.641639126384066E-087
   100.605000000000        -1.756372643755963E-086
   100.795000000000        -2.859875133769503E-086
   100.985000000000        -4.138044081042077E-086
   101.175000000000        -5.515127179484356E-086
   101.365000000000        -6.867128475205976E-086
   101.555000000000        -8.014324512602925E-086
   101.745000000000        -8.717081670216071E-086
   101.935000000000        -8.677010689064553E-086
   102.125000000000        -7.545789457101343E-086
   102.315000000000        -4.944136580258418E-086
   102.505000000000        -4.933427448663197E-087
   102.695000000000         6.138630053404285E-086
   102.885000000000         1.517528895594157E-085
   103.075000000000         2.665413085906173E-085
   103.265000000000         4.033560872451051E-085
   103.455000000000         5.560316780194142E-085
   103.645000000000         7.136215392094846E-085
   103.835000000000         8.594909892054638E-085
   104.025000000000         9.706691687703966E-085
   104.215000000000         1.017655705534437E-084
   104.405000000000         9.649131281548405E-085
   104.595000000000         7.723003476482070E-085
   104.785000000000         3.977076575328765E-085
   104.975000000000        -1.988695941823406E-085
   105.165000000000        -1.049643384513818E-084
   105.355000000000        -2.171666793816056E-084
   105.545000000000        -3.557892894596341E-084
   105.735000000000        -5.166994776645323E-084
   105.925000000000        -6.912580421516006E-084
   106.115000000000        -8.652793502828414E-084
   106.305000000000        -1.018169287703988E-083
   106.495000000000        -1.122422201919130E-083
   106.685000000000        -1.143697306961301E-083
   106.875000000000        -1.041726081426729E-083
   107.065000000000        -7.723176168562029E-084
   107.255000000000        -2.907198599753046E-084
   107.445000000000         4.434485757915428E-084
   107.635000000000         1.459568993772005E-083
   107.825000000000         2.767709911825683E-083
   108.015000000000         4.348847580308384E-083
   108.205000000000         6.144102303598927E-083
   108.395000000000         8.043799976725024E-083
   108.585000000000         9.877544148884890E-083
   108.775000000000         1.140688634695442E-082
   108.965000000000         1.232257586337396E-082
   109.155000000000         1.224870495331575E-082
   109.345000000000         1.075627702277259E-082
   109.535000000000         7.388736289951295E-083
   109.725000000000         1.701720152042133E-083
   109.915000000000        -6.681360997074468E-083
   110.105000000000        -1.799743309910934E-082