  -1.42500000000000         0.000000000000000E+000
  -1.23500000000000         0.000000000000000E+000
  -1.04500000000000         0.000000000000000E+000
 -0.855000000000000         0.000000000000000E+000
 -0.665000000000000         0.000000000000000E+000
 -0.475000000000000         0.000000000000000E+000
 -0.285000000000000         0.000000000000000E+000
 -9.499999999999975E-002    0.000000000000000E+000
  9.500000000000020E-002    0.000000000000000E+000
  0.285000000000000         0.000000000000000E+000
  0.475000000000000         0.000000000000000E+000
  0.665000000000000         0.000000000000000E+000
  0.855000000000000         0.000000000000000E+000
   1.04500000000000         0.000000000000000E+000
   1.23500000000000         0.000000000000000E+000
   1.42500000000000         0.000000000000000E+000
   1.61500000000000         0.000000000000000E+000
   1.80500000000000         0.000000000000000E+000
   1.99500000000000         0.000000000000000E+000
   2.18500000000000         0.000000000000000E+000
   2.37500000000000         0.000000000000000E+000
   2.56500000000000         0.000000000000000E+000
   2.75500000000000         0.000000000000000E+000
   2.94500000000000         0.000000000000000E+000
   3.13500000000000         0.000000000000000E+000
   3.32500000000000         0.000000000000000E+000
   3.51500000000000         0.000000000000000E+000
   3.70500000000000         0.000000000000000E+000
   3.89500000000000         0.000000000000000E+000
   4.08500000000000         0.000000000000000E+000
   4.27500000000000         0.000000000000000E+000
   4.46500000000000         0.000000000000000E+000
   4.65500000000000         0.000000000000000E+000
   4.84500000000000         0.000000000000000E+000
   5.03500000000000         0.000000000000000E+000
   5.22500000000000         0.000000000000000E+000
   5.41500000000000         0.000000000000000E+000
   5.60500000000000         0.000000000000000E+000
   5.79500000000000         0.000000000000000E+000
   5.98500000000000         0.000000000000000E+000
   6.17500000000000         0.000000000000000E+000
   6.36500000000000         0.000000000000000E+000
   6.55500000000000         0.000000000000000E+000
   6.74500000000000         0.000000000000000E+000
   6.93500000000000         0.000000000000000E+000
   7.12500000000000         0.000000000000000E+000
   7.31500000000000         0.000000000000000E+000
   7.50500000000000         0.000000000000000E+000
   7.69500000000000         0.000000000000000E+000
   7.88500000000000         0.000000000000000E+000
   8.07500000000000         0.000000000000000E+000
   8.26500000000000         0.000000000000000E+000
   8.45500000000000         2.331035450026643E-233
   8.64500000000000        -4.027131470432997E-227
   8.83500000000000        -2.192195052658559E-210
   9.02500000000000         4.330922856864445E-204
   9.21500000000000        -2.571455736653728E-201
   9.40500000000000        -2.050696475904695E-200
   9.59500000000000         3.544831383775231E-198
   9.78500000000000         1.063297354083937E-196
   9.97500000000000         4.553283374491381E-196
   10.1650000000000        -2.758315553736827E-194
   10.3550000000000        -1.360357381568169E-193
   10.5450000000000         2.897625124493261E-191
   10.7350000000000         1.263611728114329E-189
   10.9250000000000         3.221539536586581E-188
   11.1150000000000         6.146520900726158E-187
   11.3050000000000         9.572737851163835E-186
   11.4950000000000         1.272403435755403E-184
   11.6850000000000         1.483343979643056E-183
   11.8750000000000         1.545017347398076E-182
   12.0650000000000         1.457264298431867E-181
   12.2550000000000         1.257442556081919E-180
   12.4450000000000         1.000579164017619E-179
   12.6350000000000         7.389253415583265E-179
   12.8250000000000         5.090724151066624E-178
   13.0150000000000         3.285590848641829E-177
   13.2050000000000         1.993330606258134E-176
   13.3950000000000         1.139856715291095E-175
   13.5850000000000         6.156273918476201E-175
   13.7750000000000         3.144810974731940E-174
   13.9650000000000         1.520517423779649E-173
   14.1550000000000         6.957696325057007E-173
   14.3450000000000         3.009643243517695E-172
   14.5350000000000         1.227394475043759E-171
   14.7250000000000         4.695547113723279E-171
   14.9150000000000         1.669637963116424E-170
   15.1050000000000         5.421952078643100E-170
   15.2950000000000         1.548341522871651E-169
   15.4850000000000         3.503454283232878E-169
   15.6750000000000         3.530002923930756E-169
   15.8650000000000        -2.276416544901208E-168
   16.0550000000000        -2.067867045518267E-167
   16.2450000000000        -1.138181937730443E-166
   16.4350000000000        -5.179828959163143E-166
   16.6250000000000        -2.102438349406165E-165
   16.8150000000000        -7.839542909741332E-165
   17.0050000000000        -2.722105218746579E-164
   17.1950000000000        -8.853400109728826E-164
   17.3850000000000        -2.699411125772569E-163
   17.5750000000000        -7.685837081985337E-163
   17.7650000000000        -2.022395144579007E-162
   17.9550000000000        -4.807838045374854E-162
   18.1450000000000        -9.783408108042703E-162
   18.3350000000000        -1.426294752224195E-161
   18.5250000000000         1.349226815519950E-162
   18.7150000000000         1.200481581721822E-160
   18.9050000000000         6.274670337317878E-160
   19.0950000000000         2.382333580134919E-159
   19.2850000000000         7.679649253122292E-159
   19.4750000000000         2.190066063653102E-158
   19.6650000000000         5.544495732415159E-158
   19.8550000000000         1.209152488345171E-157
   20.0450000000000         2.025831946629900E-157
   20.2350000000000         1.143853264182528E-157
   20.4250000000000        -1.023922710063483E-156
   20.6150000000000        -6.495711348062156E-156
   20.8050000000000        -2.711867259897643E-155
   20.9950000000000        -9.569810798438334E-155
   21.1850000000000        -3.056198691884450E-154
   21.3750000000000        -9.091359580914944E-154
   21.5650000000000        -2.556952645118318E-153
   21.7550000000000        -6.858329771154067E-153
   21.9450000000000        -1.763763392351285E-152
   22.1350000000000        -4.363859059272694E-152
   22.3250000000000        -1.040995255861579E-151
   22.5150000000000        -2.397379257106728E-151
   22.7050000000000        -5.333610504787144E-151
   22.8950000000000        -1.146531731776223E-150
   23.0850000000000        -2.381130407257418E-150
   23.2750000000000        -4.776773408639255E-150
   23.4650000000000        -9.257967104118460E-150
   23.6550000000000        -1.735856538214304E-149
   23.8450000000000        -3.161778615215570E-149
   24.0350000000000        -5.650147569708028E-149
   24.2250000000000        -1.010572295265227E-148
   24.4150000000000        -1.870178538404085E-148
   24.6050000000000        -3.727943043901137E-148
   24.7950000000000        -8.206285051463909E-148
   24.9850000000000        -1.973846269109694E-147
   25.1750000000000        -4.999841524033523E-147
   25.3650000000000        -1.284321394071751E-146
   25.5550000000000        -3.261670630378618E-146
   25.7450000000000        -8.079902319473101E-146
   25.9350000000000        -1.940718367676121E-145
   26.1250000000000        -4.509950754107935E-145
   26.3150000000000        -1.013552064871452E-144
   26.5050000000000        -2.203241632214788E-144
   26.6950000000000        -4.633528882201824E-144
   26.8850000000000        -9.426800812144807E-144
   27.0750000000000        -1.854259426191210E-143
   27.2650000000000        -3.521827398782949E-143
   27.4550000000000        -6.443900420566266E-143
   27.6450000000000        -1.131452204534612E-142
   27.8350000000000        -1.894389782848694E-142
   28.0250000000000        -2.991856981431788E-142
   28.2150000000000        -4.368741734079118E-142
   28.4050000000000        -5.651120184450208E-142
   28.5950000000000        -5.735255976903380E-142
   28.7850000000000        -2.034143783994059E-142
   28.9750000000000         1.079138651186914E-141
   29.1650000000000         4.277522187400601E-141
   29.3550000000000         1.112571053417012E-140
   29.5450000000000         2.436536435663794E-140
   29.7350000000000         4.786930982324650E-140
   29.9250000000000         8.619863142733782E-140
   30.1150000000000         1.427306426832589E-139
   30.3050000000000         2.147337633012661E-139
   30.4950000000000         2.825942742543777E-139
   30.6850000000000         2.888057599057599E-139
   30.8750000000000         1.005656391206113E-139
   31.0650000000000        -5.512453736184780E-139
   31.2550000000000        -2.162162692646494E-138
   31.4450000000000        -5.569708524942217E-138
   31.6350000000000        -1.206594987226871E-137
   31.8250000000000        -2.342295367648669E-137
   32.0150000000000        -4.163630486811003E-137
   32.2050000000000        -6.798885736019892E-137
   32.3950000000000        -1.006898420632039E-136
   32.5850000000000        -1.297892074833977E-136
   32.7750000000000        -1.272396327655373E-136
   32.9650000000000        -2.884824562719070E-137
   33.1550000000000         2.965005050332699E-136
   33.3450000000000         1.096250386800661E-135
   33.5350000000000         2.808529088872973E-135
   33.7250000000000         6.165712185439751E-135
   33.9150000000000         1.232385368666347E-134
   34.1050000000000         2.299621903314709E-134
   34.2950000000000         4.053134248056576E-134
   34.4850000000000         6.780581533878805E-134
   34.6750000000000         1.076810232788614E-133
   34.8650000000000         1.615776641022054E-133
   35.0550000000000         2.264258699448758E-133
   35.2450000000000         2.888312232380441E-133
   35.4350000000000         3.147599057714507E-133
   35.6250000000000         2.324486677437306E-133
   35.8150000000000        -9.423658939790415E-134
   36.0050000000000        -9.047443309126585E-133
   36.1950000000000        -2.594543766521489E-132
   36.3850000000000        -5.779167535251688E-132
   36.5750000000000        -1.135850422155587E-131
   36.7650000000000        -2.055351842291366E-131
   36.9550000000000        -3.485812854050655E-131
   37.1450000000000        -5.580093081688834E-131
   37.3350000000000        -8.433845156963605E-131
   37.5250000000000        -1.195988327671156E-130
   37.7150000000000        -1.565633449190196E-130
   37.9050000000000        -1.821274764373650E-130
   38.0950000000000        -1.688642884195952E-130
   38.2850000000000        -6.580556989894892E-131
   38.4750000000000         2.141846610915823E-130
   38.6650000000000         8.100941348957153E-130
   38.8550000000000         1.929492863562927E-129
   39.0450000000000         3.861267901349484E-129
   39.2350000000000         6.974370008134152E-129
   39.4250000000000         1.168525745026522E-128
   39.6150000000000         1.836699197459919E-128
   39.8050000000000         2.716175680929845E-128
   39.9950000000000         3.764874649401279E-128
   40.1850000000000         4.831680126974489E-128
   40.3750000000000         5.580610722258406E-128
   40.5650000000000         5.393148874488169E-128
   40.7550000000000         3.260222726374692E-128
   40.9450000000000        -2.306715929544796E-128
   41.1350000000000        -1.328883917968558E-127
   41.3250000000000        -3.200513552558140E-127
   41.5150000000000        -6.066063376405849E-127
   41.7050000000000        -1.004485394538172E-126
   41.8950000000000        -1.500901923615734E-126
   42.0850000000000        -2.038462265046539E-126
   42.2750000000000        -2.493960470163065E-126
   42.4650000000000        -2.666944423617197E-126
   42.6550000000000        -2.301288747050038E-126
   42.8450000000000        -1.181483859163418E-126
   43.0350000000000         6.298372606611639E-127
   43.2250000000000         2.318653479933598E-126
   43.4150000000000         1.494569172020493E-126
   43.6050000000000        -7.096371837725248E-126
   43.7950000000000        -3.336070124392406E-125
   43.9850000000000        -9.398889694443996E-125
   44.1750000000000        -2.143479319085692E-124
   44.3650000000000        -4.287823446767027E-124
   44.5550000000000        -7.767007957463337E-124
   44.7450000000000        -1.289920183705931E-123
   44.9350000000000        -1.964155963699382E-123
   45.1250000000000        -2.704477672205292E-123
   45.3150000000000        -3.231661284490635E-123
   45.5050000000000        -2.935170642224835E-123
   45.6950000000000        -6.618256804048633E-124
   45.8850000000000         5.558166811243433E-123
   46.0750000000000         1.881693381479325E-122
   46.2650000000000         4.357952060002065E-122
   46.4550000000000         8.569687342437662E-122
   46.6450000000000         1.518499565872823E-121
   46.8350000000000         2.478814856018240E-121
   47.0250000000000         3.751975546541924E-121
   47.2150000000000         5.241128394017977E-121
   47.4050000000000         6.627459259947925E-121
   47.5950000000000         7.200014675865972E-121
   47.7850000000000         5.615798251624942E-121
   47.9750000000000        -4.072425093443422E-122
   48.1650000000000        -1.443284288716427E-120
   48.3550000000000        -4.159990249197791E-120
   48.5450000000000        -8.869399760504028E-120
   48.7350000000000        -1.636908101165549E-119
   48.9250000000000        -2.742801659992768E-119
   49.1150000000000        -4.246461920208373E-119
   49.3050000000000        -6.095235909453623E-119
   49.4950000000000        -8.043362378911989E-119
   49.6850000000000        -9.501772115769863E-119
   49.8750000000000        -9.327226297231815E-119
   50.0650000000000        -5.552166302689029E-119
   50.2550000000000         4.921071092912983E-119
   50.4450000000000         2.659779289986868E-118
   50.6350000000000         6.551114314523216E-118
   50.8250000000000         1.289589632608671E-117
   51.0150000000000         2.244991305926834E-117
   51.2050000000000         3.576816428332238E-117
   51.3950000000000         5.278196243822818E-117
   51.5850000000000         7.209566891369868E-117
   51.7750000000000         8.991571351502431E-117
   51.9650000000000         9.854648837366935E-117
   52.1550000000000         8.445529678160410E-117
   52.3450000000000         2.605028404566343E-117
   52.5350000000000        -1.084329106301287E-116
   52.7250000000000        -3.621382447985932E-116
   52.9150000000000        -7.885050903291510E-116
   53.1050000000000        -1.445718760421657E-115
   53.2950000000000        -2.383561151837302E-115
   53.4850000000000        -3.618509483462519E-115
   53.6750000000000        -5.092110008593896E-115
   53.8650000000000        -6.607487559558071E-115
   54.0550000000000        -7.740079405677619E-115
   54.2450000000000        -7.722387661025992E-115
   54.4350000000000        -5.310188955518165E-115
   54.6250000000000         1.348991158783248E-115
   54.8150000000000         1.480332704297068E-114
   55.0050000000000         3.826801159394130E-114
   55.1950000000000         7.536840472478152E-114
   55.3850000000000         1.294950690764231E-113
   55.5750000000000         2.025608982358490E-113
   55.7650000000000         2.929112325044468E-113
   55.9550000000000         3.921309654057066E-113
   56.1450000000000         4.805524142048447E-113
   56.3350000000000         5.214431455884613E-113
   56.5250000000000         4.542082562728356E-113
   56.7150000000000         1.875530333734394E-113
   56.9050000000000        -4.055020983198770E-113
   57.0950000000000        -1.487520960316913E-112
   57.2850000000000        -3.246485200908114E-112
   57.4750000000000        -5.868522703225231E-112
   57.6650000000000        -9.484386953119217E-112
   57.8550000000000        -1.407892710759111E-111
   58.0450000000000        -1.935256502735819E-111
   58.2350000000000        -2.452634419045685E-111
   58.4250000000000        -2.808936072368787E-111
   58.6150000000000        -2.750178911675951E-111
   58.8050000000000        -1.889110976767922E-111
   58.9950000000000         3.183664952745468E-112
   59.1850000000000         4.577298486671746E-111
   59.3750000000000         1.171894761252029E-110
   59.5650000000000         2.260013988540587E-110
   59.7550000000000         3.790180393880413E-110
   59.9450000000000         5.778599536810751E-110
   60.1350000000000         8.137010834417277E-110
   60.3250000000000         1.059865076930376E-109
   60.5150000000000         1.262221241834189E-109
   60.7050000000000         1.327839546615847E-109
   60.8950000000000         1.113222120578835E-109
   61.0850000000000         4.147192881621386E-110
   61.2750000000000        -1.034481138864298E-109
   61.4650000000000        -3.554146589887768E-109
   61.6550000000000        -7.484344729642958E-109
   61.8450000000000        -1.311855207807972E-108
   62.0350000000000        -2.058886120753125E-108
   62.2250000000000        -2.968948197570344E-108
   62.4150000000000        -3.962786422695206E-108
   62.6050000000000        -4.870122197496230E-108
   62.7950000000000        -5.391251470346430E-108
   62.9850000000000        -5.056677351168470E-108
   63.1750000000000        -3.192854884738746E-108
   63.3650000000000         1.092432493154656E-108
   63.5550000000000         8.884727014649702E-108
   63.7450000000000         2.136951683689276E-107
   63.9350000000000         3.963519684906851E-107
   64.1250000000000         6.433127309493302E-107
   64.3150000000000         9.514035660602622E-107
   64.5050000000000         1.300315647019913E-106
   64.6950000000000         1.642871044869079E-106
   64.8850000000000         1.893398243940263E-106
   65.0750000000000         1.915346079791783E-106
   65.2650000000000         1.510370271325815E-106
   65.4550000000000         4.126205956421977E-107
   65.6450000000000        -1.706188548508728E-106
   65.8350000000000        -5.213257852230363E-106
   66.0250000000000        -1.046304343840856E-105
   66.2150000000000        -1.770631073955042E-105
   66.4050000000000        -2.694864210565162E-105
   66.5950000000000        -3.774946272491101E-105
   66.7850000000000        -4.895881830356880E-105
   66.9750000000000        -5.840080640692083E-105
   67.1650000000000        -6.253146019244510E-105
   67.3550000000000        -5.612648659340579E-105
   67.5450000000000        -3.209128033513479E-105
   67.7350000000000         1.846873416152824E-105
   67.9250000000000         1.057284406167396E-104
   68.1150000000000         2.399357908797233E-104
   68.3050000000000         4.292430923439710E-104
   68.4950000000000         6.762990218867448E-104
   68.6850000000000         9.733763902017534E-104
   68.8750000000000         1.295951963160646E-103
   69.0650000000000         1.594921111263254E-103
   69.2550000000000         1.788059349895106E-103
   69.4450000000000         1.751966239255993E-103
   69.6350000000000         1.316558263480849E-103
   69.8250000000000         2.651962995370672E-104
   70.0150000000000        -1.655333780931434E-103
   70.2050000000000        -4.709673951419517E-103
   70.3950000000000        -9.127465493894375E-103
   70.5850000000000        -1.502939751508402E-102
   70.7750000000000        -2.232055806431016E-102
   70.9650000000000        -3.054882457112116E-102
   71.1550000000000        -3.873152762628343E-102
   71.3450000000000        -4.516245397083419E-102
   71.5350000000000        -4.722402805413266E-102
   71.7250000000000        -4.124646920846213E-102
   71.9150000000000        -2.247643434398233E-102
   72.1050000000000         1.475936377303795E-102
   72.2950000000000         7.658781766818402E-102
   72.4850000000000         1.686960440837950E-101
   72.6750000000000         2.948830361704170E-101
   72.8650000000000         4.549476149078418E-101
   73.0550000000000         6.418580807644791E-101
   73.2450000000000         8.382517455486029E-101
   73.4350000000000         1.012477571171776E-100
   73.6250000000000         1.114633289952103E-100
   73.8150000000000         1.073363657897205E-100
   74.0050000000000         7.945707110977305E-101
   74.1950000000000         1.636129633465953E-101
   74.3850000000000        -9.470151345665962E-101
   74.5750000000000        -2.662216929654317E-100
   74.7650000000000        -5.078645285980397E-100
   74.9550000000000        -8.226784639009839E-100
   75.1450000000000        -1.201958729825944E-099
   75.3350000000000        -1.618823522701041E-099
   75.5250000000000        -2.020840935765305E-099
   75.7150000000000        -2.322450108536708E-099
   75.9050000000000        -2.398455769159457E-099
   76.0950000000000        -2.080527516459394E-099
   76.2850000000000        -1.159358969439034E-099
   76.4750000000000         6.041500964559774E-100
   76.6650000000000         3.454774568568699E-099
   76.8550000000000         7.601803572650707E-099
   77.0450000000000         1.315717408868826E-098
   77.2350000000000         2.005062921044276E-098
   77.4250000000000         2.792234330959279E-098
   77.6150000000000         3.599783518269720E-098
   77.8050000000000         4.295630746123901E-098
   77.9950000000000         4.681189838561413E-098
   78.1850000000000         4.483749449550927E-098
   78.3750000000000         3.357205140260337E-098
   78.5650000000000         8.963496627602278E-099
   78.7550000000000        -3.329185159384604E-098
   78.9450000000000        -9.714881915790971E-098
   79.1350000000000        -1.852929232673119E-097
   79.3250000000000        -2.978604872191623E-097
   79.5150000000000        -4.307984602393269E-097
   79.7050000000000        -5.739257473655596E-097
   79.8950000000000        -7.088484414896022E-097
   80.0850000000000        -8.070011439646890E-097
   80.2750000000000        -8.282325350445143E-097
   80.4650000000000        -7.205160922341628E-097
   80.6550000000000        -4.215283322533395E-097
   80.8450000000000         1.370314914407404E-097
   81.0350000000000         1.021445383470793E-096
   81.2250000000000         2.283432095423062E-096
   81.4150000000000         3.942431469352275E-096
   81.6050000000000         5.962600494166113E-096
   81.7950000000000         8.225231685917485E-096
   81.9850000000000         1.049850512116791E-095
   82.1750000000000         1.240807648154515E-095
   82.3650000000000         1.341394635012589E-095
   82.5550000000000         1.280123045357460E-095
   82.7450000000000         9.694627178044731E-096
   82.9350000000000         3.108194328874334E-096
   83.1250000000000        -7.957011643721989E-096
   83.3150000000000        -2.435547825912811E-095
   83.5050000000000        -4.657093352053259E-095
   83.6950000000000        -7.441828620590024E-095
   83.8850000000000        -1.066810326680051E-094
   84.0750000000000        -1.407061349782943E-094
   84.2650000000000        -1.719980376575805E-094
   84.4550000000000        -1.938775952775736E-094
   84.6450000000000        -1.972988195470108E-094
   84.8350000000000        -1.709438207132680E-094
   85.0250000000000        -1.017398400797074E-094
   85.2150000000000         2.404418318748441E-095
   85.4050000000000         2.189682879517877E-094
   85.5950000000000         4.917374438821291E-094
   85.7850000000000         8.436091876599230E-094
   85.9750000000000         1.263954552680881E-093
   86.1650000000000         1.725203539422346E-093
   86.3550000000000         2.177633564092561E-093
   86.5450000000000         2.544739759618905E-093
   86.7350000000000         2.720244587735273E-093
   86.9250000000000         2.568131589450039E-093
   87.1150000000000         1.927377519379343E-093
   87.3050000000000         6.232424295874954E-094
   87.4950000000000        -1.513027172752880E-093
   87.6850000000000        -4.614523466511103E-093
   87.8750000000000        -8.738172603658214E-093
   88.0650000000000        -1.381375578455779E-092
   88.2550000000000        -1.958462738418946E-092
   88.4450000000000        -2.554476182697202E-092
   88.6350000000000        -3.087983297150852E-092
   88.8250000000000        -3.442356902067985E-092
   89.0150000000000        -3.464434027851863E-092
   89.2050000000000        -2.968035359163858E-092
   89.3950000000000        -1.744426969727672E-092
   89.5850000000000         4.181355812622298E-093
   89.7750000000000         3.703874659421899E-092
   89.9650000000000         8.226707945235909E-092
   90.1550000000000         1.397512786813108E-091
   90.3450000000000         2.074645850434069E-091
   90.5350000000000         2.807469776948045E-091
   90.7250000000000         3.515932202783047E-091
   90.9150000000000         4.080615811775767E-091
   91.1050000000000         4.339545324625658E-091
   91.2950000000000         4.089615831321745E-091
   91.4850000000000         3.094854451054807E-091
   91.6750000000000         1.103874431342447E-091
   91.8650000000000        -2.121240087704839E-091
   92.0550000000000        -6.762888213048862E-091
   92.2450000000000        -1.289203273411292E-090
   92.4350000000000        -2.039933396059937E-090
   92.6250000000000        -2.891660479709562E-090
   92.8150000000000        -3.773491560652829E-090
   93.0050000000000        -4.572938462618864E-090
   93.1950000000000        -5.130484230613069E-090
   93.3850000000000        -5.238079283863873E-090
   93.5750000000000        -4.643785967283596E-090
   93.7650000000000        -3.065043371794851E-090
   93.9550000000000        -2.130581118168745E-091
   94.1450000000000         4.169471745180036E-090
   94.3350000000000         1.025584547842289E-089
   94.5250000000000         1.806793420652226E-089
   94.7150000000000         2.739571411883393E-089
   94.9050000000000         3.770835998255203E-089
   95.0950000000000         4.806494093997789E-089
   95.2850000000000         5.703679285108276E-089
   95.4750000000000         6.265800822222183E-089
   95.6650000000000         6.242476124225092E-089
   95.8550000000000         5.336775624212671E-089
   96.0450000000000         3.222413846728612E-089
   96.2350000000000        -4.265263985940228E-090
   96.4250000000000        -5.891163156930071E-089
   96.6150000000000        -1.334740422012879E-088
   96.8050000000000        -2.278978237738145E-088
   96.9950000000000        -3.394195316777026E-088
   97.1850000000000        -4.615919207179598E-088
   97.3750000000000        -5.833184764007432E-088
   97.5650000000000        -6.880288829349755E-088
   97.7550000000000        -7.531715092839847E-088
   97.9450000000000        -7.502422319458037E-088
   98.1350000000000        -6.456044901419630E-088
   98.3250000000000        -4.023752902667052E-088
   98.5150000000000         1.635391716960344E-089
   98.7050000000000         6.427351781540693E-088
   98.8950000000000         1.497685696441372E-087
   99.0850000000000         2.582729098603000E-087
   99.2750000000000         3.870391838877637E-087
   99.4650000000000         5.293683134235819E-087
   99.6550000000000         6.735550488596416E-087
   99.8450000000000         8.019625197468344E-087
   100.035000000000         8.904028352961680E-087
   100.225000000000         9.080457450556067E-087
   100.415000000000         8.181158763229629E-087
   100.605000000000         5.796634582530124E-087
   100.795000000000         1.506942716956967E-087
   100.985000000000        -5.070890925793986E-087
   101.175000000000        -1.421762479100292E-086
   101.365000000000        -2.602837420783454E-086
   101.555000000000        -4.031271299678563E-086
   101.745000000000        -5.648280735572565E-086
   101.935000000000        -7.343762334360672E-086
   102.125000000000        -8.945544797417096E-086
   102.315000000000        -1.021116232805918E-085
   102.505000000000        -1.082431669791529E-085
   102.695000000000        -1.039863257110838E-085
   102.885000000000        -8.491637277621667E-086
   103.075000000000        -4.632022767850588E-086
   103.265000000000         1.636932448821787E-086
   103.455000000000         1.069550854746341E-085
   103.645000000000         2.276613621355953E-085
   103.835000000000         3.781312703742381E-085
   104.025000000000         5.542679380336717E-085
   104.215000000000         7.469855545069891E-085
   104.405000000000         9.409771061367577E-085
   104.595000000000         1.113652543205829E-084
   104.785000000000         1.234451238243076E-084
   104.975000000000         1.264781453068321E-084
   105.165000000000         1.158880792453787E-084
   105.355000000000         8.659169669530706E-085
   105.545000000000         3.336474108036860E-085
   105.735000000000        -4.860823329935389E-085
   105.925000000000        -1.629810604321537E-084
   106.115000000000        -3.112862893169620E-084
   106.305000000000        -4.917872135396333E-084
   106.495000000000        -6.981906186444774E-084
   106.685000000000        -9.183076502689029E-084
   106.875000000000        -1.132795595289772E-083
   107.065000000000        -1.314163561211060E-083
   107.255000000000        -1.426276289695129E-083
   107.445000000000        -1.424637108001676E-083
   107.635000000000        -1.257765830894343E-083
   107.825000000000        -8.700008903683136E-084
   108.015000000000        -2.060360644005834E-084
   108.205000000000         7.825611901488720E-084
   108.395000000000         2.128722810967009E-083
   108.585000000000         3.839205181304381E-083
   108.775000000000         5.882189587543267E-083
   108.965000000000         8.173821993147060E-083
   109.155000000000         1.056476841562537E-082
   109.345000000000         1.282832987540704E-082
   109.535000000000         1.465215368427895E-082
   109.725000000000         1.563604966558853E-082
   109.915000000000         1.529880734205496E-082
   110.105000000000         1.309713248670024E-082