  -1.42500000000000         0.000000000000000E+000
  -1.23500000000000         0.000000000000000E+000
  -1.04500000000000         0.000000000000000E+000
 -0.855000000000000         0.000000000000000E+000
 -0.665000000000000         0.000000000000000E+000
 -0.475000000000000         0.000000000000000E+000
 -0.285000000000000         0.000000000000000E+000
 -9.499999999999975E-002    0.000000000000000E+000
  9.500000000000020E-002    0.000000000000000E+000
  0.285000000000000         0.000000000000000E+000
  0.475000000000000         0.000000000000000E+000
  0.665000000000000         0.000000000000000E+000
  0.855000000000000         0.000000000000000E+000
   1.04500000000000         0.000000000000000E+000
   1.23500000000000         0.000000000000000E+000
   1.42500000000000         0.000000000000000E+000
   1.61500000000000         0.000000000000000E+000
   1.80500000000000         0.000000000000000E+000
   1.99500000000000         0.000000000000000E+000
   2.18500000000000         0.000000000000000E+000
   2.37500000000000         0.000000000000000E+000
   2.56500000000000         0.000000000000000E+000
   2.75500000000000         0.000000000000000E+000
   2.94500000000000         0.000000000000000E+000
   3.13500000000000         0.000000000000000E+000
   3.32500000000000         0.000000000000000E+000
   3.51500000000000         0.000000000000000E+000
   3.70500000000000         0.000000000000000E+000
   3.89500000000000         0.000000000000000E+000
   4.08500000000000         0.000000000000000E+000
   4.27500000000000         0.000000000000000E+000
   4.46500000000000         0.000000000000000E+000
   4.65500000000000         0.000000000000000E+000
   4.84500000000000         0.000000000000000E+000
   5.03500000000000         0.000000000000000E+000
   5.22500000000000         0.000000000000000E+000
   5.41500000000000         0.000000000000000E+000
   5.60500000000000         0.000000000000000E+000
   5.79500000000000         0.000000000000000E+000
   5.98500000000000         0.000000000000000E+000
   6.17500000000000         0.000000000000000E+000
   6.36500000000000         0.000000000000000E+000
   6.55500000000000         0.000000000000000E+000
   6.74500000000000         0.000000000000000E+000
   6.93500000000000         0.000000000000000E+000
   7.12500000000000         0.000000000000000E+000
   7.31500000000000         0.000000000000000E+000
   7.50500000000000         0.000000000000000E+000
   7.69500000000000         0.000000000000000E+000
   7.88500000000000         0.000000000000000E+000
   8.07500000000000         0.000000000000000E+000
   8.26500000000000        -4.422436106197664E-232
   8.45500000000000         8.561049456588548E-226
   8.64500000000000         2.950751079385756E-209
   8.83500000000000        -4.446575348228484E-203
   9.02500000000000         2.629340580845357E-200
   9.21500000000000         1.723698758536366E-199
   9.40500000000000        -3.541706497351839E-197
   9.59500000000000        -9.834522107793479E-196
   9.78500000000000        -2.619284645380788E-195
   9.97500000000000         2.585983629174252E-193
   10.1650000000000        -3.527652538951970E-193
   10.3550000000000        -3.255014160225621E-190
   10.5450000000000        -1.275955846126790E-188
   10.7350000000000        -3.088924786259827E-187
   10.9250000000000        -5.673723054046745E-186
   11.1150000000000        -8.553686719082760E-185
   11.3050000000000        -1.103501602690323E-183
   11.4950000000000        -1.250335299154584E-182
   11.6850000000000        -1.266699495052871E-181
   11.8750000000000        -1.162475825350746E-180
   12.0650000000000        -9.760627216456951E-180
   12.2550000000000        -7.556890908257015E-179
   12.4450000000000        -5.428606857769012E-178
   12.6350000000000        -3.636647830493985E-177
   12.8250000000000        -2.281144172323112E-176
   13.0150000000000        -1.344199880063432E-175
   13.2050000000000        -7.460117314874858E-175
   13.3950000000000        -3.906764483687522E-174
   13.5850000000000        -1.932866597768337E-173
   13.7750000000000        -9.038520918306302E-173
   13.9650000000000        -3.993090949171305E-172
   14.1550000000000        -1.663885730993655E-171
   14.3450000000000        -6.517316694044043E-171
   14.5350000000000        -2.384794433182415E-170
   14.7250000000000        -8.060505353380577E-170
   14.9150000000000        -2.461875226871786E-169
   15.1050000000000        -6.466670952821291E-169
   15.2950000000000        -1.253659101479488E-168
   15.4850000000000        -3.080579973520026E-169
   15.6750000000000         1.347448175389740E-167
   15.8650000000000         9.284365255864066E-167
   16.0550000000000         4.467009928222675E-166
   16.2450000000000         1.805458527864766E-165
   16.4350000000000         6.437857943708216E-165
   16.6250000000000         2.046861342477120E-164
   16.8150000000000         5.714409939604506E-164
   17.0050000000000         1.317407492418624E-163
   17.1950000000000         1.938823033293464E-163
   17.3850000000000        -2.406875920801874E-163
   17.5750000000000        -3.662765873444457E-162
   17.7650000000000        -2.046075397563553E-161
   17.9550000000000        -8.905996583983223E-161
   18.1450000000000        -3.399007975519626E-160
   18.3350000000000        -1.185951967642478E-159
   18.5250000000000        -3.856248604964345E-159
   18.7150000000000        -1.179992295382289E-158
   18.9050000000000        -3.413887812936945E-158
   19.0950000000000        -9.350089902940045E-158
   19.2850000000000        -2.419628665283529E-157
   19.4750000000000        -5.881805739229082E-157
   19.6650000000000        -1.326689580504724E-156
   19.8550000000000        -2.706342345798448E-156
   20.0450000000000        -4.692045637016547E-156
   20.2350000000000        -5.537806121526313E-156
   20.4250000000000         2.934061437328410E-156
   20.6150000000000         4.902969722920578E-155
   20.8050000000000         2.173972557410086E-154
   20.9950000000000         7.376818110662699E-154
   21.1850000000000         2.186692945736767E-153
   21.3750000000000         5.917827339228485E-153
   21.5650000000000         1.490660081481512E-152
   21.7550000000000         3.527974427576065E-152
   21.9450000000000         7.882540046403484E-152
   22.1350000000000         1.667314240106864E-151
   22.3250000000000         3.350452403681722E-151
   22.5150000000000         6.453139016810671E-151
   22.7050000000000         1.219589950612217E-150
   22.8950000000000         2.382033446956770E-150
   23.0850000000000         5.205833851300231E-150
   23.2750000000000         1.343467337095234E-149
   23.4650000000000         3.967107184731950E-149
   23.6550000000000         1.239114030068911E-148
   23.8450000000000         3.857942071400979E-148
   24.0350000000000         1.164446892574280E-147
   24.2250000000000         3.376175449242142E-147
   24.4150000000000         9.392723312541939E-147
   24.6050000000000         2.511811628731247E-146
   24.7950000000000         6.472892374870583E-146
   24.9850000000000         1.611309490314946E-145
   25.1750000000000         3.882650820066176E-145
   25.3650000000000         9.071089745088372E-145
   25.5550000000000         2.057292311694634E-144
   25.7450000000000         4.532893693885792E-144
   25.9350000000000         9.706178026803963E-144
   26.1250000000000         2.019598114916206E-143
   26.3150000000000         4.080827831730182E-143
   26.5050000000000         7.997198126865037E-143
   26.6950000000000         1.516674866044388E-142
   26.8850000000000         2.774053282050141E-142
   27.0750000000000         4.866582015581896E-142
   27.2650000000000         8.115178437670875E-142
   27.4550000000000         1.265878262752664E-141
   27.6450000000000         1.788895559430440E-141
   27.8350000000000         2.113486230009935E-141
   28.0250000000000         1.488872562034270E-141
   28.2150000000000        -1.862383286780734E-141
   28.4050000000000        -1.173766935280603E-140
   28.5950000000000        -3.565093168571380E-140
   28.7850000000000        -8.750915189834687E-140
   28.9750000000000        -1.914036629546875E-139
   29.1650000000000        -3.860804927702861E-139
   29.3550000000000        -7.281283332050295E-139
   29.5450000000000        -1.288473144173788E-138
   29.7350000000000        -2.129729217605335E-138
   29.9250000000000        -3.238667922828569E-138
   30.1150000000000        -4.364635555340591E-138
   30.3050000000000        -4.676147119167787E-138
   30.4950000000000        -2.088915020116351E-138
   30.6850000000000         7.963140720150070E-138
   30.8750000000000         3.463958056096164E-137
   31.0650000000000         9.509579459435252E-137
   31.2550000000000         2.195729112971590E-136
   31.4450000000000         4.583001144873102E-136
   31.6350000000000         8.894808746558169E-136
   31.8250000000000         1.625638668329010E-135
   32.0150000000000         2.811550107345859E-135
   32.2050000000000         4.599538935475618E-135
   32.3950000000000         7.075220405458469E-135
   32.5850000000000         1.008677532052684E-134
   32.7750000000000         1.290178450735389E-134
   32.9650000000000         1.357777579590668E-134
   33.1550000000000         7.891080231360785E-135
   33.3450000000000        -1.236120180507865E-134
   33.5350000000000        -6.185505292315082E-134
   33.7250000000000        -1.650700014132222E-133
   33.9150000000000        -3.601430520382958E-133
   34.1050000000000        -7.021724178620718E-133
   34.2950000000000        -1.263467579628694E-132
   34.4850000000000        -2.125799589256449E-132
   34.6750000000000        -3.355865678495476E-132
   34.8650000000000        -4.949635637844782E-132
   35.0550000000000        -6.724005891942143E-132
   35.2450000000000        -8.126031763094253E-132
   35.4350000000000        -7.923217174616682E-132
   35.6250000000000        -3.737756323244929E-132
   35.8150000000000         8.597954424227701E-132
   36.0050000000000         3.584347086202174E-131
   36.1950000000000         8.819492899533872E-131
   36.3850000000000         1.798846588554685E-130
   36.5750000000000         3.289662680395257E-130
   36.7650000000000         5.552969163049616E-130
   36.9550000000000         8.751676757306452E-130
   37.1450000000000         1.290375968984367E-129
   37.3350000000000         1.768923603740718E-129
   37.5250000000000         2.214259415163271E-129
   37.7150000000000         2.420591689305511E-129
   37.9050000000000         2.014076108436447E-129
   38.0950000000000         3.847175430579051E-130
   38.2850000000000        -3.377182120348836E-129
   38.4750000000000        -1.051230064381845E-128
   38.6650000000000        -2.254490804345757E-128
   38.8550000000000        -4.108964921457754E-128
   39.0450000000000        -6.742974907593141E-128
   39.2350000000000        -1.017884057304319E-127
   39.4250000000000        -1.422655147663643E-127
   39.6150000000000        -1.835473306419378E-127
   39.8050000000000        -2.157694931896502E-127
   39.9950000000000        -2.243819190571858E-127
   40.1850000000000        -1.925699199636923E-127
   40.3750000000000        -1.087129313285497E-127
   40.5650000000000         1.764395768345428E-128
   40.7550000000000         1.271880561039452E-127
   40.9450000000000         6.606269992356278E-128
   41.1350000000000        -4.752905305684459E-127
   41.3250000000000        -2.031288146666896E-126
   41.5150000000000        -5.412501298482297E-126
   41.7050000000000        -1.168211850862457E-125
   41.8950000000000        -2.195050369486755E-125
   42.0850000000000        -3.680728425659651E-125
   42.2750000000000        -5.511317717872954E-125
   42.4650000000000        -7.176222734271201E-125
   42.6550000000000        -7.392768641638269E-125
   42.8450000000000        -3.528241404038240E-125
   43.0350000000000         9.215051099241839E-125
   43.2250000000000         3.883240864481625E-124
   43.4150000000000         9.762876499966563E-124
   43.6050000000000         2.030486084873242E-123
   43.7950000000000         3.774861867174137E-123
   43.9850000000000         6.457570453104721E-123
   44.1750000000000         1.028084546863574E-122
   44.3650000000000         1.525381823479145E-122
   44.5550000000000         2.092382908743314E-122
   44.7450000000000         2.593060438130029E-122
   44.9350000000000         2.732311079076378E-122
   45.1250000000000         1.959079484505165E-122
   45.3150000000000        -6.594758028657197E-123
   45.5050000000000        -6.583117077976521E-122
   45.6950000000000        -1.793437145313728E-121
   45.8850000000000        -3.756462757367097E-121
   46.0750000000000        -6.894084836712189E-121
   46.2650000000000        -1.156731551276576E-120
   46.4550000000000        -1.804117726484187E-120
   46.6450000000000        -2.627341151293938E-120
   46.8350000000000        -3.555367585700663E-120
   47.0250000000000        -4.393799247736092E-120
   47.2150000000000        -4.742706969105185E-120
   47.4050000000000        -3.886233121870082E-120
   47.5950000000000        -6.576029687657304E-121
   47.7850000000000         6.704649793693175E-120
   47.9750000000000         2.067264218542904E-119
   48.1650000000000         4.444829002332219E-119
   48.3550000000000         8.177007344936193E-119
   48.5450000000000         1.363301234851235E-118
   48.7350000000000         2.105501334893023E-118
   48.9250000000000         3.033873045623325E-118
   49.1150000000000         4.067814770787991E-118
   49.3050000000000         5.003484556835226E-118
   49.4950000000000         5.440314108700358E-118
   49.6850000000000         4.687293976695494E-118
   49.8750000000000         1.655481618764268E-118
   50.0650000000000        -5.245889616704747E-118
   50.2550000000000        -1.817510345601580E-117
   50.4450000000000        -3.982588356252204E-117
   50.6350000000000        -7.320453201458055E-117
   50.8250000000000        -1.210823563497444E-116
   51.0150000000000        -1.849451987625781E-116
   51.2050000000000        -2.632234603693359E-116
   51.3950000000000        -3.485700884460800E-116
   51.5850000000000        -4.239873726849862E-116
   51.7750000000000        -4.577255045103698E-116
   51.9650000000000        -3.971401227930819E-116
   52.1550000000000        -1.621688382101020E-116
   52.3450000000000         3.601583792165092E-116
   52.5350000000000         1.317655012269247E-115
   52.7250000000000         2.887345855040891E-115
   52.9150000000000         5.256397028165451E-115
   53.1050000000000         8.581670243617571E-115
   53.2950000000000         1.291802778080988E-114
   53.4850000000000         1.810434229420474E-114
   53.6750000000000         2.359677348536680E-114
   53.8650000000000         2.824275639684362E-114
   54.0550000000000         2.999832847849493E-114
   54.2450000000000         2.560842602021108E-114
   54.4350000000000         1.029743485507314E-114
   54.6250000000000        -2.244170746346290E-114
   54.8150000000000        -8.081538614917173E-114
   55.0050000000000        -1.742386908895202E-113
   55.1950000000000        -3.120892966288618E-113
   55.3850000000000        -5.013273808598741E-113
   55.5750000000000        -7.425416573425392E-113
   55.7650000000000        -1.023972593338701E-112
   55.9550000000000        -1.313155335973211E-112
   56.1450000000000        -1.546082366444005E-112
   56.3350000000000        -1.614292041288123E-112
   56.5250000000000        -1.351138786066024E-112
   56.7150000000000        -5.197891202106905E-113
   56.9050000000000         1.192710694053123E-112
   57.0950000000000         4.168615725620072E-112
   57.2850000000000         8.830452833053418E-112
   57.4750000000000         1.557735493712612E-111
   57.6650000000000         2.467169657178663E-111
   57.8550000000000         3.605952753012599E-111
   58.0450000000000         4.910936932494532E-111
   58.2350000000000         6.225934549700373E-111
   58.4250000000000         7.257472764854138E-111
   58.6150000000000         7.523961574209115E-111
   58.8050000000000         6.304066886855108E-111
   58.9950000000000         2.595033536630081E-111
   59.1850000000000        -4.901637904374549E-111
   59.3750000000000        -1.774144358294905E-110
   59.5650000000000        -3.760981380322119E-110
   59.7550000000000        -6.606178904641539E-110
   59.9450000000000        -1.040755030810911E-109
   60.1350000000000        -1.513632916665375E-109
   60.3250000000000        -2.053901328937866E-109
   60.5150000000000        -2.600701169863827E-109
   60.7050000000000        -3.041552785216162E-109
   60.8950000000000        -3.194062210826556E-109
   61.0850000000000        -2.787498586203019E-109
   61.2750000000000        -1.447947043005983E-109
   61.4650000000000         1.307063907084952E-109
   61.6550000000000         6.055838978039178E-109
   61.8450000000000         1.342995638496592E-108
   62.0350000000000         2.402692571799711E-108
   62.2250000000000         3.826038781251854E-108
   62.4150000000000         5.612882961162052E-108
   62.6050000000000         7.688513979296262E-108
   62.7950000000000         9.859520813783043E-108
   62.9850000000000         1.175865176985067E-107
   63.1750000000000         1.278101160645242E-107
   63.3650000000000         1.201746079708447E-107
   63.5550000000000         8.196195514299196E-108
   63.7450000000000        -3.495723005891719E-109
   63.9350000000000        -1.566107928625621E-107
   64.1250000000000        -4.004337665299426E-107
   64.3150000000000        -7.581597106135490E-107
   64.5050000000000        -1.248653502758647E-106
   64.6950000000000        -1.879324435875382E-106
   64.8850000000000        -2.635676912005318E-106
   65.0750000000000        -3.466989025164468E-106
   65.2650000000000        -4.267901152379659E-106
   65.4550000000000        -4.856328408296751E-106
   65.6450000000000        -4.949156269864264E-106
   65.8350000000000        -4.138756586739796E-106
   66.0250000000000        -1.875577937838287E-106
   66.2150000000000         2.535017508555995E-106
   66.4050000000000         9.909907599260169E-106
   66.5950000000000         2.112351488723937E-105
   66.7850000000000         3.698129492237971E-105
   66.9750000000000         5.800804855712187E-105
   67.1650000000000         8.412630453235680E-105
   67.3550000000000         1.142024759185081E-104
   67.5450000000000         1.454473356819968E-104
   67.7350000000000         1.726758112807490E-104
   67.9250000000000         1.874629742246906E-104
   68.1150000000000         1.772824586573957E-104
   68.3050000000000         1.247840583175051E-104
   68.4950000000000         7.461155678735068E-106
   68.6850000000000        -2.019248642929106E-104
   68.8750000000000        -5.336629806286259E-104
   69.0650000000000        -1.017517811223469E-103
   69.2550000000000        -1.676513095989216E-103
   69.4450000000000        -2.517274886419187E-103
   69.6350000000000        -3.516207401981299E-103
   69.8250000000000        -4.601045377391524E-103
   70.0150000000000        -5.627894263196071E-103
   70.2050000000000        -6.354845023351743E-103
   70.3950000000000        -6.414746556582735E-103
   70.5850000000000        -5.291829538609682E-103
   70.7750000000000        -2.309641518175751E-103
   70.9650000000000         3.358885024628941E-103
   71.1550000000000         1.264467410185780E-102
   71.3450000000000         2.648084948440567E-102
   71.5350000000000         4.562518856968218E-102
   71.7250000000000         7.038495994884639E-102
   71.9150000000000         1.002253704404448E-101
   72.1050000000000         1.332515971809202E-101
   72.2950000000000         1.655714288722304E-101
   72.4850000000000         1.905735749657560E-101
   72.6750000000000         1.981982058671159E-101
   72.8650000000000         1.743329144337036E-101
   73.0550000000000         1.005389558911098E-101
   73.2450000000000        -4.560369622718198E-102
   73.4350000000000        -2.891556975371153E-101
   73.6250000000000        -6.550260380191367E-101
   73.8150000000000        -1.163223054910848E-100
   74.0050000000000        -1.821655303604932E-100
   74.1950000000000        -2.616100955563532E-100
   74.3850000000000        -3.497225561438629E-100
   74.5750000000000        -4.364992174069125E-100
   74.7650000000000        -5.051527914110044E-100
   74.9550000000000        -5.304528517239696E-100
   75.1450000000000        -4.774611733924575E-100
   75.3350000000000        -3.011638516336045E-100
   75.5250000000000         5.231987766171651E-101
   75.7150000000000         6.420978481381474E-100
   75.9050000000000         1.525443416652653E-099
   76.0950000000000         2.746272559707816E-099
   76.2850000000000         4.318225825373591E-099
   76.4750000000000         6.201764816742302E-099
   76.6650000000000         8.275368685897703E-099
   76.8550000000000         1.030202123947759E-098
   77.0450000000000         1.189379717704752E-098
   77.2350000000000         1.247953321828352E-098
   77.4250000000000         1.128328415911774E-098
   77.6150000000000         7.324384365409951E-099
   77.8050000000000        -5.468234275033372E-100
   77.9950000000000        -1.356065517761136E-098
   78.1850000000000        -3.286843444835862E-098
   78.3750000000000        -5.929313120948008E-098
   78.5650000000000        -9.297558680557999E-098
   78.7550000000000        -1.329101552698904E-097
   78.9450000000000        -1.763785408889971E-097
   79.1350000000000        -2.183134267392618E-097
   79.3250000000000        -2.506551774760155E-097
   79.5150000000000        -2.618055913716383E-097
   79.7050000000000        -2.363310666738641E-097
   79.8950000000000        -1.551202492798316E-097
   80.0850000000000         3.747912620745266E-099
   80.2750000000000         2.631303249634473E-097
   80.4650000000000         6.436300907698457E-097
   80.6550000000000         1.158808528260253E-096
   80.8450000000000         1.808606773218313E-096
   81.0350000000000         2.570960982153259E-096
   81.2250000000000         3.391879238992051E-096
   81.4150000000000         4.174658242731687E-096
   81.6050000000000         4.769461810319400E-096
   81.7950000000000         4.965152465865863E-096
   81.9850000000000         4.486028119311578E-096
   82.1750000000000         2.996900182861487E-096
   82.3650000000000         1.206467290054395E-097
   82.5550000000000        -4.527175958526465E-096
   82.7450000000000        -1.128209094677667E-095
   82.9350000000000        -2.034898845782149E-095
   83.1250000000000        -3.169285939501761E-095
   83.3150000000000        -4.490297273561600E-095
   83.5050000000000        -5.903618100421913E-095
   83.6950000000000        -7.245150980296419E-095
   83.8850000000000        -8.265645513919423E-095
   84.0750000000000        -8.619521820457343E-095
   84.2650000000000        -7.861981746208654E-095
   84.4550000000000        -5.459551304087340E-095
   84.6450000000000        -8.200558076981113E-096
   84.8350000000000         6.651538587056149E-095
   85.0250000000000         1.746527465598033E-094
   85.2150000000000         3.192156989549667E-094
   85.4050000000000         4.994784816554108E-094
   85.5950000000000         7.089914389869433E-094
   85.7850000000000         9.333217928243281E-094
   85.9750000000000         1.147715013588493E-093
   86.1650000000000         1.314975512732297E-093
   86.3550000000000         1.383995601952371E-093
   86.5450000000000         1.289499706443761E-093
   86.7350000000000         9.537009947299765E-094
   86.9250000000000         2.906671262380870E-094
   87.1150000000000        -7.857695677333447E-094
   87.3050000000000        -2.349781869014473E-093
   87.4950000000000        -4.446422792990853E-093
   87.6850000000000        -7.069418912578365E-093
   87.8750000000000        -1.013431130731858E-092
   88.0650000000000        -1.344825167219199E-092
   88.2550000000000        -1.667891373699769E-092
   88.4450000000000        -1.932638902090482E-092
   88.6350000000000        -2.070353846888856E-092
   88.8250000000000        -1.993194700637924E-092
   89.0150000000000        -1.596218508108247E-092
   89.2050000000000        -7.628248221836334E-093
   89.3950000000000         6.253532676635825E-093
   89.5850000000000         2.673157403246389E-092
   89.7750000000000         5.450500457667897E-092
   89.9650000000000         8.964601034755599E-092
   90.1550000000000         1.312633271451244E-091
   90.3450000000000         1.771219437067596E-091
   90.5350000000000         2.232475473141930E-091
   90.7250000000000         2.635606879393473E-091
   90.9150000000000         2.896043754525321E-091
   91.1050000000000         2.904485416915432E-091
   91.2950000000000         2.528734086063337E-091
   91.4850000000000         1.619483404332460E-091
   91.6750000000000         2.129332813395876E-093
   91.8650000000000        -2.410078596837207E-091
   92.0550000000000        -5.783062913650649E-091
   92.2450000000000        -1.013793733216197E-090
   92.4350000000000        -1.540709406596213E-090
   92.6250000000000        -2.136936900169898E-090
   92.8150000000000        -2.760136896715303E-090
   93.0050000000000        -3.343056910030518E-090
   93.1950000000000        -3.789708019996169E-090
   93.3850000000000        -3.973327859330733E-090
   93.5750000000000        -3.737273850564361E-090
   93.7650000000000        -2.900180294365373E-090
   93.9550000000000        -1.266826306905417E-090
   94.1450000000000         1.353852619939256E-090
   94.3350000000000         5.122378842003849E-090
   94.5250000000000         1.013319813224797E-089
   94.7150000000000         1.636999847125721E-089
   94.9050000000000         2.365303852098265E-089
   95.0950000000000         3.158121394382443E-089
   95.2850000000000         3.947358384596648E-089
   95.4750000000000         4.631745094110503E-089
   95.6650000000000         5.073272290472548E-089
   95.8550000000000         5.096497537408691E-089
   96.0450000000000         4.492207928506948E-089
   96.2350000000000         3.027101770934757E-089
   96.4250000000000         4.612048047634488E-090
   96.6150000000000        -3.425400075617901E-089
   96.8050000000000        -8.795351840086984E-089
   96.9950000000000        -1.570586499604524E-088
   97.1850000000000        -2.405038236593670E-088
   97.3750000000000        -3.349237985474761E-088
   97.5650000000000        -4.339579664093640E-088
   97.7550000000000        -5.275914745200992E-088
   97.9450000000000        -6.016331706053089E-088
   98.1350000000000        -6.374614304300832E-088
   98.3250000000000        -6.121984699758432E-088
   98.5150000000000        -4.994973007526051E-088
   98.7050000000000        -2.711371961858929E-088
   98.8950000000000         1.003837804234157E-088
   99.0850000000000         6.381051917387170E-088
   99.2750000000000         1.355626072210939E-087
   99.4650000000000         2.250923369831612E-087
   99.6550000000000         3.299163628586804E-087
   99.8450000000000         4.444924109781160E-087
   100.035000000000         5.594511117922904E-087
   100.225000000000         6.609377200142342E-087
   100.415000000000         7.301975447206881E-087
   100.605000000000         7.435716435224067E-087
   100.795000000000         6.730965588368794E-087
   100.985000000000         4.879175481193281E-087
   101.175000000000         1.567214659677100E-087
   101.365000000000        -3.486352914894650E-087
   101.555000000000        -1.048195537173533E-086
   101.745000000000        -1.947670606144929E-086
   101.935000000000        -3.031077930518223E-086
   102.125000000000        -4.252633484282705E-086
   102.315000000000        -5.528557605551816E-086
   102.505000000000        -6.729767813593187E-086
   102.695000000000        -7.676770781850288E-086
   102.885000000000        -8.138395756586606E-086
   103.075000000000        -7.836288020616158E-086
   103.265000000000        -6.457244115658403E-086
   103.455000000000        -3.675448281009375E-086
   103.645000000000         8.136196821392929E-087
   103.835000000000         7.246476150382495E-086
   104.025000000000         1.573206840658362E-085
   104.215000000000         2.618085979918889E-085
   104.405000000000         3.822615457990690E-085
   104.595000000000         5.114382394690577E-085
   104.785000000000         6.377955657271891E-085
   104.975000000000         7.449591323107498E-085
   105.165000000000         8.115451003396530E-085
   105.355000000000         8.115116024412415E-085
   105.545000000000         7.152322037350137E-085
   105.735000000000         4.914805476952824E-085
   105.925000000000         1.104872432405097E-085
   106.115000000000        -4.518302334637084E-085
   106.305000000000        -1.208463014973945E-084
   106.495000000000        -2.154872928202351E-084
   106.685000000000        -3.261850409566733E-084
   106.875000000000        -4.468227144813370E-084
   107.065000000000        -5.674263586464111E-084
   107.255000000000        -6.736805975646679E-084
   107.445000000000        -7.467567267132436E-084
   107.635000000000        -7.636093296327590E-084
   107.825000000000        -6.979081607547642E-084
   108.015000000000        -5.217669328990721E-084
   108.205000000000        -2.084037236963462E-084
   108.395000000000         2.641870815640215E-084
   108.585000000000         9.085592923798134E-084
   108.775000000000         1.722268267272417E-083
   108.965000000000         2.681746913420498E-083
   109.155000000000         3.736092614341543E-083
   109.345000000000         4.801471464038935E-083
   109.535000000000         5.757071545319925E-083
   109.725000000000         6.443745531455208E-083
   109.915000000000         6.666642468753014E-083
   110.105000000000         6.203199514821546E-083