  -1.42500000000000         0.000000000000000E+000
  -1.23500000000000         0.000000000000000E+000
  -1.04500000000000         0.000000000000000E+000
 -0.855000000000000         0.000000000000000E+000
 -0.665000000000000         0.000000000000000E+000
 -0.475000000000000         0.000000000000000E+000
 -0.285000000000000         0.000000000000000E+000
 -9.499999999999975E-002    0.000000000000000E+000
  9.500000000000020E-002    0.000000000000000E+000
  0.285000000000000         0.000000000000000E+000
  0.475000000000000         0.000000000000000E+000
  0.665000000000000         0.000000000000000E+000
  0.855000000000000         0.000000000000000E+000
   1.04500000000000         0.000000000000000E+000
   1.23500000000000         0.000000000000000E+000
   1.42500000000000         0.000000000000000E+000
   1.61500000000000         0.000000000000000E+000
   1.80500000000000         0.000000000000000E+000
   1.99500000000000         0.000000000000000E+000
   2.18500000000000         0.000000000000000E+000
   2.37500000000000         0.000000000000000E+000
   2.56500000000000         0.000000000000000E+000
   2.75500000000000         0.000000000000000E+000
   2.94500000000000         0.000000000000000E+000
   3.13500000000000         0.000000000000000E+000
   3.32500000000000         0.000000000000000E+000
   3.51500000000000         0.000000000000000E+000
   3.70500000000000         0.000000000000000E+000
   3.89500000000000         0.000000000000000E+000
   4.08500000000000         0.000000000000000E+000
   4.27500000000000         0.000000000000000E+000
   4.46500000000000         0.000000000000000E+000
   4.65500000000000         0.000000000000000E+000
   4.84500000000000         0.000000000000000E+000
   5.03500000000000         0.000000000000000E+000
   5.22500000000000         0.000000000000000E+000
   5.41500000000000         0.000000000000000E+000
   5.60500000000000         0.000000000000000E+000
   5.79500000000000         0.000000000000000E+000
   5.98500000000000         0.000000000000000E+000
   6.17500000000000         0.000000000000000E+000
   6.36500000000000         0.000000000000000E+000
   6.55500000000000         0.000000000000000E+000
   6.74500000000000         0.000000000000000E+000
   6.93500000000000         0.000000000000000E+000
   7.12500000000000         0.000000000000000E+000
   7.31500000000000         0.000000000000000E+000
   7.50500000000000         0.000000000000000E+000
   7.69500000000000         0.000000000000000E+000
   7.88500000000000         0.000000000000000E+000
   8.07500000000000         0.000000000000000E+000
   8.26500000000000         2.209240862244644E-236
   8.45500000000000         8.451092222657196E-232
   8.64500000000000         6.544648094709796E-211
   8.83500000000000         2.691875341749889E-206
   9.02500000000000        -2.148078633345000E-203
   9.21500000000000         4.943564046042961E-201
   9.40500000000000         1.989442686620759E-199
   9.59500000000000        -1.075650423052480E-198
   9.78500000000000        -2.534816680331040E-196
   9.97500000000000        -9.202610620208287E-195
   10.1650000000000        -2.204883296880582E-193
   10.3550000000000        -4.521886504928570E-192
   10.5450000000000        -8.981943369032256E-191
   10.7350000000000        -1.744562395848782E-189
   10.9250000000000        -3.159353457198838E-188
   11.1150000000000        -5.139280797834639E-187
   11.3050000000000        -7.414810085929192E-186
   11.4950000000000        -9.506389185677698E-185
   11.6850000000000        -1.091225609472678E-183
   11.8750000000000        -1.131410258495137E-182
   12.0650000000000        -1.068516406483835E-181
   12.2550000000000        -9.260639592447709E-181
   12.4450000000000        -7.413084412073386E-180
   12.6350000000000        -5.511113840340183E-179
   12.8250000000000        -3.822757343418403E-178
   13.0150000000000        -2.483698974010128E-177
   13.2050000000000        -1.516360156820607E-176
   13.3950000000000        -8.721987634235039E-176
   13.5850000000000        -4.735987772966249E-175
   13.7750000000000        -2.431090032947645E-174
   13.9650000000000        -1.180647327971033E-173
   14.1550000000000        -5.424676254894833E-173
   14.3450000000000        -2.355866968737428E-172
   14.5350000000000        -9.648489451317936E-172
   14.7250000000000        -3.710400591074457E-171
   14.9150000000000        -1.329399927631091E-170
   15.1050000000000        -4.374391083408782E-170
   15.2950000000000        -1.283865458612685E-169
   15.4850000000000        -3.126983048311876E-169
   15.6750000000000        -4.766989395067899E-169
   15.8650000000000         7.673710833124630E-169
   16.0550000000000         1.121210530339168E-167
   16.2450000000000         6.553684983469234E-167
   16.4350000000000         2.978952796950870E-166
   16.6250000000000         1.172310048404884E-165
   16.8150000000000         4.127640043492990E-165
   17.0050000000000         1.308141851556472E-164
   17.1950000000000         3.675603137087070E-164
   17.3850000000000         8.673706603027839E-164
   17.5750000000000         1.397443472643484E-163
   17.7650000000000        -7.852455461240177E-164
   17.9550000000000        -2.044420854181310E-162
   18.1450000000000        -1.209478606409424E-161
   18.3350000000000        -5.429966284928358E-161
   18.5250000000000        -2.127770104222834E-160
   18.7150000000000        -7.631491298953512E-160
   18.9050000000000        -2.561183272842184E-159
   19.0950000000000        -8.140999072595213E-159
   19.2850000000000        -2.468953337117924E-158
   19.4750000000000        -7.178233421404674E-158
   19.6650000000000        -2.007243885541261E-157
   19.8550000000000        -5.410731633348681E-157
   20.0450000000000        -1.408390516166178E-156
   20.2350000000000        -3.544844027065741E-156
   20.4250000000000        -8.638512946580567E-156
   20.6150000000000        -2.041271380152589E-155
   20.8050000000000        -4.687024866118832E-155
   20.9950000000000        -1.049183774308100E-154
   21.1850000000000        -2.301610889206018E-154
   21.3750000000000        -4.988235434482340E-154
   21.5650000000000        -1.080510029476769E-153
   21.7550000000000        -2.373582043374610E-153
   21.9450000000000        -5.365976453382513E-153
   22.1350000000000        -1.260534734204457E-152
   22.3250000000000        -3.077279309490501E-152
   22.5150000000000        -7.732715463048306E-152
   22.7050000000000        -1.970630845782319E-151
   22.8950000000000        -5.017491065801877E-151
   23.0850000000000        -1.260928460178543E-150
   23.2750000000000        -3.100100765841680E-150
   23.4650000000000        -7.410225616956313E-150
   23.6550000000000        -1.714011676868766E-149
   23.8450000000000        -3.820286347452756E-149
   24.0350000000000        -8.166259911400403E-149
   24.2250000000000        -1.663290187793791E-148
   24.4150000000000        -3.194689620357534E-148
   24.6050000000000        -5.679215553813281E-148
   24.7950000000000        -8.983469659462972E-148
   24.9850000000000        -1.134217012622351E-147
   25.1750000000000        -6.104557865405446E-148
   25.3650000000000         2.607737637634079E-147
   25.5550000000000         1.347007236418017E-146
   25.7450000000000         4.361081293376972E-146
   25.9350000000000         1.186465741466975E-145
   26.1250000000000         2.919067193678872E-145
   26.3150000000000         6.687765480325982E-145
   26.5050000000000         1.446971421626579E-144
   26.6950000000000         2.977455605099077E-144
   26.8850000000000         5.844883369485879E-144
   27.0750000000000         1.094837793500156E-143
   27.2650000000000         1.952084790883426E-143
   27.4550000000000         3.293921847588570E-143
   27.6450000000000         5.202724005461487E-143
   27.8350000000000         7.532820946528060E-143
   28.0250000000000         9.557832378440333E-143
   28.2150000000000         9.356886565778949E-143
   28.4050000000000         2.940012726985335E-143
   28.5950000000000        -1.656098719443167E-142
   28.7850000000000        -5.839104749776045E-142
   28.9750000000000        -1.288952183381536E-141
   29.1650000000000        -2.131333241281835E-141
   29.3550000000000        -2.251091360214410E-141
   29.5450000000000         1.107831129321336E-141
   29.7350000000000         1.519286253467785E-140
   29.9250000000000         5.706908203647528E-140
   30.1150000000000         1.639708108442251E-139
   30.3050000000000         4.124454216116620E-139
   30.4950000000000         9.520846998489317E-139
   30.6850000000000         2.062039355115546E-138
   30.8750000000000         4.240513154538877E-138
   31.0650000000000         8.337034958538442E-138
   31.2550000000000         1.573018915374437E-137
   31.4450000000000         2.853129003941362E-137
   31.6350000000000         4.974236596174340E-137
   31.8250000000000         8.319036780411226E-137
   32.0150000000000         1.328617866886605E-136
   32.2050000000000         2.009223816982074E-136
   32.3950000000000         2.831666043332949E-136
   32.5850000000000         3.598523728502799E-136
   32.7750000000000         3.788481708377750E-136
   32.9650000000000         2.269127917431067E-136
   33.1550000000000        -3.157672235825563E-136
   33.3450000000000        -1.641831564315095E-135
   33.5350000000000        -4.403314331486149E-135
   33.7250000000000        -9.605950096201300E-135
   33.9150000000000        -1.867265325421393E-134
   34.1050000000000        -3.338827951966600E-134
   34.2950000000000        -5.555236831069663E-134
   34.4850000000000        -8.603032301651287E-134
   34.6750000000000        -1.226940628007211E-133
   34.8650000000000        -1.564807855943962E-133
   35.0550000000000        -1.645056661472815E-133
   35.2450000000000        -9.894030185035575E-134
   35.4350000000000         1.295664603084443E-133
   35.6250000000000         6.743770026127534E-133
   35.8150000000000         1.779522757613705E-132
   36.0050000000000         3.804072438433372E-132
   36.1950000000000         7.228948133142162E-132
   36.3850000000000         1.261611065179436E-131
   36.5750000000000         2.046728511235755E-131
   36.7650000000000         3.089772587902460E-131
   36.9550000000000         4.300171814038146E-131
   37.1450000000000         5.374836193991043E-131
   37.3350000000000         5.622748057236407E-131
   37.5250000000000         3.710313785212055E-131
   37.7150000000000        -2.671001181022934E-131
   37.9050000000000        -1.717551977341178E-130
   38.0950000000000        -4.509987289012440E-130
   38.2850000000000        -9.336580383337628E-130
   38.4750000000000        -1.697533401115407E-129
   38.6650000000000        -2.806732740713597E-129
   38.8550000000000        -4.264294887280313E-129
   39.0450000000000        -5.925860991889925E-129
   39.2350000000000        -7.358795147349301E-129
   39.4250000000000        -7.634074608573168E-129
   39.6150000000000        -5.051080272273096E-129
   39.8050000000000         3.173847044012214E-129
   39.9950000000000         2.116442683212267E-128
   40.1850000000000         5.439398809520155E-128
   40.3750000000000         1.090962626017700E-127
   40.5650000000000         1.905053406655690E-127
   40.7550000000000         2.990810599456422E-127
   40.9450000000000         4.236037078692552E-127
   41.1350000000000         5.298677040853720E-127
   41.3250000000000         5.438974838849269E-127
   41.5150000000000         3.295413796251698E-127
   41.7050000000000        -3.374252222824510E-127
   41.8950000000000        -1.792091274466338E-126
   42.0850000000000        -4.485786880600247E-126
   42.2750000000000        -8.947661651061325E-126
   42.4650000000000        -1.565885920987181E-125
   42.6550000000000        -2.477360693704864E-125
   42.8450000000000        -3.559726623134054E-125
   43.0350000000000        -4.571193543096424E-125
   43.2250000000000        -4.963979084881890E-125
   43.4150000000000        -3.697807853099698E-125
   43.6050000000000         9.932434020584488E-126
   43.7950000000000         1.184731764573738E-124
   43.9850000000000         3.275242159469095E-124
   44.1750000000000         6.869244207477508E-124
   44.3650000000000         1.251783324835193E-123
   44.5550000000000         2.067157101806901E-123
   44.7450000000000         3.136553479119333E-123
   44.9350000000000         4.365568049435870E-123
   45.1250000000000         5.470339961725769E-123
   45.3150000000000         5.840726501482451E-123
   45.5050000000000         4.352313964109643E-123
   45.6950000000000        -8.670004147935940E-124
   45.8850000000000        -1.268624472943615E-122
   46.0750000000000        -3.516431558610357E-122
   46.2650000000000        -7.354595443493434E-122
   46.4550000000000        -1.338182681449452E-121
   46.6450000000000        -2.214460700119530E-121
   46.8350000000000        -3.387315016058098E-121
   47.0250000000000        -4.800568918743955E-121
   47.2150000000000        -6.241174944295830E-121
   47.4050000000000        -7.222247448091291E-121
   47.5950000000000        -6.820175149437136E-121
   47.7850000000000        -3.467011713949581E-121
   47.9750000000000         5.284110896369917E-121
   48.1650000000000         2.297297839745417E-120
   48.3550000000000         5.432965627007330E-120
   48.5450000000000         1.050866712258743E-119
   48.7350000000000         1.812372945054874E-119
   48.9250000000000         2.873445764164785E-119
   49.1150000000000         4.233637279152159E-119
   49.3050000000000         5.793112088781909E-119
   49.4950000000000         7.270528863055920E-119
   49.6850000000000         8.085858145670860E-119
   49.8750000000000         7.206014190866144E-119
   50.0650000000000         2.960543168967075E-119
   50.2550000000000        -7.147989740219849E-119
   50.4450000000000        -2.658548076683228E-118
   50.6350000000000        -5.978254925863997E-118
   50.8250000000000        -1.118273278558850E-117
   51.0150000000000        -1.876176845288402E-117
   51.2050000000000        -2.901442619745579E-117
   51.3950000000000        -4.174856274204423E-117
   51.5850000000000        -5.580366683802098E-117
   51.7750000000000        -6.835106190829437E-117
   51.9650000000000        -7.394313281209688E-117
   52.1550000000000        -6.332774768266950E-117
   52.3450000000000        -2.213032364734779E-117
   52.5350000000000         7.034794756976291E-117
   52.7250000000000         2.417421955968602E-116
   52.9150000000000         5.258529375381066E-116
   53.1050000000000         9.592793027477012E-116
   53.2950000000000         1.573743362383370E-115
   53.4850000000000         2.381872325963977E-115
   53.6750000000000         3.353792809214308E-115
   53.8650000000000         4.381811189484559E-115
   54.0550000000000         5.231061436330280E-115
   54.2450000000000         5.475811958216557E-115
   54.4350000000000         4.424825328040995E-115
   54.6250000000000         1.045602579670334E-115
   54.8150000000000        -6.092567766212548E-115
   55.0050000000000        -1.882229101781583E-114
   55.1950000000000        -3.927464169980616E-114
   55.3850000000000        -6.959118436263280E-114
   55.5750000000000        -1.113484383232255E-113
   55.7650000000000        -1.645693274321950E-113
   55.9550000000000        -2.261858195218660E-113
   56.1450000000000        -2.878331339072169E-113
   56.3350000000000        -3.329195725521784E-113
   56.5250000000000        -3.330554629264859E-113
   56.7150000000000        -2.441747476484741E-113
   56.9050000000000        -3.081891479080953E-115
   57.0950000000000         4.742596297738825E-113
   57.2850000000000         1.290592793999463E-112
   57.4750000000000         2.558303583767067E-112
   57.6650000000000         4.379254226965026E-112
   57.8550000000000         6.808311509830353E-112
   58.0450000000000         9.794729670090047E-112
   58.2350000000000         1.309581820782595E-111
   58.4250000000000         1.615927047220629E-111
   58.6150000000000         1.797518387780984E-111
   58.8050000000000         1.690745306871725E-111
   58.9950000000000         1.052830191329059E-111
   59.1850000000000        -4.499394719099776E-112
   59.3750000000000        -3.241877542844565E-111
   59.5650000000000        -7.814539724652940E-111
   59.7550000000000        -1.466529702705671E-110
   59.9450000000000        -2.417873295810979E-110
   60.1350000000000        -3.642878384048887E-110
   60.3250000000000        -5.087936979277882E-110
   60.5150000000000        -6.596640362438757E-110
   60.7050000000000        -7.855792972234357E-110
   60.8950000000000        -8.331600273969409E-110
   61.0850000000000        -7.202859355840489E-110
   61.2750000000000        -3.304701049379753E-110
   61.4650000000000         4.894261282804233E-110
   61.6550000000000         1.924662766071295E-109
   61.8450000000000         4.176413993112775E-109
   62.0350000000000         7.427601106614363E-109
   62.2250000000000         1.178333220705887E-108
   62.4150000000000         1.717814108060873E-108
   62.6050000000000         2.324336721587577E-108
   62.7950000000000         2.913171283561751E-108
   62.9850000000000         3.330353422449000E-108
   63.1750000000000         3.329223859645293E-108
   63.3650000000000         2.548572232646123E-108
   63.5550000000000         4.988209010893453E-109
   63.7450000000000        -3.433766201897116E-108
   63.9350000000000        -9.950655553664920E-108
   64.1250000000000        -1.975375361271258E-107
   64.3150000000000        -3.338474114590358E-107
   64.5050000000000        -5.096658840185159E-107
   64.6950000000000        -7.182484297778780E-107
   64.8850000000000        -9.397506619094839E-107
   65.0750000000000        -1.134818415787356E-106
   65.2650000000000        -1.237281420298200E-106
   65.4550000000000        -1.146856293847977E-106
   65.6450000000000        -7.234996901986186E-107
   65.8350000000000         2.139842514924493E-107
   66.0250000000000         1.881317224514438E-106
   66.2150000000000         4.509076660872592E-106
   66.4050000000000         8.303799502387002E-106
   66.5950000000000         1.338295386881041E-105
   66.7850000000000         1.967708778303353E-105
   66.9750000000000         2.679431127275511E-105
   67.1650000000000         3.384662946548744E-105
   67.3550000000000         3.924554566748010E-105
   67.5450000000000         4.048685453184260E-105
   67.7350000000000         3.396253759631874E-105
   67.9250000000000         1.486155874677909E-105
   68.1150000000000        -2.274941337479864E-105
   68.3050000000000        -8.554186605398740E-105
   68.4950000000000        -1.800831154799985E-104
   68.6850000000000        -3.113584607265999E-104
   68.8750000000000        -4.804780841494243E-104
   69.0650000000000        -6.814225925408134E-104
   69.2550000000000        -8.967710813205397E-104
   69.4450000000000        -1.092525822417988E-103
   69.6350000000000        -1.212423219387417E-103
   69.8250000000000        -1.172523555795822E-103
   70.0150000000000        -8.574143705160600E-104
   70.2050000000000        -1.200363221293946E-104
   70.3950000000000         1.212094385861027E-103
   70.5850000000000         3.320725817859320E-103
   70.7750000000000         6.366617631831097E-103
   70.9650000000000         1.044081989394757E-102
   71.1550000000000         1.549361218201500E-102
   71.3450000000000         2.123889360942233E-102
   71.5350000000000         2.703514448475422E-102
   71.7250000000000         3.174962547619998E-102
   71.9150000000000         3.362073870674991E-102
   72.1050000000000         3.014476249571530E-102
   72.2950000000000         1.802742583295723E-102
   72.4850000000000        -6.742685490273861E-103
   72.6750000000000        -4.862474497237883E-102
   72.8650000000000        -1.119713335601131E-101
   73.0550000000000        -2.000921677355388E-101
   73.2450000000000        -3.138443353343841E-101
   73.4350000000000        -4.496846001218006E-101
   73.6250000000000        -5.971783126290164E-101
   73.8150000000000        -7.360612641005805E-101
   74.0050000000000        -8.331058034711859E-101
   74.1950000000000        -8.392580148900371E-101
   74.3850000000000        -6.877894674493544E-101
   74.5750000000000        -2.945344987586452E-101
   74.7650000000000         4.383652850549677E-101
   74.9550000000000         1.613464436341280E-100
   75.1450000000000         3.321804999654984E-100
   75.3350000000000         5.617543625125559E-100
   75.5250000000000         8.481844651706212E-100
   75.7150000000000         1.177540984358835E-099
   75.9050000000000         1.518071760262984E-099
   76.0950000000000         1.813770661664481E-099
   76.2850000000000         1.978041380516015E-099
   76.4750000000000         1.888701236984386E-099
   76.6650000000000         1.386165794739578E-099
   76.8550000000000         2.773124729895744E-100
   77.0450000000000        -1.651840421378331E-099
   77.2350000000000        -4.611013801034043E-099
   77.4250000000000        -8.764330537468850E-099
   77.6150000000000        -1.416942260842556E-098
   77.8050000000000        -2.069498133701316E-098
   77.9950000000000        -2.791733366874878E-098
   78.1850000000000        -3.500080976953010E-098
   78.3750000000000        -4.057273835099996E-098
   78.5650000000000        -4.261200569350731E-098
   78.7550000000000        -3.838010861734550E-098
   78.9450000000000        -2.443496195531553E-098
   79.1350000000000         3.220768671917164E-099
   79.3250000000000         4.879527698662590E-098
   79.5150000000000         1.161004779685419E-097
   79.7050000000000         2.076187301172448E-097
   79.8950000000000         3.231966039813491E-097
   80.0850000000000         4.583542781285886E-097
   80.2750000000000         6.022591029417305E-097
   80.4650000000000         7.355014746077952E-097
   80.6550000000000         8.279335184987905E-097
   80.8450000000000         8.369855745644547E-097
   81.0350000000000         7.070555505536690E-097
   81.2250000000000         3.707568214440274E-097
   81.4150000000000        -2.470146693466770E-097
   81.6050000000000        -1.221113786022507E-096
   81.7950000000000        -2.613190065940081E-096
   81.9850000000000        -4.452821989181722E-096
   82.1750000000000        -6.712252768022237E-096
   82.3650000000000        -9.275018734968786E-096
   82.5550000000000        -1.189997206545667E-095
   82.7450000000000        -1.418390022791627E-095
   82.9350000000000        -1.552814833553198E-095
   83.1250000000000        -1.511729452098746E-095
   83.3150000000000        -1.192083846850210E-095
   83.5050000000000        -4.731716644011571E-096
   83.6950000000000         7.742251712915201E-096
   83.8850000000000         2.671687147171813E-095
   84.0750000000000         5.308411143561705E-095
   84.2650000000000         8.706728250294190E-095
   84.4550000000000         1.277765522484634E-094
   84.6450000000000         1.726773786748684E-094
   84.8350000000000         2.170061266245540E-094
   85.0250000000000         2.531960999967002E-094
   85.2150000000000         2.704130867824319E-094
   85.4050000000000         2.543405392899962E-094
   85.5950000000000         1.873971330297220E-094
   85.7850000000000         4.960777974078638E-095
   85.9750000000000        -1.796253857666614E-094
   86.1650000000000        -5.186044711718909E-094
   86.3550000000000        -9.790597514210283E-094
   86.5450000000000        -1.560398578092084E-093
   86.7350000000000        -2.242526225177831E-093
   86.9250000000000        -2.977537315696298E-093
   87.1150000000000        -3.680925874686028E-093
   87.3050000000000        -4.223410303820816E-093
   87.4950000000000        -4.425003117848466E-093
   87.6850000000000        -4.053539758453834E-093
   87.8750000000000        -2.830454723241213E-093
   88.0650000000000        -4.470623792232927E-094
   88.2550000000000         3.405166553483836E-093
   88.4450000000000         8.987011204502354E-093
   88.6350000000000         1.644403904830380E-092
   88.8250000000000         2.571831708150910E-092
   89.0150000000000         3.644096008338079E-092
   89.2050000000000         4.781101305315110E-092
   89.3950000000000         5.847129637448761E-092
   89.5850000000000         6.639821736060286E-092
   89.7750000000000         6.882989984535344E-092
   89.9650000000000         6.226474181103643E-092
   90.1550000000000         4.256975133199291E-092
   90.3450000000000         5.243379803761004E-093
   90.5350000000000        -5.412073891582187E-092
   90.7250000000000        -1.391269629759750E-091
   90.9150000000000        -2.515982688183268E-091
   91.1050000000000        -3.903187860746664E-091
   91.2950000000000        -5.495303414416562E-091
   91.4850000000000        -7.172683584420980E-091
   91.6750000000000        -8.736919286197843E-091
   91.8650000000000        -9.896471701705296E-091
   92.0550000000000        -1.025797868867457E-090
   92.2450000000000        -9.327548481022495E-091
   92.4350000000000        -6.527229671846529E-091
   92.6250000000000        -1.232443699765064E-091
   92.8150000000000         7.163744518855902E-091
   93.0050000000000         1.915433928143896E-090
   93.1950000000000         3.498672783054900E-090
   93.3850000000000         5.449542828261312E-090
   93.5750000000000         7.690402614280962E-090
   93.7650000000000         1.006078768513850E-089
   93.9550000000000         1.229579086590574E-089
   94.1450000000000         1.400763306582525E-089
   94.3350000000000         1.467466650801825E-089
   94.5250000000000         1.364322624422283E-089
   94.7150000000000         1.014877686006956E-089
   94.9050000000000         3.363474703847049E-090
   95.0950000000000        -7.522692758984567E-090
   95.2850000000000        -2.318094675334845E-089
   95.4750000000000        -4.397893082947262E-089
   95.6650000000000        -6.977201571916322E-089
   95.8550000000000        -9.965653839206099E-089
   96.0450000000000        -1.316989543921187E-088
   96.2350000000000        -1.626652430380248E-088
   96.4250000000000        -1.877872122461118E-088
   96.6150000000000        -2.006159272483925E-088
   96.8050000000000        -1.930261540355951E-088
   96.9950000000000        -1.554476863730075E-088
   97.1850000000000        -7.740728395953029E-089
   97.3750000000000         5.153439345201541E-089
   97.5650000000000         2.403766604669823E-088
   97.7550000000000         4.947543318160005E-088
   97.9450000000000         8.144896375299512E-088
   98.1350000000000         1.190681508337705E-087
   98.3250000000000         1.602484068722561E-087
   98.5150000000000         2.013841800045128E-087
   98.7050000000000         2.370586233314406E-087
   98.8950000000000         2.598450926415415E-087
   99.0850000000000         2.602715209727448E-087
   99.2750000000000         2.270323747372157E-087
   99.4650000000000         1.475422445329157E-087
   99.6550000000000         8.926885251491682E-089
   99.8450000000000        -2.004621780694070E-087
   100.035000000000        -4.889487720455484E-087
   100.225000000000        -8.588336064351064E-087
   100.415000000000        -1.303150009289146E-086
   100.605000000000        -1.802022993071742E-086
   100.795000000000        -2.318902680969461E-086
   100.985000000000        -2.797088734757937E-086
   101.175000000000        -3.157124543624275E-086
   101.365000000000        -3.295805885125471E-086
   101.555000000000        -3.087699462664087E-086
   101.745000000000        -2.390176061436231E-086
   101.935000000000        -1.052997971709856E-086
   102.125000000000         1.066578332747961E-086
   102.315000000000         4.082458603994826E-086
   102.505000000000         8.051836168723802E-086
   102.695000000000         1.294117043134566E-085
   102.885000000000         1.858734277581016E-085
   103.075000000000         2.465652599513967E-085
   103.265000000000         3.060476249885347E-085
   103.455000000000         3.564588650221950E-085
   103.645000000000         3.873412722397776E-085
   103.835000000000         3.857031314923722E-085
   104.025000000000         3.364181365324149E-085
   104.215000000000         2.230688851821288E-085
   104.405000000000         2.933594128069073E-086
   104.595000000000        -2.589859593225374E-085
   104.785000000000        -6.513017829458757E-085
   104.975000000000        -1.148878848528585E-084
   105.165000000000        -1.740963808455775E-084
   105.355000000000        -2.400572609055478E-084
   105.545000000000        -3.080309472526664E-084
   105.735000000000        -3.708726906523601E-084
   105.925000000000        -4.187902802962317E-084
   106.115000000000        -4.393066777893723E-084
   106.305000000000        -4.175233896458636E-084
   106.495000000000        -3.367871622543176E-084
   106.685000000000        -1.798601713383195E-084
   106.875000000000         6.932142892296647E-085
   107.065000000000         4.232477219838606E-084
   107.255000000000         8.877932531384634E-084
   107.445000000000         1.458607296714508E-083
   107.635000000000         2.117108629665405E-083
   107.825000000000         2.826377933513901E-083
   108.015000000000         3.527379222660621E-083
   108.205000000000         4.136088962968473E-083
   108.395000000000         4.542254482807770E-083
   108.585000000000         4.610623477907571E-083
   108.775000000000         4.185560391435625E-083
   108.965000000000         3.099965292575149E-083
   109.155000000000         1.189305628932203E-083
   109.345000000000        -1.688670756586151E-083
   109.535000000000        -5.628380645290478E-083
   109.725000000000        -1.064544305712225E-082
   109.915000000000        -1.664153618322147E-082
   110.105000000000        -2.336728010982239E-082