  -1.42500000000000         0.000000000000000E+000
  -1.23500000000000         0.000000000000000E+000
  -1.04500000000000         0.000000000000000E+000
 -0.855000000000000         0.000000000000000E+000
 -0.665000000000000         0.000000000000000E+000
 -0.475000000000000         0.000000000000000E+000
 -0.285000000000000         0.000000000000000E+000
 -9.499999999999975E-002    0.000000000000000E+000
  9.500000000000020E-002    0.000000000000000E+000
  0.285000000000000         0.000000000000000E+000
  0.475000000000000         0.000000000000000E+000
  0.665000000000000         0.000000000000000E+000
  0.855000000000000         0.000000000000000E+000
   1.04500000000000         0.000000000000000E+000
   1.23500000000000         0.000000000000000E+000
   1.42500000000000         0.000000000000000E+000
   1.61500000000000         0.000000000000000E+000
   1.80500000000000         0.000000000000000E+000
   1.99500000000000         0.000000000000000E+000
   2.18500000000000         0.000000000000000E+000
   2.37500000000000         0.000000000000000E+000
   2.56500000000000         0.000000000000000E+000
   2.75500000000000         0.000000000000000E+000
   2.94500000000000         0.000000000000000E+000
   3.13500000000000         0.000000000000000E+000
   3.32500000000000         0.000000000000000E+000
   3.51500000000000         0.000000000000000E+000
   3.70500000000000         0.000000000000000E+000
   3.89500000000000         0.000000000000000E+000
   4.08500000000000         0.000000000000000E+000
   4.27500000000000         0.000000000000000E+000
   4.46500000000000         0.000000000000000E+000
   4.65500000000000         0.000000000000000E+000
   4.84500000000000         0.000000000000000E+000
   5.03500000000000         0.000000000000000E+000
   5.22500000000000         0.000000000000000E+000
   5.41500000000000         0.000000000000000E+000
   5.60500000000000         0.000000000000000E+000
   5.79500000000000         0.000000000000000E+000
   5.98500000000000         0.000000000000000E+000
   6.17500000000000         0.000000000000000E+000
   6.36500000000000         0.000000000000000E+000
   6.55500000000000         0.000000000000000E+000
   6.74500000000000         0.000000000000000E+000
   6.93500000000000         0.000000000000000E+000
   7.12500000000000         0.000000000000000E+000
   7.31500000000000         0.000000000000000E+000
   7.50500000000000         0.000000000000000E+000
   7.69500000000000         0.000000000000000E+000
   7.88500000000000         0.000000000000000E+000
   8.07500000000000         0.000000000000000E+000
   8.26500000000000         2.325516697099626E-235
   8.45500000000000         8.895421446826048E-231
   8.64500000000000         6.889103257589260E-210
   8.83500000000000         2.833415209250520E-205
   9.02500000000000        -2.266802371721620E-202
   9.21500000000000         5.249031005166071E-200
   9.40500000000000         1.989622370117107E-198
   9.59500000000000        -1.540640859869138E-197
   9.78500000000000        -2.641499039928167E-195
   9.97500000000000        -9.155985835138950E-194
   10.1650000000000        -2.132500342362819E-192
   10.3550000000000        -4.314537518648466E-191
   10.5450000000000        -8.547235425545046E-190
   10.7350000000000        -1.656362342753454E-188
   10.9250000000000        -2.976360836897244E-187
   11.1150000000000        -4.779569655378438E-186
   11.3050000000000        -6.786129356720817E-185
   11.4950000000000        -8.547606198101369E-184
   11.6850000000000        -9.631152197199346E-183
   11.8750000000000        -9.797807912362899E-182
   12.0650000000000        -9.076802162809199E-181
   12.2550000000000        -7.715607347891578E-180
   12.4450000000000        -6.056881847135702E-179
   12.6350000000000        -4.415159603847320E-178
   12.8250000000000        -3.002321891598831E-177
   13.0150000000000        -1.911792273648841E-176
   13.2050000000000        -1.143547361497847E-175
   13.3950000000000        -6.441323667359451E-175
   13.5850000000000        -3.423013959098524E-174
   13.7750000000000        -1.718215715301748E-173
   13.9650000000000        -8.150608754974763E-173
   14.1550000000000        -3.652337994948629E-172
   14.3450000000000        -1.543607614450341E-171
   14.5350000000000        -6.132837104055459E-171
   14.7250000000000        -2.276770653744625E-170
   14.9150000000000        -7.811227962293749E-170
   15.1050000000000        -2.424131051957669E-169
   15.2950000000000        -6.485620003535030E-169
   15.4850000000000        -1.291561778277225E-168
   15.6750000000000        -4.347606919922732E-169
   15.8650000000000         1.353023461640546E-167
   16.0550000000000         9.641433612127055E-167
   16.2450000000000         4.754250799976837E-166
   16.4350000000000         1.970453129059102E-165
   16.6250000000000         7.233912857359811E-165
   16.8150000000000         2.387482393304132E-164
   17.0050000000000         7.037547577297692E-164
   17.1950000000000         1.788309753355072E-163
   17.3850000000000         3.472851789740476E-163
   17.5750000000000         2.106862024372152E-163
   17.7650000000000        -2.508253590613534E-162
   17.9550000000000        -1.818539166800655E-161
   18.1450000000000        -8.760792633107696E-161
   18.3350000000000        -3.566539345656529E-160
   18.5250000000000        -1.311528671465924E-159
   18.7150000000000        -4.481862059829528E-159
   18.9050000000000        -1.444481312908451E-158
   19.0950000000000        -4.429009002621054E-158
   19.2850000000000        -1.299050078536213E-157
   19.4750000000000        -3.658086852291945E-157
   19.6650000000000        -9.914760972979569E-157
   19.8550000000000        -2.591142584604590E-156
   20.0450000000000        -6.538513760988146E-156
   20.2350000000000        -1.595047056427040E-155
   20.4250000000000        -3.766709700956990E-155
   20.6150000000000        -8.627185935827564E-155
   20.8050000000000        -1.922285075855393E-154
   20.9950000000000        -4.188044268315313E-154
   21.1850000000000        -8.995399046399613E-154
   21.3750000000000        -1.928485932493010E-153
   21.5650000000000        -4.194529709912622E-153
   21.7550000000000        -9.416754646906752E-153
   21.9450000000000        -2.208213387949225E-152
   22.1350000000000        -5.412177021168730E-152
   22.3250000000000        -1.371145008710542E-151
   22.5150000000000        -3.529314100297674E-151
   22.7050000000000        -9.074467999465358E-151
   22.8950000000000        -2.299774484284577E-150
   23.0850000000000        -5.691587132540212E-150
   23.2750000000000        -1.366812134812438E-149
   23.4650000000000        -3.170161392676651E-149
   23.6550000000000        -7.071829293356350E-149
   23.8450000000000        -1.509948302858038E-148
   24.0350000000000        -3.064760711823696E-148
   24.2250000000000        -5.847493989794731E-148
   24.4150000000000        -1.027250003719205E-147
   24.6050000000000        -1.588040452550001E-147
   24.7950000000000        -1.890121763923360E-147
   24.9850000000000        -5.927208326666820E-148
   25.1750000000000         6.105996896685707E-147
   25.3650000000000         2.776972335778405E-146
   25.5550000000000         8.657064218480630E-146
   25.7450000000000         2.307003111792943E-145
   25.9350000000000         5.591498068515249E-145
   26.1250000000000         1.264641195476788E-144
   26.3150000000000         2.702409632572801E-144
   26.5050000000000         5.489115352626993E-144
   26.6950000000000         1.062124447339931E-143
   26.8850000000000         1.956220567804073E-143
   27.0750000000000         3.415878974844011E-143
   27.2650000000000         5.607773629190414E-143
   27.4550000000000         8.516826967705842E-143
   27.6450000000000         1.157582732569328E-142
   27.8350000000000         1.295150889606012E-142
   28.0250000000000         8.364400913542769E-143
   28.2150000000000        -1.047961999418888E-142
   28.4050000000000        -5.706642041416501E-142
   28.5950000000000        -1.482072629691720E-141
   28.7850000000000        -2.921091612763942E-141
   28.9750000000000        -4.500400054645858E-141
   29.1650000000000        -4.366768975883595E-141
   29.3550000000000         3.106157197645940E-141
   29.5450000000000         3.225092163957244E-140
   29.7350000000000         1.160125668378644E-139
   29.9250000000000         3.247897437073718E-139
   30.1150000000000         8.004916121636785E-139
   30.3050000000000         1.815030606440920E-138
   30.4950000000000         3.865382848688235E-138
   30.6850000000000         7.818350364644552E-138
   30.8750000000000         1.511295278717999E-137
   31.0650000000000         2.800832936018383E-137
   31.2550000000000         4.981434637882600E-137
   31.4450000000000         8.493408399663969E-137
   31.6350000000000         1.383403993963056E-136
   31.8250000000000         2.137438305233664E-136
   32.0150000000000         3.091132103666150E-136
   32.2050000000000         4.073141055233527E-136
   32.3950000000000         4.584145537933562E-136
   32.5850000000000         3.488040621749078E-136
   32.7750000000000        -1.488482938854859E-136
   32.9650000000000        -1.450471486058391E-135
   33.1550000000000        -4.261949727895958E-135
   33.3450000000000        -9.696622279814976E-135
   33.5350000000000        -1.937161737461718E-134
   33.7250000000000        -3.539296962238439E-134
   33.9150000000000        -6.004601098827483E-134
   34.1050000000000        -9.485531812174707E-134
   34.2950000000000        -1.384508796785753E-133
   34.4850000000000        -1.823696961721223E-133
   34.6750000000000        -2.035644068195429E-133
   34.8650000000000        -1.520853067980900E-133
   35.0550000000000         6.761287992561279E-134
   35.2450000000000         6.225488495157104E-133
   35.4350000000000         1.782785488997976E-132
   35.6250000000000         3.952062324731596E-132
   35.8150000000000         7.681050885804734E-132
   36.0050000000000         1.362999838598124E-131
   36.1950000000000         2.242132471621656E-131
   36.3850000000000         3.428564916433289E-131
   36.5750000000000         4.835829252580591E-131
   36.7650000000000         6.143582080753163E-131
   36.9550000000000         6.597462404885620E-131
   37.1450000000000         4.714794226197501E-131
   37.3350000000000        -2.105195665719980E-131
   37.5250000000000        -1.802569140822059E-130
   37.7150000000000        -4.914604507846343E-130
   37.9050000000000        -1.035330979993138E-129
   38.0950000000000        -1.904074611239769E-129
   38.2850000000000        -3.176549698576216E-129
   38.4750000000000        -4.864243593862150E-129
   38.6650000000000        -6.811538928224055E-129
   38.8550000000000        -8.531220509320337E-129
   39.0450000000000        -8.958949012886104E-129
   39.2350000000000        -6.124568413002064E-129
   39.4250000000000         3.226889873803493E-129
   39.6150000000000         2.396252419251304E-128
   39.8050000000000         6.261565808417446E-128
   39.9950000000000         1.267588660011987E-127
   40.1850000000000         2.230259893996315E-127
   40.3750000000000         3.527874264589836E-127
   40.5650000000000         5.041502373704789E-127
   40.7550000000000         6.387520708408187E-127
   40.9450000000000         6.720126441445803E-127
   41.1350000000000         4.465557370777043E-127
   41.3250000000000        -2.988738444508118E-127
   41.5150000000000        -1.957506200388737E-126
   41.7050000000000        -5.063194872323063E-126
   41.8950000000000        -1.024907936119154E-125
   42.0850000000000        -1.810561122969171E-125
   42.2750000000000        -2.886149161726703E-125
   42.4650000000000        -4.178269321231708E-125
   42.6550000000000        -5.416201970533371E-125
   42.8450000000000        -5.977123602405459E-125
   43.0350000000000        -4.669896607724780E-125
   43.2250000000000         5.353119573514854E-126
   43.4150000000000         1.279280627193477E-124
   43.6050000000000         3.658668062446678E-124
   43.7950000000000         7.766673246689038E-124
   43.9850000000000         1.423869933115683E-123
   44.1750000000000         2.359290117419489E-123
   44.3650000000000         3.586593083500957E-123
   44.5550000000000         4.996288779359122E-123
   44.7450000000000         6.260515192350691E-123
   44.9350000000000         6.676480284665467E-123
   45.1250000000000         4.952697739438749E-123
   45.3150000000000        -1.053892057789467E-123
   45.5050000000000        -1.461360833560853E-122
   45.6950000000000        -4.032654302126767E-122
   45.8850000000000        -8.408655502760127E-122
   46.0750000000000        -1.525247171478453E-121
   46.2650000000000        -2.514925338924785E-121
   46.4550000000000        -3.829528735813201E-121
   46.6450000000000        -5.394450408082366E-121
   46.8350000000000        -6.951384496534136E-121
   47.0250000000000        -7.924972373843294E-121
   47.2150000000000        -7.239301579334328E-121
   47.4050000000000        -3.087777407986335E-121
   47.5950000000000         7.320117393819595E-121
   47.7850000000000         2.797633982183889E-120
   47.9750000000000         6.414074028678738E-120
   48.1650000000000         1.220578649877838E-119
   48.3550000000000         2.080124284082070E-119
   48.5450000000000         3.262719395475930E-119
   48.7350000000000         4.753135686588608E-119
   48.9250000000000         6.416051882989405E-119
   49.1150000000000         7.901753537930320E-119
   49.3050000000000         8.513770773961765E-119
   49.4950000000000         7.037984744712039E-119
   49.6850000000000         1.544428756497864E-119
   49.8750000000000        -1.080594407023173E-118
   50.0650000000000        -3.388322458133738E-118
   50.2550000000000        -7.252238498905128E-118
   50.4450000000000        -1.320827837121322E-117
   50.6350000000000        -2.173600425174224E-117
   50.8250000000000        -3.304797321904203E-117
   51.0150000000000        -4.673134959459495E-117
   51.2050000000000        -6.119136350616059E-117
   51.3950000000000        -7.285217906845455E-117
   51.5850000000000        -7.509628509972168E-117
   51.7750000000000        -5.698155774526161E-117
   51.9650000000000        -1.882346505290846E-118
   52.1550000000000         1.136232426045265E-116
   52.3450000000000         3.200338525041232E-116
   52.5350000000000         6.534216339917787E-116
   52.7250000000000         1.150728345240824E-115
   52.9150000000000         1.839911043614401E-115
   53.1050000000000         2.722471748065540E-115
   53.2950000000000         3.745570984941503E-115
   53.4850000000000         4.761049684328044E-115
   53.6750000000000         5.469692244622801E-115
   53.8650000000000         5.351553863485117E-115
   54.0550000000000         3.587922419101431E-115
   54.2450000000000        -1.011601136088005E-115
   54.4350000000000        -1.005141602365475E-114
   54.6250000000000        -2.551934974866801E-114
   54.8150000000000        -4.961928547115177E-114
   55.0050000000000        -8.437780138783020E-114
   55.1950000000000        -1.309101005278574E-113
   55.3850000000000        -1.882114011861071E-113
   55.5750000000000        -2.513386405043419E-113
   55.7650000000000        -3.088812448532321E-113
   55.9550000000000        -3.397134087222520E-113
   56.1450000000000        -3.092056900709145E-113
   56.3350000000000        -1.653884009286812E-113
   56.5250000000000         1.639579759359701E-113
   56.7150000000000         7.716285006746794E-113
   56.9050000000000         1.766191037950513E-112
   57.0950000000000         3.258456554185944E-112
   57.2850000000000         5.334524121872792E-112
   57.4750000000000         8.009799980944103E-112
   57.6650000000000         1.115810152640283E-111
   57.8550000000000         1.441092250375851E-111
   58.0450000000000         1.702505813055405E-111
   58.2350000000000         1.772324226666591E-111
   58.4250000000000         1.452362367417985E-111
   58.6150000000000         4.591254279541670E-112
   58.8050000000000        -1.583052595420051E-111
   58.9950000000000        -5.131843357660636E-111
   59.1850000000000        -1.068678467643449E-110
   59.3750000000000        -1.870203712287696E-110
   59.5650000000000        -2.943124900142174E-110
   59.7550000000000        -4.268198576072319E-110
   59.9450000000000        -5.745944509246726E-110
   60.1350000000000        -7.148845893257559E-110
   60.3250000000000        -8.062297214416064E-110
   60.5150000000000        -7.818791029382633E-110
   60.7050000000000        -5.435446968465782E-110
   60.8950000000000         4.269490554652397E-111
   61.0850000000000         1.145453429326023E-109
   61.2750000000000         2.957871103790542E-109
   61.4650000000000         5.672615561666285E-109
   61.6550000000000         9.435138520342883E-109
   61.8450000000000         1.426750597483059E-108
   62.0350000000000         1.995551627255455E-108
   62.2250000000000         2.589428478475599E-108
   62.4150000000000         3.089317704208471E-108
   62.6050000000000         3.295130859230516E-108
   62.7950000000000         2.903127687866051E-108
   62.9850000000000         1.488263247789202E-108
   63.1750000000000        -1.500153382565064E-108
   63.3650000000000        -6.717232164794611E-108
   63.5550000000000        -1.485909764106623E-107
   63.7450000000000        -2.653655607458073E-107
   63.9350000000000        -4.206227920718561E-107
   64.1250000000000        -6.112822667752665E-107
   64.3150000000000        -8.235585261922077E-107
   64.5050000000000        -1.027162237591792E-106
   64.6950000000000        -1.168443507243598E-106
   64.8850000000000        -1.163158936246990E-106
   65.0750000000000        -8.901858414148232E-107
   65.2650000000000        -1.883721008045847E-107
   65.4550000000000         1.140215537122721E-106
   65.6450000000000         3.316169764449472E-106
   65.8350000000000         6.552082253351238E-106
   66.0250000000000         1.099879114688022E-105
   66.2150000000000         1.666183449899508E-105
   66.4050000000000         2.328261646431449E-105
   66.5950000000000         3.018216634014245E-105
   66.7850000000000         3.607187486220614E-105
   66.9750000000000         3.884626713486323E-105
   67.1650000000000         3.538866120968763E-105
   67.3550000000000         2.144203565339305E-105
   67.5450000000000        -8.375626554840460E-106
   67.7350000000000        -6.030139381909493E-105
   67.9250000000000        -1.407615414392173E-104
   68.1150000000000        -2.551434282616010E-104
   68.3050000000000        -4.058297578351228E-104
   68.4950000000000        -5.893412887544678E-104
   68.6850000000000        -7.925044506834411E-104
   68.8750000000000        -9.877021116620787E-104
   69.0650000000000        -1.127503239826228E-103
   69.2550000000000        -1.139322957855100E-103
   69.4450000000000        -9.212532642233053E-104
   69.6350000000000        -3.408245986127894E-104
   69.8250000000000         7.608210574716896E-104
   70.0150000000000         2.556117734946850E-103
   70.2050000000000         5.205756458597001E-103
   70.3950000000000         8.816672046565333E-103
   70.5850000000000         1.337944829025881E-102
   70.7750000000000         1.868257080418095E-102
   70.9650000000000         2.420376879704512E-102
   71.1550000000000         2.898351844576980E-102
   71.3450000000000         3.149312815851786E-102
   71.5350000000000         2.952003895023887E-102
   71.7250000000000         2.010607674919012E-102
   71.9150000000000        -4.101480065592578E-104
   72.1050000000000        -3.617907526748917E-102
   72.2950000000000        -9.137183697206952E-102
   72.4850000000000        -1.693661769566787E-101
   72.6750000000000        -2.714976070654788E-101
   72.8650000000000        -3.953085885948815E-101
   73.0550000000000        -5.322791395674949E-101
   73.2450000000000        -6.651120983150875E-101
   73.4350000000000        -7.647854257629809E-101
   73.6250000000000        -7.877799690498172E-101
   73.8150000000000        -6.741458359140137E-101
   74.0050000000000        -3.473756311449916E-101
   74.1950000000000         2.826155109465580E-101
   74.3850000000000         1.311790251586945E-100
   74.5750000000000         2.827735734631047E-100
   74.7650000000000         4.886998831828036E-100
   74.9550000000000         7.482465918554191E-100
   75.1450000000000         1.050006632685323E-099
   75.3350000000000         1.366560341494230E-099
   75.5250000000000         1.648493370695929E-099
   75.7150000000000         1.818417357601057E-099
   75.9050000000000         1.766117125600519E-099
   76.0950000000000         1.346502889152077E-099
   76.2850000000000         3.826625724430132E-100
   76.4750000000000        -1.323085135933844E-099
   76.6650000000000        -3.966761624537819E-099
   76.8550000000000        -7.705378604409595E-099
   77.0450000000000        -1.260149396788415E-098
   77.2350000000000        -1.854769950217597E-098
   77.4250000000000        -2.517142403924304E-098
   77.6150000000000        -3.172428197082759E-098
   77.8050000000000        -3.696580990904192E-098
   77.9950000000000        -3.905895147764875E-098
   78.1850000000000        -3.550395484636531E-098
   78.3750000000000        -2.314792495858049E-098
   78.5650000000000         1.681952932187282E-099
   78.7550000000000         4.286433208004233E-098
   78.9450000000000         1.039266854150100E-097
   79.1350000000000         1.871862685558605E-097
   79.3250000000000         2.925453979147577E-097
   79.5150000000000         4.159304018948850E-097
   79.7050000000000         5.474196207230392E-097
   79.8950000000000         6.691895778464803E-097
   80.0850000000000         7.535227815981450E-097
   80.2750000000000         7.612648480138765E-097
   80.4650000000000         6.412864326815417E-097
   80.6550000000000         3.316824503815680E-097
   80.8450000000000        -2.363976496903676E-097
   81.0350000000000        -1.131286813581061E-096
   81.2250000000000        -2.408699808625690E-096
   81.4150000000000        -4.094157989171198E-096
   81.6050000000000        -6.159516923205965E-096
   81.7950000000000        -8.493917602242174E-096
   81.9850000000000        -1.087062895819615E-095
   82.1750000000000        -1.291285292433558E-095
   82.3650000000000        -1.406363093825969E-095
   82.5550000000000        -1.356745675108648E-095
   82.7450000000000        -1.047389232743561E-095
   82.9350000000000        -3.676087752729746E-096
   83.1250000000000         8.000864747935208E-096
   83.3150000000000         2.564604106770020E-095
   83.5050000000000         5.002892550588431E-095
   83.6950000000000         8.127600456702908E-095
   83.8850000000000         1.184568349993175E-094
   84.0750000000000         1.590930593575133E-094
   84.2650000000000         1.986245308248538E-094
   84.4550000000000         2.298940980753722E-094
   84.6450000000000         2.427461800973119E-094
   84.8350000000000         2.238722193730638E-094
   85.0250000000000         1.570748687547899E-094
   85.2150000000000         2.415657109501843E-095
   85.4050000000000        -1.933412815417100E-094
   85.5950000000000        -5.113261527769657E-094
   85.7850000000000        -9.390880923697249E-094
   85.9750000000000        -1.473892597182358E-093
   86.1650000000000        -2.094308301820056E-093
   86.3550000000000        -2.752589385012971E-093
   86.5450000000000        -3.366766685208672E-093
   86.7350000000000        -3.813524336746555E-093
   86.9250000000000        -3.923434510816259E-093
   87.1150000000000        -3.480655583812487E-093
   87.3050000000000        -2.229706828132642E-093
   87.4950000000000         1.076772067889487E-094
   87.6850000000000         3.802463418417718E-093
   87.8750000000000         9.072115899609878E-093
   88.0650000000000         1.601622456373665E-092
   88.2550000000000         2.453355367528577E-092
   88.4450000000000         3.422270580911969E-092
   88.6350000000000         4.427232412563233E-092
   88.8250000000000         5.335165517126562E-092
   89.0150000000000         5.951827116422577E-092
   89.2050000000000         6.016649693861969E-092
   89.3950000000000         5.204701170702772E-092
   89.5850000000000         3.139426183102760E-092
   89.7750000000000        -5.797604096810821E-093
   89.9650000000000        -6.330932258021038E-092
   90.1550000000000        -1.440063666728794E-091
   90.3450000000000        -2.489028073085092E-091
   90.5350000000000        -3.759826528976264E-091
   90.7250000000000        -5.188197056303012E-091
   90.9150000000000        -6.650887769207705E-091
   91.1050000000000        -7.951271941985945E-091
   91.2950000000000        -8.807839149276136E-091
   91.4850000000000        -8.848794219191416E-091
   91.6750000000000        -7.616844746880815E-091
   91.8650000000000        -4.588970153197632E-091
   92.0550000000000         7.836334482578259E-092
   92.2450000000000         9.010368737553549E-091
   92.4350000000000         2.046667135903558E-090
   92.6250000000000         3.526791782076932E-090
   92.8150000000000         5.311301079629350E-090
   93.0050000000000         7.310377617826497E-090
   93.1950000000000         9.355294539131451E-090
   93.3850000000000         1.118017962093603E-089
   93.5750000000000         1.240781812663924E-089
   93.7650000000000         1.254360367186119E-089
   93.9550000000000         1.098274559937290E-089
   94.1450000000000         7.036645978727143E-090
   94.3350000000000        -1.524132406391673E-092
   94.5250000000000        -1.084202461062471E-089
   94.7150000000000        -2.594165311730441E-089
   94.9050000000000        -4.548258010609047E-089
   95.0950000000000        -6.910865634476863E-089
   95.2850000000000        -9.571506991169327E-089
   95.4750000000000        -1.232110782580348E-088
   95.6650000000000        -1.482950784755504E-088
   95.8550000000000        -1.662788443970579E-088
   96.0450000000000        -1.710097450772339E-088
   96.2350000000000        -1.549511880375667E-088
   96.4250000000000        -1.094905931001910E-088
   96.6150000000000        -2.554851218697478E-089
   96.8050000000000         1.054408617953691E-088
   96.9950000000000         2.901219557055527E-088
   97.1850000000000         5.313559644363127E-088
   97.3750000000000         8.259248504220630E-088
   97.5650000000000         1.161888486577588E-087
   97.7550000000000         1.515771211833131E-087
   97.9450000000000         1.849863585155824E-087
   98.1350000000000         2.110050844399478E-087
   98.3250000000000         2.224712949125324E-087
   98.5150000000000         2.105368433217487E-087
   98.7050000000000         1.649836127511751E-087
   98.8950000000000         7.487395893409743E-088
   99.0850000000000        -7.038523965827288E-088
   99.2750000000000        -2.795005101894013E-087
   99.4650000000000        -5.572377024874407E-087
   99.6550000000000        -9.018713425801808E-087
   99.8450000000000        -1.302224060797700E-086
   100.035000000000        -1.734476928424840E-086
   100.225000000000        -2.159047644096822E-086
   100.415000000000        -2.517967122787808E-086
   100.605000000000        -2.733327443344781E-086
   100.795000000000        -2.707511376631208E-086
   100.985000000000        -2.326026031668551E-086
   101.175000000000        -1.463824587977099E-086
   101.365000000000         4.020993227672783E-089
   101.555000000000         2.186572927418460E-086
   101.745000000000         5.155778664453712E-086
   101.935000000000         8.919780174771277E-086
   102.125000000000         1.339154934583734E-085
   102.315000000000         1.835455877255071E-085
   102.505000000000         2.342836296143850E-085
   102.695000000000         2.803831348721264E-085
   102.885000000000         3.139507961241365E-085
   103.075000000000         3.249105953842337E-085
   103.265000000000         3.012195629014289E-085
   103.455000000000         2.294250690318373E-085
   103.645000000000         9.565290167955963E-086
   103.835000000000        -1.128964884943534E-085
   104.025000000000        -4.058929321367757E-085
   104.215000000000        -7.872570820767624E-085
   104.405000000000        -1.252037064254165E-084
   104.595000000000        -1.782930310516656E-084
   104.785000000000        -2.346709938150061E-084
   104.975000000000        -2.890943383773194E-084
   105.165000000000        -3.341529878618281E-084
   105.355000000000        -3.601720654010187E-084
   105.545000000000        -3.553404224633859E-084
   105.735000000000        -3.061516133228640E-084
   105.925000000000        -1.982440671389422E-084
   106.115000000000        -1.771801173622056E-085
   106.305000000000         2.470157816678915E-084
   106.495000000000         6.028392435062761E-084
   106.685000000000         1.049023818767388E-083
   106.875000000000         1.573940394509306E-083
   107.065000000000         2.151599532447473E-083
   107.255000000000         2.738353427074664E-083
   107.445000000000         3.270215452673180E-083
   107.635000000000         3.661377525757314E-083
   107.825000000000         3.804615146332127E-083
   108.015000000000         3.574345792054397E-083
   108.205000000000         2.833125158554563E-083
   108.395000000000         1.442301366069611E-083
   108.585000000000        -7.226277334401217E-084
   108.775000000000        -3.751720545211942E-083
   108.965000000000        -7.675596284898341E-083
   109.155000000000        -1.243661070081688E-082
   109.345000000000        -1.785787756779739E-082
   109.535000000000        -2.361275283961656E-082
   109.725000000000        -2.919843044282317E-082
   109.915000000000        -3.391833930558969E-082
   110.105000000000        -3.687896518494628E-082