  -1.42500000000000         0.000000000000000E+000
  -1.23500000000000         0.000000000000000E+000
  -1.04500000000000         0.000000000000000E+000
 -0.855000000000000         0.000000000000000E+000
 -0.665000000000000         0.000000000000000E+000
 -0.475000000000000         0.000000000000000E+000
 -0.285000000000000         0.000000000000000E+000
 -9.499999999999975E-002    0.000000000000000E+000
  9.500000000000020E-002    0.000000000000000E+000
  0.285000000000000         0.000000000000000E+000
  0.475000000000000         0.000000000000000E+000
  0.665000000000000         0.000000000000000E+000
  0.855000000000000         0.000000000000000E+000
   1.04500000000000         0.000000000000000E+000
   1.23500000000000         0.000000000000000E+000
   1.42500000000000         0.000000000000000E+000
   1.61500000000000         0.000000000000000E+000
   1.80500000000000         0.000000000000000E+000
   1.99500000000000         0.000000000000000E+000
   2.18500000000000         0.000000000000000E+000
   2.37500000000000         0.000000000000000E+000
   2.56500000000000         0.000000000000000E+000
   2.75500000000000         0.000000000000000E+000
   2.94500000000000         0.000000000000000E+000
   3.13500000000000         0.000000000000000E+000
   3.32500000000000         0.000000000000000E+000
   3.51500000000000         0.000000000000000E+000
   3.70500000000000         0.000000000000000E+000
   3.89500000000000         0.000000000000000E+000
   4.08500000000000         0.000000000000000E+000
   4.27500000000000         0.000000000000000E+000
   4.46500000000000         0.000000000000000E+000
   4.65500000000000         0.000000000000000E+000
   4.84500000000000         0.000000000000000E+000
   5.03500000000000         0.000000000000000E+000
   5.22500000000000         0.000000000000000E+000
   5.41500000000000         0.000000000000000E+000
   5.60500000000000         0.000000000000000E+000
   5.79500000000000         0.000000000000000E+000
   5.98500000000000         0.000000000000000E+000
   6.17500000000000         0.000000000000000E+000
   6.36500000000000         0.000000000000000E+000
   6.55500000000000         0.000000000000000E+000
   6.74500000000000         0.000000000000000E+000
   6.93500000000000         0.000000000000000E+000
   7.12500000000000         0.000000000000000E+000
   7.31500000000000         0.000000000000000E+000
   7.50500000000000         0.000000000000000E+000
   7.69500000000000         0.000000000000000E+000
   7.88500000000000         0.000000000000000E+000
   8.07500000000000         0.000000000000000E+000
   8.26500000000000         6.457161911431145E-232
   8.45500000000000        -1.115550175208836E-225
   8.64500000000000        -6.072562472738390E-209
   8.83500000000000         1.199702836912618E-202
   9.02500000000000        -7.147140123433938E-200
   9.21500000000000        -4.254770737640618E-199
   9.40500000000000         9.925966364422913E-197
   9.59500000000000         2.748464423160227E-195
   9.78500000000000         6.820324044768036E-195
   9.97500000000000        -7.863568553146304E-193
   10.1650000000000        -2.227537361347127E-192
   10.3550000000000         8.094387691332100E-190
   10.5450000000000         3.339399417967610E-188
   10.7350000000000         8.231896997474264E-187
   10.9250000000000         1.527659033432128E-185
   11.1150000000000         2.320124395120352E-184
   11.3050000000000         3.011344043304301E-183
   11.4950000000000         3.430570721172130E-182
   11.6850000000000         3.493275861016673E-181
   11.8750000000000         3.221867780467265E-180
   12.0650000000000         2.718669999638576E-179
   12.2550000000000         2.115410791649733E-178
   12.4450000000000         1.527379319433855E-177
   12.6350000000000         1.028512848850896E-176
   12.8250000000000         6.485702361729468E-176
   13.0150000000000         3.842436781275441E-175
   13.2050000000000         2.144173137190822E-174
   13.3950000000000         1.129056384631530E-173
   13.5850000000000         5.616459453090883E-173
   13.7750000000000         2.640215977889260E-172
   13.9650000000000         1.172061655116593E-171
   14.1550000000000         4.903478451202931E-171
   14.3450000000000         1.925326286955097E-170
   14.5350000000000         7.040782515200918E-170
   14.7250000000000         2.363623235113972E-169
   14.9150000000000         7.069891589425433E-169
   15.1050000000000         1.747686713170839E-168
   15.2950000000000         2.628715915107722E-168
   15.4850000000000        -5.342282879953878E-168
   15.6750000000000        -7.291057344498814E-167
   15.8650000000000        -4.369206945425812E-166
   16.0550000000000        -2.070284471124104E-165
   16.2450000000000        -8.615655923141509E-165
   16.4350000000000        -3.269503466334019E-164
   16.6250000000000        -1.150318312145517E-163
   16.8150000000000        -3.779613495121689E-163
   17.0050000000000        -1.161535723880832E-162
   17.1950000000000        -3.326708104436181E-162
   17.3850000000000        -8.787686541310479E-162
   17.5750000000000        -2.091880445316334E-161
   17.7650000000000        -4.242746438823749E-161
   17.9550000000000        -6.066834243412754E-161
   18.1450000000000         1.374046117641574E-161
   18.3350000000000         5.565571676443528E-160
   18.5250000000000         2.855588837088653E-159
   18.7150000000000         1.076786549038624E-158
   18.9050000000000         3.455533714247997E-158
   19.0950000000000         9.812878466992351E-158
   19.2850000000000         2.471937869922814E-157
   19.4750000000000         5.352710610584995E-157
   19.6650000000000         8.843765878876721E-157
   19.8550000000000         4.486884852661345E-157
   20.0450000000000        -4.705424212554299E-156
   20.2350000000000        -2.908892432789472E-155
   20.4250000000000        -1.200410138924359E-154
   20.6150000000000        -4.197000723799339E-154
   20.8050000000000        -1.328434186551042E-153
   20.9950000000000        -3.915299884173263E-153
   21.1850000000000        -1.090288996396087E-152
   21.3750000000000        -2.892799440786078E-152
   21.5650000000000        -7.350582933542730E-152
   21.7550000000000        -1.794439619480066E-151
   21.9450000000000        -4.216524242896209E-151
   22.1350000000000        -9.545700366819063E-151
   22.3250000000000        -2.082478258478783E-150
   22.5150000000000        -4.376308161870548E-150
   22.7050000000000        -8.851732867852261E-150
   22.8950000000000        -1.721407186104396E-149
   23.0850000000000        -3.216189268422832E-149
   23.2750000000000        -5.777148737111828E-149
   23.4650000000000        -1.002605147519493E-148
   23.6550000000000        -1.705989609968998E-148
   23.8450000000000        -2.943066142634886E-148
   24.0350000000000        -5.449325286570027E-148
   24.2250000000000        -1.146949320898709E-147
   24.4150000000000        -2.764981336172280E-147
   24.6050000000000        -7.259217457245763E-147
   24.7950000000000        -1.953971089216141E-146
   24.9850000000000        -5.187749282439125E-146
   25.1750000000000        -1.334453507412787E-145
   25.3650000000000        -3.304742367419579E-145
   25.5550000000000        -7.869480478636057E-145
   25.7450000000000        -1.803060849915130E-144
   25.9350000000000        -3.979236151531870E-144
   26.1250000000000        -8.466308886910719E-144
   26.3150000000000        -1.737209357015726E-143
   26.5050000000000        -3.436558677683383E-143
   26.6950000000000        -6.545663933395968E-143
   26.8850000000000        -1.197374382222800E-142
   27.0750000000000        -2.094151323033269E-142
   27.2650000000000        -3.475083238757833E-142
   27.4550000000000        -5.397641559547193E-142
   27.6450000000000        -7.641978278008232E-142
   27.8350000000000        -9.266748483906117E-142
   28.0250000000000        -7.740098450532853E-142
   28.2150000000000         2.617903110145094E-142
   28.4050000000000         3.319231739384823E-141
   28.5950000000000         1.048545148299859E-140
   28.7850000000000         2.527539640707445E-140
   28.9750000000000         5.307009713649219E-140
   29.1650000000000         1.011026263311863E-139
   29.3550000000000         1.770489051439977E-139
   29.5450000000000         2.843294084249512E-139
   29.7350000000000         4.106752392654499E-139
   29.9250000000000         5.042296302445938E-139
   30.1150000000000         4.285625862073686E-139
   30.3050000000000        -1.147537303295159E-139
   30.4950000000000        -1.707729232734891E-138
   30.6850000000000        -5.386471092424675E-138
   30.8750000000000        -1.284129894609254E-137
   31.0650000000000        -2.656804172545504E-137
   31.2550000000000        -4.976810286060131E-137
   31.4450000000000        -8.555943254932888E-137
   31.6350000000000        -1.346471594706781E-136
   31.8250000000000        -1.899265204267418E-136
   32.0150000000000        -2.254626399020920E-136
   32.2050000000000        -1.758568479478166E-136
   32.3950000000000         9.976784716928824E-137
   32.5850000000000         8.767019428823863E-136
   32.7750000000000         2.654897850982998E-135
   32.9650000000000         6.286907576789867E-135
   33.1550000000000         1.314130557082910E-134
   33.3450000000000         2.527780665664599E-134
   33.5350000000000         4.556521868405727E-134
   33.7250000000000         7.758887547526138E-134
   33.9150000000000         1.250477519462577E-133
   34.1050000000000         1.901041025189765E-133
   34.2950000000000         2.697880723214300E-133
   34.4850000000000         3.490508332922726E-133
   34.6750000000000         3.884053430268888E-133
   34.8650000000000         3.033674520589036E-133
   35.0550000000000        -6.766904569257923E-134
   35.2450000000000        -1.010434093068192E-132
   35.4350000000000        -2.998335749615697E-132
   35.6250000000000        -6.769363410357746E-132
   35.8150000000000        -1.340228488568199E-131
   36.0050000000000        -2.435711063972509E-131
   36.1950000000000        -4.140787626374980E-131
   36.3850000000000        -6.633553788293594E-131
   36.5750000000000        -1.001572718851414E-130
   36.7650000000000        -1.415400530813047E-130
   36.9550000000000        -1.838834393016321E-130
   37.1450000000000        -2.103800131957305E-130
   37.3350000000000        -1.862288211837093E-130
   37.5250000000000        -4.720584361286562E-131
   37.7150000000000         3.158000175501026E-130
   37.9050000000000         1.075549017620917E-129
   38.0950000000000         2.487410817254197E-129
   38.2850000000000         4.901149929913706E-129
   38.4750000000000         8.751225562703654E-129
   38.6650000000000         1.450108739232907E-128
   38.8550000000000         2.250349886757184E-128
   39.0450000000000         3.272374152349344E-128
   39.2350000000000         4.425998158854303E-128
   39.4250000000000         5.459410200008006E-128
   39.6150000000000         5.853269557798610E-128
   39.8050000000000         4.687603462645671E-128
   39.9950000000000         5.015653490796481E-129
   40.1850000000000        -8.805398401365450E-128
   40.3750000000000        -2.593884883806523E-127
   40.5650000000000        -5.389097784884323E-127
   40.7550000000000        -9.512500021623295E-127
   40.9450000000000        -1.500051134133327E-126
   41.1350000000000        -2.142430220430753E-126
   41.3250000000000        -2.753241521490655E-126
   41.5150000000000        -3.083769377086332E-126
   41.7050000000000        -2.729569866481276E-126
   41.8950000000000        -1.139717793718646E-126
   42.0850000000000         2.273189371586663E-126
   42.2750000000000         7.825879547434738E-126
   42.4650000000000         1.492076537455100E-125
   42.6550000000000         2.089055987034522E-125
   42.8450000000000         1.915557429191025E-125
   43.0350000000000        -3.393487549921003E-126
   43.2250000000000        -6.960943288602573E-125
   43.4150000000000        -2.151483850923170E-124
   43.6050000000000        -4.895675456081185E-124
   43.7950000000000        -9.519076535821905E-124
   43.9850000000000        -1.654593885418651E-123
   44.1750000000000        -2.605966144155246E-123
   44.3650000000000        -3.697618789515162E-123
   44.5550000000000        -4.578973321051711E-123
   44.7450000000000        -4.460287867973788E-123
   44.9350000000000        -1.830635138849257E-123
   45.1250000000000         5.904102388381350E-123
   45.3150000000000         2.281646134490702E-122
   45.5050000000000         5.476050746687449E-122
   45.6950000000000         1.093254163387348E-121
   45.8850000000000         1.949799033767735E-121
   46.0750000000000         3.186653679135065E-121
   46.2650000000000         4.807414415271071E-121
   46.4550000000000         6.658097046689669E-121
   46.6450000000000         8.276577798237141E-121
   46.8350000000000         8.666077572805176E-121
   47.0250000000000         5.983162242447886E-121
   47.2150000000000        -2.848254336457202E-121
   47.4050000000000        -2.254225623301662E-120
   47.5950000000000        -5.974437230357562E-120
   47.7850000000000        -1.229591229010595E-119
   47.9750000000000        -2.216775517133146E-119
   48.1650000000000        -3.640293414679695E-119
   48.3550000000000        -5.519954434417932E-119
   48.5450000000000        -7.729284597909204E-119
   48.7350000000000        -9.859430296733335E-119
   48.9250000000000        -1.101846818250374E-118
   49.1150000000000        -9.559937092233985E-119
   49.3050000000000        -2.752146266291190E-119
   49.4950000000000         1.356556045984723E-118
   49.6850000000000         4.523422591124445E-118
   49.8750000000000         9.973723479237510E-118
   50.0650000000000         1.855450803617513E-117
   50.2550000000000         3.103458285693542E-117
   50.4450000000000         4.774689318118503E-117
   50.6350000000000         6.796252041626431E-117
   50.8250000000000         8.889846874288481E-117
   51.0150000000000         1.042724235698727E-116
   51.2050000000000         1.023697210762263E-116
   51.3950000000000         6.370937176079466E-117
   51.5850000000000        -4.137567518406870E-117
   51.7750000000000        -2.545504083845029E-116
   51.9650000000000        -6.294173532052723E-116
   52.1550000000000        -1.227529671575497E-115
   52.3450000000000        -2.107428862599766E-115
   52.5350000000000        -3.302552340517236E-115
   52.7250000000000        -4.782867350750501E-115
   52.9150000000000        -6.394648879832376E-115
   53.1050000000000        -7.773648790114649E-115
   53.2950000000000        -8.230081446248524E-115
   53.4850000000000        -6.610864086043206E-115
   53.6750000000000        -1.157258333318515E-115
   53.8650000000000         1.060348212865999E-114
   54.0550000000000         3.186381137870291E-114
   54.2450000000000         6.632983271069803E-114
   54.4350000000000         1.176449143710137E-113
   54.6250000000000         1.882314617696957E-113
   54.8150000000000         2.772949769192022E-113
   55.0050000000000         3.777204592761660E-113
   55.1950000000000         4.716418620720613E-113
   55.3850000000000         5.246306040937456E-113
   55.5750000000000         4.787951553787259E-113
   55.7650000000000         2.456897128161202E-113
   55.9550000000000        -2.991214432720705E-113
   56.1450000000000        -1.316640371621091E-112
   56.3350000000000        -2.995169548455470E-112
   56.5250000000000        -5.524108963539346E-112
   56.7150000000000        -9.041548720053192E-112
   56.9050000000000        -1.354470167046314E-111
   57.0950000000000        -1.875194954554472E-111
   57.2850000000000        -2.390784658520546E-111
   57.4750000000000        -2.752982680268329E-111
   57.6650000000000        -2.711013586088414E-111
   57.8550000000000        -1.881157244584951E-111
   58.0450000000000         2.766170544831155E-112
   58.2350000000000         4.461946343123687E-111
   58.4250000000000         1.149747407246360E-110
   58.6150000000000         2.222467518601649E-110
   58.8050000000000         3.729666307851630E-110
   58.9950000000000         5.682699499597595E-110
   59.1850000000000         7.985366023410916E-110
   59.3750000000000         1.035884528265110E-109
   59.5650000000000         1.224507418424564E-109
   59.7550000000000         1.269398165070664E-109
   59.9450000000000         1.024909015723525E-109
   60.1350000000000         2.859519038225760E-110
   60.3250000000000        -1.213513257197636E-109
   60.5150000000000        -3.787752357954428E-109
   60.7050000000000        -7.762762626555984E-109
   60.8950000000000        -1.340402787755356E-108
   61.0850000000000        -2.079494721910639E-108
   61.2750000000000        -2.965277074784024E-108
   61.4650000000000        -3.907292766569871E-108
   61.6550000000000        -4.720247115461394E-108
   61.8450000000000        -5.086154518046477E-108
   62.0350000000000        -4.516098722217906E-108
   62.2250000000000        -2.320668928189511E-108
   62.4150000000000         2.396189759663065E-108
   62.6050000000000         1.069824105126941E-107
   62.7950000000000         2.370369507003212E-107
   62.9850000000000         4.236145006237567E-107
   63.1750000000000         6.707659034525426E-107
   63.3650000000000         9.714701228813421E-107
   63.5550000000000         1.299860194113022E-106
   63.7450000000000         1.601354623250057E-106
   63.9350000000000         1.781273194927631E-106
   64.1250000000000         1.693353813082742E-106
   64.3150000000000         1.130782433482511E-106
   64.5050000000000        -1.760854047225597E-107
   64.6950000000000        -2.549257583877642E-106
   64.8850000000000        -6.331838316334155E-106
   65.0750000000000        -1.182613973178642E-105
   65.2650000000000        -1.919041183428387E-105
   65.4550000000000        -2.828419580241853E-105
   65.6450000000000        -3.845596009891168E-105
   65.8350000000000        -4.827468926472463E-105
   66.0250000000000        -5.522110013749754E-105
   66.2150000000000        -5.537573587145019E-105
   66.4050000000000        -4.317144745590507E-105
   66.5950000000000        -1.131675787807206E-105
   66.7850000000000         4.895754779240307E-105
   66.9750000000000         1.471283744550627E-104
   67.1650000000000         2.918456339214287E-104
   67.3550000000000         4.883720958235921E-104
   67.5450000000000         7.347592309803886E-104
   67.7350000000000         1.016611965610758E-103
   67.9250000000000         1.300488748137737E-103
   68.1150000000000         1.526314437708147E-103
   68.3050000000000         1.599684988324818E-103
   68.4950000000000         1.385635423053598E-103
   68.6850000000000         7.063214582793302E-104
   68.8750000000000        -6.539175860466605E-104
   69.0650000000000        -2.931604140464157E-103
   69.2550000000000        -6.349898871771849E-103
   69.4450000000000        -1.106135360487625E-102
   69.6350000000000        -1.706243734539161E-102
   69.8250000000000        -2.407667912810857E-102
   70.0150000000000        -3.140748171799398E-102
   70.2050000000000        -3.776873606611559E-102
   70.3950000000000        -4.111192461813799E-102
   70.5850000000000        -3.848278471015266E-102
   70.7750000000000        -2.595861378351347E-102
   70.9650000000000         1.262145475033082E-103
   71.1550000000000         4.852567065405915E-102
   71.3450000000000         1.210346886773485E-101
   71.5350000000000         2.226906628523276E-101
   71.7250000000000         3.543622165875139E-101
   71.9150000000000         5.115169876049997E-101
   72.1050000000000         6.812370021641493E-101
   72.2950000000000         8.387748620627405E-101
   72.4850000000000         9.440101293908854E-101
   72.6750000000000         9.384373033463394E-101
   72.8650000000000         7.436533828036665E-101
   73.0550000000000         2.626924910661127E-101
   73.2450000000000        -6.140675667853402E-101
   73.4350000000000        -1.996401851602383E-100
   73.6250000000000        -3.973001408177968E-100
   73.8150000000000        -6.579593206220978E-100
   74.0050000000000        -9.755257644090317E-100
   74.1950000000000        -1.328726731750848E-099
   74.3850000000000        -1.674719382754929E-099
   74.5750000000000        -1.942455848305705E-099
   74.7650000000000        -2.026900267876352E-099
   74.9550000000000        -1.785770931357776E-099
   75.1450000000000        -1.041122630197708E-099
   75.3350000000000         4.112847593028601E-100
   75.5250000000000         2.781391697863187E-099
   75.7150000000000         6.249404768660792E-099
   75.9050000000000         1.091229676794492E-098
   76.0950000000000         1.671025746039604E-098
   76.2850000000000         2.333353237879921E-098
   76.4750000000000         3.011400017223572E-098
   76.6650000000000         3.591148288003565E-098
   76.8550000000000         3.901223024807593E-098
   77.0450000000000         3.706605556002637E-098
   77.2350000000000         2.709858663145502E-098
   77.4250000000000         5.644813682947159E-099
   77.6150000000000        -3.094237104051581E-098
   77.8050000000000        -8.595239208217986E-098
   77.9950000000000        -1.614957012321318E-097
   78.1850000000000        -2.573695070027988E-097
   78.3750000000000        -3.696152820524992E-097
   78.5650000000000        -4.888308433918889E-097
   78.7550000000000        -5.983828072746643E-097
   78.9450000000000        -6.727738655218418E-097
   79.1350000000000        -6.765501341398432E-097
   79.3250000000000        -5.642772595100889E-097
   79.5150000000000        -2.822524683121308E-097
   79.7050000000000         2.272740443819962E-097
   79.8950000000000         1.018559325455836E-096
   80.0850000000000         2.130784249176219E-096
   80.2750000000000         3.571962157622634E-096
   80.4650000000000         5.298374436855159E-096
   80.6550000000000         7.190361875713488E-096
   80.8450000000000         9.026428485761017E-096
   81.0350000000000         1.045908088427193E-095
   81.2250000000000         1.099758066418127E-095
   81.4150000000000         1.000469947048821E-095
   81.6050000000000         6.716403516275169E-096
   81.7950000000000         2.947989888934548E-097
   81.9850000000000        -1.007484971947884E-095
   82.1750000000000        -2.503328232123272E-095
   82.3650000000000        -4.483617077928033E-095
   82.5550000000000        -6.908275288029337E-095
   82.7450000000000        -9.639417101497306E-095
   82.9350000000000        -1.240657374910229E-094
   83.1250000000000        -1.477357518783877E-094
   83.3150000000000        -1.611354195567412E-094
   83.5050000000000        -1.560082388909466E-094
   83.6950000000000        -1.223100769179303E-094
   83.8850000000000        -4.881872155634967E-095
   84.0750000000000         7.571190113581688E-095
   84.2650000000000         2.607297800358182E-094
   84.4550000000000         5.113111731455933E-094
   84.6450000000000         8.248261247418299E-094
   84.8350000000000         1.186952404427085E-093
   85.0250000000000         1.567314200377595E-093
   85.2150000000000         1.915237714601427E-093
   85.4050000000000         2.156372608477509E-093
   85.5950000000000         2.191207419597025E-093
   85.7850000000000         1.896776211721997E-093
   85.9750000000000         1.133064313587448E-093
   86.1650000000000        -2.442925781509701E-094
   86.3550000000000        -2.363540973514434E-093
   86.5450000000000        -5.307517102769421E-093
   86.7350000000000        -9.075286049905826E-093
   86.9250000000000        -1.353576376137021E-092
   87.1150000000000        -1.837620553244184E-092
   87.3050000000000        -2.305081752211989E-092
   87.4950000000000        -2.673758147971875E-092
   87.6850000000000        -2.831448319636811E-092
   87.8750000000000        -2.636936409286624E-092
   88.0650000000000        -1.926006700088865E-092
   88.2550000000000        -5.242738037420946E-093
   88.4450000000000         1.731477280459976E-092
   88.6350000000000         4.962147078573928E-092
   88.8250000000000         9.204888618649665E-092
   89.0150000000000         1.436221037318241E-091
   89.2050000000000         2.014431359413240E-091
   89.3950000000000         2.600981056935503E-091
   89.5850000000000         3.111292319029823E-091
   89.7750000000000         3.426853760815349E-091
   89.9650000000000         3.394976834019826E-091
   90.1550000000000         2.833547682311484E-091
   90.3450000000000         1.542683182632009E-091
   90.5350000000000        -6.748338138220250E-092
   90.7250000000000        -3.982792710312465E-091
   90.9150000000000        -8.469642552432988E-091
   91.1050000000000        -1.409581734498074E-090
   91.2950000000000        -2.063246224274303E-090
   91.4850000000000        -2.759608419516403E-090
   91.6750000000000        -3.418655122811432E-090
   91.8650000000000        -3.923915806916165E-090
   92.0550000000000        -4.120488630803435E-090
   92.2450000000000        -3.817608602278102E-090
   92.4350000000000        -2.797699750719638E-090
   92.6250000000000        -8.339057422061608E-091
   92.8150000000000         2.282110220975935E-090
   93.0050000000000         6.700862436892801E-090
   93.1950000000000         1.246400871865379E-089
   93.3850000000000         1.944289113105484E-089
   93.5750000000000         2.727006312765843E-089
   93.7650000000000         3.526987990274879E-089
   93.9550000000000         4.239735725814224E-089
   94.1450000000000         4.719789130875175E-089
   94.3350000000000         4.780373946970968E-089
   94.5250000000000         4.198590537984234E-089
   94.7150000000000         2.728160530211703E-089
   94.9050000000000         1.217038606862615E-090
   95.0950000000000        -3.835814532745073E-089
   95.2850000000000        -9.281541661955147E-089
   95.4750000000000        -1.621734723299166E-088
   95.6650000000000        -2.444254299211437E-088
   95.8550000000000        -3.348092181361876E-088
   96.0450000000000        -4.250909883209359E-088
   96.2350000000000        -5.029630229954054E-088
   96.4250000000000        -5.516909431752544E-088
   96.6150000000000        -5.501764803473500E-088
   96.8050000000000        -4.736267681817613E-088
   96.9950000000000        -2.950327184589821E-088
   97.1850000000000         1.234995450066233E-089
   97.3750000000000         4.713614722590423E-088
   97.5650000000000         1.096060392942458E-087
   97.7550000000000         1.885648301584219E-087
   97.9450000000000         2.817408987968411E-087
   98.1350000000000         3.839098561535099E-087
   98.3250000000000         4.861496054322746E-087
   98.5150000000000         5.752134447317369E-087
   98.7050000000000         6.331558374039815E-087
   98.8950000000000         6.373764096241675E-087
   99.0850000000000         5.612724047451797E-087
   99.2750000000000         3.757023686524770E-087
   99.4650000000000         5.145722715350059E-088
   99.6550000000000        -4.370987409658382E-087
   99.8450000000000        -1.107123416561197E-086
   100.035000000000        -1.961146974789328E-086
   100.225000000000        -2.979855359891492E-086
   100.415000000000        -4.114198042584665E-086
   100.605000000000        -5.277472811284359E-086
   100.795000000000        -6.338342873068686E-086
   100.985000000000        -7.116067098221564E-086
   101.175000000000        -7.379544464328746E-086
   101.365000000000        -6.852048122214626E-086
   101.555000000000        -5.223699639858509E-086
   101.745000000000        -2.173744124490417E-086
   101.935000000000         2.595543926085361E-086
   102.125000000000         9.312047989316827E-086
   102.315000000000         1.807377176692447E-085
   102.505000000000         2.877668965825553E-085
   102.695000000000         4.103355032354031E-085
   102.885000000000         5.408917496632590E-085
   103.075000000000         6.674073980335997E-085
   103.265000000000         7.727481667504825E-085
   103.455000000000         8.343633150843519E-085
   103.645000000000         8.244773290216503E-085
   103.835000000000         7.109905656728690E-085
   104.025000000000         4.593060613264237E-085
   104.215000000000         3.528906250557695E-086
   104.405000000000        -5.904740875539599E-085
   104.595000000000        -1.437028865147445E-084
   104.785000000000        -2.506052083434979E-084
   104.975000000000        -3.773708460935730E-084
   105.165000000000        -5.181805121500875E-084
   105.355000000000        -6.628967607996361E-084
   105.545000000000        -7.962886084427691E-084
   105.735000000000        -8.975028463456336E-084
   105.925000000000        -9.399557272024525E-084
   106.115000000000        -8.918475162842931E-084
   106.305000000000        -7.175202460435640E-084
   106.495000000000        -3.798788509579321E-084
   106.685000000000         1.559303768298159E-084
   106.875000000000         9.174509445867336E-084
   107.065000000000         1.918427629839855E-083
   107.255000000000         3.151022442590656E-083
   107.445000000000         4.577066354955105E-083
   107.635000000000         6.118938044839233E-083
   107.825000000000         7.650966355725791E-083
   108.015000000000         8.992588049355269E-083
   108.205000000000         9.904830090545191E-083
   108.395000000000         1.009198752130847E-082
   108.585000000000         9.210582711953279E-083
   108.775000000000         6.887756215094361E-083
   108.965000000000         2.751080799848145E-083
   109.155000000000        -3.528669326776656E-083
   109.345000000000        -1.218109836315132E-082
   109.535000000000        -2.326669882444123E-082
   109.725000000000        -3.659662894302364E-082
   109.915000000000        -5.164633052136162E-082
   110.105000000000        -6.747021792111072E-082