  -1.42500000000000         0.000000000000000E+000
  -1.23500000000000         0.000000000000000E+000
  -1.04500000000000         0.000000000000000E+000
 -0.855000000000000         0.000000000000000E+000
 -0.665000000000000         0.000000000000000E+000
 -0.475000000000000         0.000000000000000E+000
 -0.285000000000000         0.000000000000000E+000
 -9.499999999999975E-002    0.000000000000000E+000
  9.500000000000020E-002    0.000000000000000E+000
  0.285000000000000         0.000000000000000E+000
  0.475000000000000         0.000000000000000E+000
  0.665000000000000         0.000000000000000E+000
  0.855000000000000         0.000000000000000E+000
   1.04500000000000         0.000000000000000E+000
   1.23500000000000         0.000000000000000E+000
   1.42500000000000         0.000000000000000E+000
   1.61500000000000         0.000000000000000E+000
   1.80500000000000         0.000000000000000E+000
   1.99500000000000         0.000000000000000E+000
   2.18500000000000         0.000000000000000E+000
   2.37500000000000         0.000000000000000E+000
   2.56500000000000         0.000000000000000E+000
   2.75500000000000         0.000000000000000E+000
   2.94500000000000         0.000000000000000E+000
   3.13500000000000         0.000000000000000E+000
   3.32500000000000         0.000000000000000E+000
   3.51500000000000         0.000000000000000E+000
   3.70500000000000         0.000000000000000E+000
   3.89500000000000         0.000000000000000E+000
   4.08500000000000         0.000000000000000E+000
   4.27500000000000         0.000000000000000E+000
   4.46500000000000         0.000000000000000E+000
   4.65500000000000         0.000000000000000E+000
   4.84500000000000         0.000000000000000E+000
   5.03500000000000         0.000000000000000E+000
   5.22500000000000         0.000000000000000E+000
   5.41500000000000         0.000000000000000E+000
   5.60500000000000         0.000000000000000E+000
   5.79500000000000         0.000000000000000E+000
   5.98500000000000         0.000000000000000E+000
   6.17500000000000         0.000000000000000E+000
   6.36500000000000         0.000000000000000E+000
   6.55500000000000         0.000000000000000E+000
   6.74500000000000         0.000000000000000E+000
   6.93500000000000         0.000000000000000E+000
   7.12500000000000         0.000000000000000E+000
   7.31500000000000         0.000000000000000E+000
   7.50500000000000         0.000000000000000E+000
   7.69500000000000         0.000000000000000E+000
   7.88500000000000         0.000000000000000E+000
   8.07500000000000         0.000000000000000E+000
   8.26500000000000         0.000000000000000E+000
   8.45500000000000         0.000000000000000E+000
   8.64500000000000         0.000000000000000E+000
   8.83500000000000        -1.661165300784526E-221
   9.02500000000000        -8.218709775459771E-209
   9.21500000000000        -3.895990096671965E-207
   9.40500000000000        -4.402281671384033E-205
   9.59500000000000        -5.008661109229235E-203
   9.78500000000000        -2.891576476942186E-201
   9.97500000000000        -1.023244554841608E-199
   10.1650000000000        -2.491422137438312E-198
   10.3550000000000        -4.365000835218359E-197
   10.5450000000000        -5.330387553712130E-196
   10.7350000000000        -3.333938719071427E-195
   10.9250000000000         3.369394431306750E-194
   11.1150000000000         1.496459208353842E-192
   11.3050000000000         2.953387743152749E-191
   11.4950000000000         4.367562563788581E-190
   11.6850000000000         5.392182506006685E-189
   11.8750000000000         5.810575599003633E-188
   12.0650000000000         5.598355232196944E-187
   12.2550000000000         4.896190303215999E-186
   12.4450000000000         3.927501511885194E-185
   12.6350000000000         2.911221997981322E-184
   12.8250000000000         2.004967383188523E-183
   13.0150000000000         1.287997462749423E-182
   13.2050000000000         7.737790593667543E-182
   13.3950000000000         4.352566569618350E-181
   13.5850000000000         2.291643840540605E-180
   13.7750000000000         1.126507970928790E-179
   13.9650000000000         5.139732763699993E-179
   14.1550000000000         2.150214347813917E-178
   14.3450000000000         8.037583575826898E-178
   14.5350000000000         2.517269206209414E-177
   14.7250000000000         5.197661310779916E-177
   14.9150000000000        -6.730569234846305E-177
   15.1050000000000        -1.634368874945977E-175
   15.2950000000000        -1.266283578970195E-174
   15.4850000000000        -7.578817141315432E-174
   15.6750000000000        -3.974840165008057E-173
   15.8650000000000        -1.909778125133373E-172
   16.0550000000000        -8.585732218895190E-172
   16.2450000000000        -3.654785288783275E-171
   16.4350000000000        -1.484081662636127E-170
   16.6250000000000        -5.777349942241581E-170
   16.8150000000000        -2.163734822845990E-169
   17.0050000000000        -7.816347833389635E-169
   17.1950000000000        -2.728764518194817E-168
   17.3850000000000        -9.219814761156829E-168
   17.5750000000000        -3.018173005460129E-167
   17.7650000000000        -9.580150359897627E-167
   17.9550000000000        -2.950069035711116E-166
   18.1450000000000        -8.815386839083808E-166
   18.3350000000000        -2.556286447625331E-165
   18.5250000000000        -7.191672563078322E-165
   18.7150000000000        -1.961831826518038E-164
   18.9050000000000        -5.184409095507108E-164
   19.0950000000000        -1.325317018355389E-163
   19.2850000000000        -3.270375809200636E-163
   19.4750000000000        -7.765241387967222E-163
   19.6650000000000        -1.765584987503158E-162
   19.8550000000000        -3.814450919572634E-162
   20.0450000000000        -7.726309353319091E-162
   20.2350000000000        -1.429615041437627E-161
   20.4250000000000        -2.272455194749649E-161
   20.6150000000000        -2.496416798210783E-161
   20.8050000000000         1.154458935109137E-161
   20.9950000000000         1.926359631320406E-160
   21.1850000000000         8.296394938756829E-160
   21.3750000000000         2.791831753873494E-159
   21.5650000000000         8.445163550473528E-159
   21.7550000000000         2.417423174239986E-158
   21.9450000000000         6.723484330373571E-158
   22.1350000000000         1.845261674345301E-157
   22.3250000000000         5.040951762193641E-157
   22.5150000000000         1.375590124679080E-156
   22.7050000000000         3.748330633984743E-156
   22.8950000000000         1.017032968500981E-155
   23.0850000000000         2.736920596687357E-155
   23.2750000000000         7.275174129587251E-155
   23.4650000000000         1.903234739732262E-154
   23.6550000000000         4.885400047436837E-154
   23.8450000000000         1.227497748899881E-153
   24.0350000000000         3.013044329285024E-153
   24.2250000000000         7.213032228514284E-153
   24.4150000000000         1.681278171708104E-152
   24.6050000000000         3.808627844745079E-152
   24.7950000000000         8.365540533216093E-152
   24.9850000000000         1.775909266068679E-151
   25.1750000000000         3.626462175735379E-151
   25.3650000000000         7.069926904335405E-151
   25.5550000000000         1.299059535325355E-150
   25.7450000000000         2.195006307968617E-150
   25.9350000000000         3.223067698770730E-150
   26.1250000000000         3.407402734099538E-150
   26.3150000000000        -5.423859937546479E-151
   26.5050000000000        -1.790839438905006E-149
   26.6950000000000        -7.244314966200294E-149
   26.8850000000000        -2.210893339447777E-148
   27.0750000000000        -5.938139133944303E-148
   27.2650000000000        -1.475642884276111E-147
   27.4550000000000        -3.470601291314476E-147
   27.6450000000000        -7.820157064121307E-147
   27.8350000000000        -1.700496176318251E-146
   28.0250000000000        -3.585111607994038E-146
   28.2150000000000        -7.350744640441721E-146
   28.4050000000000        -1.468751126810151E-145
   28.5950000000000        -2.863605041993358E-145
   28.7850000000000        -5.451495576102895E-145
   28.9750000000000        -1.013412670345825E-144
   29.1650000000000        -1.838507594128333E-144
   29.3550000000000        -3.250271971183655E-144
   29.5450000000000        -5.584399988655179E-144
   29.7350000000000        -9.281217045923710E-144
   29.9250000000000        -1.480031331173503E-143
   30.1150000000000        -2.230956377841419E-143
   30.3050000000000        -3.083196378798909E-143
   30.4950000000000        -3.617108706500126E-143
   30.6850000000000        -2.620527907181922E-143
   30.8750000000000         2.929440645168378E-143
   31.0650000000000         1.999154713013585E-142
   31.2550000000000         6.376429789276885E-142
   31.4450000000000         1.661700703417947E-141
   31.6350000000000         3.921552437132765E-141
   31.8250000000000         8.702150454176868E-141
   32.0150000000000         1.848059357990989E-140
   32.2050000000000         3.791273193494477E-140
   32.3950000000000         7.552715606752198E-140
   32.5850000000000         1.465285194663649E-139
   32.7750000000000         2.772321419703777E-139
   32.9650000000000         5.116754345845455E-139
   33.1550000000000         9.206562060683338E-139
   33.3450000000000         1.612353661090824E-138
   33.5350000000000         2.740839293334264E-138
   33.7250000000000         4.502391173158597E-138
   33.9150000000000         7.096405272799715E-138
   34.1050000000000         1.060248413765031E-137
   34.2950000000000         1.467939777257074E-137
   34.4850000000000         1.791217686368782E-137
   34.6750000000000         1.650280160646963E-137
   34.8650000000000         1.796055555988850E-138
   35.0550000000000        -4.416540654692527E-137
   35.2450000000000        -1.562593226492733E-136
   35.4350000000000        -3.987332274943229E-136
   35.6250000000000        -8.845093513764818E-136
   35.8150000000000        -1.803280447856046E-135
   36.0050000000000        -3.459007574410181E-135
   36.1950000000000        -6.313362191036619E-135
   36.3850000000000        -1.102212162493157E-134
   36.5750000000000        -1.843190789597562E-134
   36.7650000000000        -2.946753796473846E-134
   36.9550000000000        -4.477441462952648E-134
   37.1450000000000        -6.387003182045768E-134
   37.3350000000000        -8.338356318628407E-134
   37.5250000000000        -9.370052992877322E-134
   37.7150000000000        -7.296427620385936E-134
   37.9050000000000         2.307625523768889E-134
   38.0950000000000         2.773794916910963E-133
   38.2850000000000         8.364432862282071E-133
   38.4750000000000         1.945822285428139E-132
   38.6650000000000         3.996983858732197E-132
   38.8550000000000         7.581927528445029E-132
   39.0450000000000         1.354271079519618E-131
   39.2350000000000         2.298499891267971E-131
   39.4250000000000         3.719251508810732E-131
   39.6150000000000         5.732524685531476E-131
   39.8050000000000         8.369893217740273E-131
   39.9950000000000         1.143163337105851E-130
   40.1850000000000         1.421440064917693E-130
   40.3750000000000         1.504024586259605E-130
   40.5650000000000         1.048848926576042E-130
   40.7550000000000        -5.789515315035287E-131
   40.9450000000000        -4.479623934818243E-130
   41.1350000000000        -1.245366135875731E-129
   41.3250000000000        -2.729383855226493E-129
   41.5150000000000        -5.309919709845228E-129
   41.7050000000000        -9.551725721669336E-129
   41.8950000000000        -1.617173352209157E-128
   42.0850000000000        -2.597277117255136E-128
   42.2750000000000        -3.965064365627170E-128
   42.4650000000000        -5.737334557913044E-128
   42.6550000000000        -7.797932862769839E-128
   42.8450000000000        -9.757725673704598E-128
   43.0350000000000        -1.072593941965103E-127
   43.2250000000000        -8.958243158809721E-128
   43.4150000000000        -1.345938285211455E-128
   43.6050000000000         1.727904981694233E-127
   43.7950000000000         5.501618401097914E-127
   43.9850000000000         1.238667517490735E-126
   44.1750000000000         2.405896662860692E-126
   44.3650000000000         4.269992900035126E-126
   44.5550000000000         7.088952167613482E-126
   44.7450000000000         1.112266105802079E-125
   44.9350000000000         1.654641711050818E-125
   45.1250000000000         2.328465318098866E-125
   45.3150000000000         3.072168123987616E-125
   45.5050000000000         3.723406751681314E-125
   45.6950000000000         3.948030003557155E-125
   45.8850000000000         3.138436711579283E-125
   46.0750000000000         2.771987629444222E-126
   46.2650000000000        -6.232085113430174E-125
   46.4550000000000        -1.875218607892282E-124
   46.6450000000000        -4.058081840879491E-124
   46.8350000000000        -7.602625304541988E-124
   47.0250000000000        -1.302590709723002E-123
   47.2150000000000        -2.087275788105893E-123
   47.4050000000000        -3.158145874579650E-123
   47.5950000000000        -4.522762655049664E-123
   47.7850000000000        -6.108497817397255E-123
   47.9750000000000        -7.692715517354393E-123
   48.1650000000000        -8.798637909968749E-123
   48.3550000000000        -8.549136303617676E-123
   48.5450000000000        -5.474295082310931E-123
   48.7350000000000         2.722732855772996E-123
   48.9250000000000         1.942036003977837E-122
   49.1150000000000         4.930389166646779E-122
   49.3050000000000         9.846669805281873E-122
   49.4950000000000         1.742259864374565E-121
   49.6850000000000         2.844000791561606E-121
   49.8750000000000         4.356753617657791E-121
   50.0650000000000         6.305497252212629E-121
   50.2550000000000         8.621901150560365E-121
   50.4450000000000         1.106416478214874E-120
   50.6350000000000         1.309980498789684E-120
   50.8250000000000         1.374439031919439E-120
   51.0150000000000         1.135371321907088E-120
   51.2050000000000         3.376573400611163E-121
   51.3950000000000        -1.390711089456324E-120
   51.5850000000000        -4.560945771700820E-120
   51.7750000000000        -9.832213787473716E-120
   51.9650000000000        -1.799095632457626E-119
   52.1550000000000        -2.987667511402721E-119
   52.3450000000000        -4.621988172294479E-119
   52.5350000000000        -6.734637362871818E-119
   52.7250000000000        -9.269074817703314E-119
   52.9150000000000        -1.200541663030425E-118
   53.1050000000000        -1.445420153431147E-118
   53.2950000000000        -1.571343055520172E-118
   53.4850000000000        -1.428869111320123E-118
   53.6750000000000        -7.885070966374100E-119
   53.8650000000000         6.805211836348573E-119
   54.0550000000000         3.427172692072661E-118
   54.2450000000000         8.022886082154043E-118
   54.4350000000000         1.514031053194574E-117
   54.6250000000000         2.548741508107387E-117
   54.8150000000000         3.967077772444713E-117
   55.0050000000000         5.795429157977426E-117
   55.1950000000000         7.987297153137083E-117
   55.3850000000000         1.036584657422074E-116
   55.5750000000000         1.254371650554277E-116
   55.7650000000000         1.381791545871913E-116
   55.9550000000000         1.304144577583967E-116
   56.1450000000000         8.480204566419541E-117
   56.3350000000000        -2.325130433433074E-117
   56.5250000000000        -2.265585277998000E-116
   56.7150000000000        -5.661096343283028E-116
   56.9050000000000        -1.089117843755047E-115
   57.0950000000000        -1.843882663840062E-115
   57.2850000000000        -2.869786374177507E-115
   57.4750000000000        -4.180344315106923E-115
   57.6650000000000        -5.736951227711444E-115
   57.8550000000000        -7.410970323472975E-115
   58.0450000000000        -8.932343025033401E-115
   58.2350000000000        -9.824293563213776E-115
   58.4250000000000        -9.326401871205581E-115
   58.6150000000000        -6.312847728260915E-115
   58.8050000000000         7.804335638893842E-116
   58.9950000000000         1.399605287604793E-114
   59.1850000000000         3.582608103503831E-114
   59.3750000000000         6.906022352702704E-114
   59.5650000000000         1.164388679551612E-113
   59.7550000000000         1.800189806899756E-113
   59.9450000000000         2.601442611278830E-113
   60.1350000000000         3.539035178519135E-113
   60.3250000000000         4.529720548795059E-113
   60.5150000000000         5.407728040504755E-113
   60.7050000000000         5.889839451504646E-113
   60.8950000000000         5.535786563601478E-113
   61.0850000000000         3.708340677264544E-113
   61.2750000000000        -4.588568330798993E-114
   61.4650000000000        -8.072637276485064E-113
   61.6550000000000        -2.045126447084885E-112
   61.8450000000000        -3.902770468593741E-112
   62.0350000000000        -6.514940397477886E-112
   62.2250000000000        -9.973064217425645E-112
   62.4150000000000        -1.427077006855652E-111
   62.6050000000000        -1.922465517270673E-111
   62.7950000000000        -2.436618952777268E-111
   62.9850000000000        -2.880310211128862E-111
   63.1750000000000        -3.105336404503339E-111
   63.3650000000000        -2.886283914600704E-111
   63.5550000000000        -1.902978102235961E-111
   63.7450000000000         2.723471013620616E-112
   63.9350000000000         4.176836497096295E-111
   64.1250000000000         1.043857205044995E-110
   64.3150000000000         1.972538409565279E-110
   64.5050000000000         3.264487164591635E-110
   64.6950000000000         4.957640193501553E-110
   64.8850000000000         7.041389492433326E-110
   65.0750000000000         9.419879393487468E-110
   65.2650000000000         1.186276706145232E-109
   65.4550000000000         1.394309260272130E-109
   65.6450000000000         1.496411716686920E-109
   65.8350000000000         1.388057603481905E-109
   66.0250000000000         9.225145623107714E-110
   66.2150000000000        -9.416107597530667E-111
   66.4050000000000        -1.902975497405957E-109
   66.5950000000000        -4.782680752141026E-109
   66.7850000000000        -9.025895920287592E-109
   66.9750000000000        -1.489384724965841E-108
   67.1650000000000        -2.254167909344170E-108
   67.3550000000000        -3.190564130606790E-108
   67.5450000000000        -4.254397399546328E-108
   67.7350000000000        -5.342579251673549E-108
   67.9250000000000        -6.266777812445172E-108
   68.1150000000000        -6.722829471951893E-108
   68.3050000000000        -6.258414488474816E-108
   68.4950000000000        -4.243803818417879E-108
   68.6850000000000         1.463785552805160E-109
   68.8750000000000         7.928389167224075E-108
   69.0650000000000         2.026472927638440E-107
   69.2550000000000         3.835735971396991E-107
   69.4450000000000         6.325115822467617E-107
   69.6350000000000         9.551585955364337E-107
   69.8250000000000         1.347734446355641E-106
   70.0150000000000         1.790420011196937E-106
   70.2050000000000         2.238797660091551E-106
   70.3950000000000         2.613385464126710E-106
   70.5850000000000         2.787788715389702E-106
   70.7750000000000         2.576652419188401E-106
   70.9650000000000         1.725534343522304E-106
   71.1550000000000        -9.394003387760989E-108
   71.3450000000000        -3.278737706363550E-106
   71.5350000000000        -8.272216824190457E-106
   71.7250000000000        -1.551654476491871E-105
   71.9150000000000        -2.536960351026447E-105
   72.1050000000000        -3.797534403409938E-105
   72.2950000000000        -5.307704947678533E-105
   72.4850000000000        -6.976581708943012E-105
   72.6750000000000        -8.616297353519885E-105
   72.8650000000000        -9.904651232987763E-105
   73.0550000000000        -1.034495017830770E-104
   73.2450000000000        -9.228415988536333E-105
   73.4350000000000        -5.607987298636402E-105
   73.6250000000000         1.703317802280522E-105
   73.8150000000000         1.409126174934527E-104
   74.0050000000000         3.303291512646570E-104
   74.1950000000000         5.989445204783730E-104
   74.3850000000000         9.560271090025221E-104
   74.5750000000000         1.401594754199247E-103
   74.7650000000000         1.919739003351020E-103
   74.9550000000000         2.470040687784655E-103
   75.1450000000000         2.977269126800749E-103
   75.3350000000000         3.320004411230974E-103
   75.5250000000000         3.319468429769488E-103
   75.7150000000000         2.730717753426459E-103
   75.9050000000000         1.239437651427949E-103
   76.0950000000000        -1.531162421712274E-103
   76.2850000000000        -5.997521045659122E-103
   76.4750000000000        -1.256992444521308E-102
   76.6650000000000        -2.157590369994209E-102
   76.8550000000000        -3.314505820239834E-102
   77.0450000000000        -4.704900804398905E-102
   77.2350000000000        -6.249376834333165E-102
   77.4250000000000        -7.786834415174921E-102
   77.6150000000000        -9.046358737740089E-102
   77.8050000000000        -9.619005267828308E-102
   77.9950000000000        -8.934315058776237E-102
   78.1850000000000        -6.248816190371357E-102
   78.3750000000000        -6.565561685505650E-103
   78.5650000000000         8.865382432856509E-102
   78.7550000000000         2.336082714495769E-101
   78.9450000000000         4.373071279009183E-101
   79.1350000000000         7.048452531242141E-101
   79.3250000000000         1.033932225086958E-100
   79.5150000000000         1.410375494656612E-100
   79.7050000000000         1.802593844872457E-100
   79.8950000000000         2.155450709078090E-100
   80.0850000000000         2.383999053849162E-100
   80.2750000000000         2.368126871587155E-100
   80.4650000000000         1.949579093212908E-100
   80.6550000000000         9.333835866213606E-101
   80.8450000000000        -9.037246586958188E-101
   81.0350000000000        -3.794790699976015E-100
   81.2250000000000        -7.950647467303238E-100
   81.4150000000000        -1.351112179649726E-099
   81.6050000000000        -2.047677189846824E-099
   81.7950000000000        -2.861999103605742E-099
   81.9850000000000        -3.737693953309978E-099
   82.1750000000000        -4.572578953998934E-099
   82.3650000000000        -5.206239235087321E-099
   82.5550000000000        -5.409178299120880E-099
   82.7450000000000        -4.876277416668855E-099
   82.9350000000000        -3.228277959768914E-099
   83.1250000000000        -2.600044664912813E-101
   83.3150000000000         5.197127643958952E-099
   83.5050000000000         1.287816791216711E-098
   83.6950000000000         2.333748771801328E-098
   83.8850000000000         3.665658722340320E-098
   84.0750000000000         5.251887524053137E-098
   84.2650000000000         7.001588879099243E-098
   84.4550000000000         8.742833645327924E-098
   84.6450000000000         1.020008659941261E-097
   84.8350000000000         1.097416903989831E-097
   85.0250000000000         1.052928579285025E-097
   85.2150000000000         8.193318213604916E-098
   85.4050000000000         3.179208906891929E-098
   85.5950000000000        -5.363358472608452E-098
   85.7850000000000        -1.825600254802824E-097
   85.9750000000000        -3.614971404715294E-097
   86.1650000000000        -5.932517364045824E-097
   86.3550000000000        -8.743173861400633E-097
   86.5450000000000        -1.191686739300433E-096
   86.7350000000000        -1.519229275020097E-096
   86.9250000000000        -1.813924720120124E-096
   87.1150000000000        -2.012430320389789E-096
   87.3050000000000        -2.028684001542000E-096
   87.4950000000000        -1.753492316557526E-096
   87.6850000000000        -1.057298501410437E-096
   87.8750000000000         2.024644777751571E-097
   88.0650000000000         2.167909555079528E-096
   88.2550000000000         4.959626959126668E-096
   88.4450000000000         8.646787807113322E-096
   88.6350000000000         1.320779309196433E-095
   88.8250000000000         1.848185979618928E-095
   89.0150000000000         2.411346147666170E-095
   89.2050000000000         2.949363241793462E-095
   89.3950000000000         3.370481262159415E-095
   89.5850000000000         3.547908923077374E-095
   89.7750000000000         3.318320401350730E-095
   89.9650000000000         2.484723029550114E-095
   90.1550000000000         8.256887796560186E-096
   90.3450000000000        -1.886862399030274E-095
   90.5350000000000        -5.859152197937898E-095
   90.7250000000000        -1.123445589521709E-094
   90.9150000000000        -1.803834359336465E-094
   91.1050000000000        -2.611047384043615E-094
   91.2950000000000        -3.502515190528886E-094
   91.4850000000000        -4.400560919474125E-094
   91.6750000000000        -5.184048077250996E-094
   91.8650000000000        -5.681518054346812E-094
   92.0550000000000        -5.667558951795404E-094
   92.2450000000000        -4.864629660201978E-094
   92.4350000000000        -2.952996347731974E-094
   92.6250000000000         4.082619494666740E-095
   92.8150000000000         5.546166231387579E-094
   93.0050000000000         1.272197882928458E-093
   93.1950000000000         2.206073581406689E-093
   93.3850000000000         3.346187641482794E-093
   93.5750000000000         4.649305840381293E-093
   93.7650000000000         6.027258548127343E-093
   93.9550000000000         7.335020942112671E-093
   94.1450000000000         8.360134254147490E-093
   94.3350000000000         8.815570539500233E-093
   94.5250000000000         8.338771519993283E-093
   94.7150000000000         6.500181391192947E-093
   94.9050000000000         2.825047083925188E-093
   95.0950000000000        -3.167550773428671E-093
   95.2850000000000        -1.190470508448459E-092
   95.4750000000000        -2.367583302861846E-092
   95.6650000000000        -3.852371157787235E-092
   95.8550000000000        -5.611176365646757E-092
   96.0450000000000        -7.557272982177992E-092
   96.2350000000000        -9.534885946277276E-092
   96.4250000000000        -1.130399548721443E-091
   96.6150000000000        -1.252828026115644E-091
   96.8050000000000        -1.276933045903497E-091
   96.9950000000000        -1.149102683925825E-091
   97.1850000000000        -8.078629317738428E-092
   97.3750000000000        -1.877509277641860E-092
   97.5650000000000         7.743583041392966E-092
   97.7550000000000         2.130050838720047E-091
   97.9450000000000         3.907033037029553E-091
   98.1350000000000         6.093650501452917E-091
   98.3250000000000         8.620661591844235E-091
   98.5150000000000         1.134119950647451E-090
   98.7050000000000         1.401054263459446E-090
   98.8950000000000         1.626813050495434E-090
   99.0850000000000         1.762517412480110E-090
   99.2750000000000         1.746214675667692E-090
   99.4650000000000         1.504130023001368E-090
   99.6550000000000         9.539988564634419E-091
   99.8450000000000         1.108093302734260E-092
   100.035000000000        -1.402583019277000E-090
   100.225000000000        -3.345240321110289E-090
   100.415000000000        -5.838632853733722E-090
   100.605000000000        -8.847536449046387E-090
   100.795000000000        -1.225637138612546E-089
   100.985000000000        -1.584433364327706E-089
   101.175000000000        -1.926136960363354E-089
   101.365000000000        -2.200832166168450E-089
   101.555000000000        -2.342564860331404E-089
   101.745000000000        -2.269617584147525E-089
   101.935000000000        -1.886821738736116E-089
   102.125000000000        -1.090594949405917E-089
   102.315000000000         2.226122905383507E-090
   102.505000000000         2.143864622426608E-089
   102.695000000000         4.734889218047270E-089
   102.885000000000         8.006769253313129E-089
   103.075000000000         1.189463770364290E-088
   103.265000000000         1.622951486178305E-088
   103.455000000000         2.070930535911653E-088
   103.645000000000         2.487200659142516E-088
   103.835000000000         2.807533240453518E-088
   104.025000000000         2.948814011863016E-088
   104.215000000000         2.810013996512837E-088
   104.405000000000         2.275719222898729E-088
   104.595000000000         1.222984072190889E-088
   104.785000000000        -4.677668241129790E-089
   104.975000000000        -2.897206426273757E-088
   105.165000000000        -6.126637535598159E-088
   105.355000000000        -1.015272139761079E-087
   105.545000000000        -1.487815411705674E-087
   105.735000000000        -2.007985366480733E-087
   105.925000000000        -2.537721487468841E-087
   106.115000000000        -3.020413410442412E-087
   106.305000000000        -3.378973321520167E-087
   106.495000000000        -3.515391934641984E-087
   106.685000000000        -3.312495389636638E-087
   106.875000000000        -2.638687653034234E-087
   107.065000000000        -1.356469976937254E-087
   107.255000000000         6.645516461712305E-088
   107.445000000000         3.529657517267978E-087
   107.635000000000         7.295833040361744E-087
   107.825000000000         1.194375716415717E-086
   108.015000000000         1.734600025216045E-086
   108.205000000000         2.323335574925816E-086
   108.395000000000         2.916228183323436E-086
   108.585000000000         3.448760164467619E-086
   108.775000000000         3.834582337218801E-086
   108.965000000000         3.965557523899972E-086
   109.155000000000         3.714254414670965E-086
   109.345000000000         2.939675765801334E-086
   109.535000000000         1.496981804827395E-086
   109.725000000000        -7.481479667722897E-087
   109.915000000000        -3.900110636527643E-086
   110.105000000000        -8.008915103842341E-086