  -1.42500000000000         0.000000000000000E+000
  -1.23500000000000         0.000000000000000E+000
  -1.04500000000000         0.000000000000000E+000
 -0.855000000000000         0.000000000000000E+000
 -0.665000000000000         0.000000000000000E+000
 -0.475000000000000         0.000000000000000E+000
 -0.285000000000000         0.000000000000000E+000
 -9.499999999999975E-002    0.000000000000000E+000
  9.500000000000020E-002    0.000000000000000E+000
  0.285000000000000         0.000000000000000E+000
  0.475000000000000         0.000000000000000E+000
  0.665000000000000         0.000000000000000E+000
  0.855000000000000         0.000000000000000E+000
   1.04500000000000         0.000000000000000E+000
   1.23500000000000         0.000000000000000E+000
   1.42500000000000         0.000000000000000E+000
   1.61500000000000         0.000000000000000E+000
   1.80500000000000         0.000000000000000E+000
   1.99500000000000         0.000000000000000E+000
   2.18500000000000         0.000000000000000E+000
   2.37500000000000         0.000000000000000E+000
   2.56500000000000         0.000000000000000E+000
   2.75500000000000         0.000000000000000E+000
   2.94500000000000         0.000000000000000E+000
   3.13500000000000         0.000000000000000E+000
   3.32500000000000         0.000000000000000E+000
   3.51500000000000         0.000000000000000E+000
   3.70500000000000         0.000000000000000E+000
   3.89500000000000         0.000000000000000E+000
   4.08500000000000         0.000000000000000E+000
   4.27500000000000         0.000000000000000E+000
   4.46500000000000         0.000000000000000E+000
   4.65500000000000         0.000000000000000E+000
   4.84500000000000         0.000000000000000E+000
   5.03500000000000         0.000000000000000E+000
   5.22500000000000         0.000000000000000E+000
   5.41500000000000         0.000000000000000E+000
   5.60500000000000         0.000000000000000E+000
   5.79500000000000         0.000000000000000E+000
   5.98500000000000         0.000000000000000E+000
   6.17500000000000         0.000000000000000E+000
   6.36500000000000         0.000000000000000E+000
   6.55500000000000         0.000000000000000E+000
   6.74500000000000         0.000000000000000E+000
   6.93500000000000         0.000000000000000E+000
   7.12500000000000         0.000000000000000E+000
   7.31500000000000         0.000000000000000E+000
   7.50500000000000         0.000000000000000E+000
   7.69500000000000         0.000000000000000E+000
   7.88500000000000         0.000000000000000E+000
   8.07500000000000         0.000000000000000E+000
   8.26500000000000         0.000000000000000E+000
   8.45500000000000         0.000000000000000E+000
   8.64500000000000         9.809231247962738E-234
   8.83500000000000         6.625627930248102E-222
   9.02500000000000         2.369069091207744E-210
   9.21500000000000         1.556117244769257E-207
   9.40500000000000        -8.604002296032704E-206
   9.59500000000000        -1.512883046281190E-203
   9.78500000000000        -8.323399634493444E-202
   9.97500000000000        -2.814392459427250E-200
   10.1650000000000        -6.890639171488974E-199
   10.3550000000000        -1.315613314926727E-197
   10.5450000000000        -2.038101623051253E-196
   10.7350000000000        -2.613932937026890E-195
   10.9250000000000        -2.784398619074084E-194
   11.1150000000000        -2.409657899925969E-193
   11.3050000000000        -1.547093306694866E-192
   11.4950000000000        -4.254899838745111E-192
   11.6850000000000         6.614419940131499E-191
   11.8750000000000         1.474467510587807E-189
   12.0650000000000         1.900622190905434E-188
   12.2550000000000         1.957265197227615E-187
   12.4450000000000         1.747242898205354E-186
   12.6350000000000         1.399909281618360E-185
   12.8250000000000         1.025747270706860E-184
   13.0150000000000         6.954033592841313E-184
   13.2050000000000         4.396696770603526E-183
   13.3950000000000         2.607248500445739E-182
   13.5850000000000         1.456284855613364E-181
   13.7750000000000         7.686165646346009E-181
   13.9650000000000         3.842498675808951E-180
   14.1550000000000         1.822633452905760E-179
   14.3450000000000         8.211465241727295E-179
   14.5350000000000         3.514961239243929E-178
   14.7250000000000         1.428750037327375E-177
   14.9150000000000         5.504801721882146E-177
   15.1050000000000         2.002754654080102E-176
   15.2950000000000         6.830115333952608E-176
   15.4850000000000         2.152033908995441E-175
   15.6750000000000         6.069889598900628E-175
   15.8650000000000         1.407645325247212E-174
   16.0550000000000         1.802891333404496E-174
   16.2450000000000        -6.314940942906944E-174
   16.4350000000000        -7.052476666554369E-173
   16.6250000000000        -4.257209340581158E-172
   16.8150000000000        -2.132770247543255E-171
   17.0050000000000        -9.722660416800516E-171
   17.1950000000000        -4.178787773020837E-170
   17.3850000000000        -1.722084106737206E-169
   17.5750000000000        -6.863359169698114E-169
   17.7650000000000        -2.656941923065915E-168
   17.9550000000000        -1.001008972081710E-167
   18.1450000000000        -3.672504446708977E-167
   18.3350000000000        -1.311845988747812E-166
   18.5250000000000        -4.559791415816087E-166
   18.7150000000000        -1.540945076272166E-165
   18.9050000000000        -5.057857899506238E-165
   19.0950000000000        -1.610456606196901E-164
   19.2850000000000        -4.966693297070092E-164
   19.4750000000000        -1.480629639662830E-163
   19.6650000000000        -4.254782747174047E-163
   19.8550000000000        -1.173823137686934E-162
   20.0450000000000        -3.089742394688414E-162
   20.2350000000000        -7.680621879413090E-162
   20.4250000000000        -1.770111485583199E-161
   20.6150000000000        -3.638670470438012E-161
   20.8050000000000        -6.003881878627597E-161
   20.9950000000000        -4.431213954023157E-161
   21.1850000000000         2.192365247117473E-160
   21.3750000000000         1.505974106440918E-159
   21.5650000000000         6.373657479744237E-159
   21.7550000000000         2.261253748986567E-158
   21.9450000000000         7.253855504255512E-158
   22.1350000000000         2.168464134634110E-157
   22.3250000000000         6.130118075659496E-157
   22.5150000000000         1.651458580498351E-156
   22.7050000000000         4.256345549808650E-156
   22.8950000000000         1.050851546929029E-155
   23.0850000000000         2.482992000195922E-155
   23.2750000000000         5.595427849784241E-155
   23.4650000000000         1.194025181656976E-154
   23.6550000000000         2.379900794867977E-154
   23.8450000000000         4.307895693603559E-154
   24.0350000000000         6.608817623224568E-154
   24.2250000000000         6.601589372418651E-154
   24.4150000000000        -5.768997126041214E-154
   24.6050000000000        -6.128638735120676E-153
   24.7950000000000        -2.444239663868321E-152
   24.9850000000000        -7.704075414265627E-152
   25.1750000000000        -2.156964069924750E-151
   25.3650000000000        -5.590325448092040E-151
   25.5550000000000        -1.367156237233917E-150
   25.7450000000000        -3.187096925856362E-150
   25.9350000000000        -7.122721746887720E-150
   26.1250000000000        -1.530880280162017E-149
   26.3150000000000        -3.169056328555460E-149
   26.5050000000000        -6.320138945474115E-149
   26.6950000000000        -1.213391132078684E-148
   26.8850000000000        -2.238821045887855E-148
   27.0750000000000        -3.959905952947217E-148
   27.2650000000000        -6.693431913629649E-148
   27.4550000000000        -1.078206334209834E-147
   27.6450000000000        -1.655755578554707E-147
   27.8350000000000        -2.452051463705089E-147
   28.0250000000000        -3.650809780443828E-147
   28.2150000000000        -6.011284261600906E-147
   28.4050000000000        -1.222557667817317E-146
   28.5950000000000        -3.060963070943767E-146
   28.7850000000000        -8.432190750637141E-146
   28.9750000000000        -2.329155165990758E-145
   29.1650000000000        -6.200092539314781E-145
   29.3550000000000        -1.573658140096234E-144
   29.5450000000000        -3.808127332082617E-144
   29.7350000000000        -8.811400882220083E-144
   29.9250000000000        -1.955478050031660E-143
   30.1150000000000        -4.172537871532671E-143
   30.3050000000000        -8.573511256569184E-143
   30.4950000000000        -1.697285932296646E-142
   30.6850000000000        -3.235209813410996E-142
   30.8750000000000        -5.924636069364796E-142
   31.0650000000000        -1.037896358876753E-141
   31.2550000000000        -1.725672315394786E-141
   31.4450000000000        -2.683714807757278E-141
   31.6350000000000        -3.789524989428306E-141
   31.8250000000000        -4.512578764107521E-141
   32.0150000000000        -3.375609822984429E-141
   32.2050000000000         3.098117955235052E-141
   32.3950000000000         2.232706253753775E-140
   32.5850000000000         6.906693884204605E-140
   32.7750000000000         1.710279086272545E-139
   32.9650000000000         3.776059356491000E-139
   33.1550000000000         7.724296338362138E-139
   33.3450000000000         1.489424349767790E-138
   33.5350000000000         2.729344489427969E-138
   33.7250000000000         4.767549019893767E-138
   33.9150000000000         7.931413583830703E-138
   34.1050000000000         1.250287888587472E-137
   34.2950000000000         1.846208151233161E-137
   34.4850000000000         2.492397085698904E-137
   34.6750000000000         2.902315018517822E-137
   34.8650000000000         2.386842891621403E-137
   35.0550000000000        -4.974103557766881E-138
   35.2450000000000        -8.516376750184986E-137
   35.4350000000000        -2.661705091789158E-136
   35.6250000000000        -6.312132816439129E-136
   35.8150000000000        -1.311966415375001E-135
   36.0050000000000        -2.502911993534384E-135
   36.1950000000000        -4.466924559726600E-135
   36.3850000000000        -7.513664804732604E-135
   36.5750000000000        -1.191476246067128E-134
   36.7650000000000        -1.769073532198750E-134
   36.9550000000000        -2.415956122365304E-134
   37.1450000000000        -2.907156145712361E-134
   37.3350000000000        -2.706838374087211E-134
   37.5250000000000        -7.101992955078748E-135
   37.7150000000000         5.164327273712157E-134
   37.9050000000000         1.858087765774423E-133
   38.0950000000000         4.562259134276994E-133
   38.2850000000000         9.583583096469955E-133
   38.4750000000000         1.833277116591915E-132
   38.6650000000000         3.274964964348259E-132
   38.8550000000000         5.524870890630893E-132
   39.0450000000000         8.836337563753461E-132
   39.2350000000000         1.337824507520127E-131
   39.4250000000000         1.902724234288632E-131
   39.6150000000000         2.496984044721297E-131
   39.8050000000000         2.899929126023823E-131
   39.9950000000000         2.635062670401394E-131
   40.1850000000000         7.879989358782928E-132
   40.3750000000000        -4.261740277924074E-131
   40.5650000000000        -1.521020471952808E-130
   40.7550000000000        -3.629578733302631E-130
   40.9450000000000        -7.381498272554517E-130
   41.1350000000000        -1.365518219148380E-129
   41.3250000000000        -2.358311522221042E-129
   41.5150000000000        -3.846512706284610E-129
   41.7050000000000        -5.949580886951933E-129
   41.8950000000000        -8.715530904033230E-129
   42.0850000000000        -1.200358261221305E-128
   42.2750000000000        -1.527813741020774E-128
   42.4650000000000        -1.727170643707525E-128
   42.6550000000000        -1.546642972941190E-128
   42.8450000000000        -5.343610634398275E-129
   43.0350000000000         2.063175833925069E-128
   43.2250000000000         7.427284328557030E-128
   43.4150000000000         1.730499051401320E-127
   43.6050000000000         3.412520028500786E-127
   43.7950000000000         6.102510321729811E-127
   43.9850000000000         1.016644583549137E-126
   44.1750000000000         1.596256562619726E-126
   44.3650000000000         2.370880695409821E-126
   44.5550000000000         3.323268163242242E-126
   44.7450000000000         4.354295639514002E-126
   44.9350000000000         5.214800672575492E-126
   45.1250000000000         5.403845230145035E-126
   45.3150000000000         4.026248874084656E-126
   45.5050000000000        -3.931168512396147E-127
   45.6950000000000        -1.012989995236437E-125
   45.8850000000000        -2.848647210449502E-125
   46.0750000000000        -5.995879743961007E-125
   46.2650000000000        -1.102225722946626E-124
   46.4550000000000        -1.857341406045751E-124
   46.6450000000000        -2.926273952260021E-124
   46.8350000000000        -4.344423184567538E-124
   47.0250000000000        -6.080532580871737E-124
   47.2150000000000        -7.970014609507571E-124
   47.4050000000000        -9.613298777907928E-124
   47.5950000000000        -1.023062508836644E-123
   47.7850000000000        -8.468159058260921E-124
   47.9750000000000        -2.159003534195626E-124
   48.1650000000000         1.194027881627929E-123
   48.3550000000000         3.838767166314559E-123
   48.5450000000000         8.317199886943105E-123
   48.7350000000000         1.535433978902535E-122
   48.9250000000000         2.573010119514467E-122
   49.1150000000000         4.011632026000936E-122
   49.3050000000000         5.877101139422986E-122
   49.4950000000000         8.102546189646924E-122
   49.6850000000000         1.044904257185277E-121
   49.8750000000000         1.239090592591116E-121
   50.0650000000000         1.296068477747929E-121
   50.2550000000000         1.055478680500391E-121
   50.4450000000000         2.712296623179740E-122
   50.6350000000000        -1.410054169708857E-121
   50.8250000000000        -4.463658936793889E-121
   51.0150000000000        -9.483613894734839E-121
   51.2050000000000        -1.714477343278112E-120
   51.3950000000000        -2.810558653851188E-120
   51.5850000000000        -4.281838929783189E-120
   51.7750000000000        -6.120573904201425E-120
   51.9650000000000        -8.215571929300129E-120
   52.1550000000000        -1.027903539050024E-119
   52.3450000000000        -1.174754693267613E-119
   52.5350000000000        -1.165762566275157E-119
   52.7250000000000        -8.503179602821861E-120
   52.9150000000000        -9.375473416389533E-122
   53.1050000000000         1.654982310820313E-119
   53.2950000000000         4.520075415338338E-119
   53.4850000000000         9.023789213874716E-119
   53.6750000000000         1.561291580893097E-118
   53.8650000000000         2.464089500880995E-118
   54.0550000000000         3.619328939585131E-118
   54.2450000000000         4.981725189186318E-118
   54.4350000000000         6.413314738915090E-118
   54.6250000000000         7.631551914485065E-118
   54.8150000000000         8.145096812197626E-118
   55.0050000000000         7.181745382664059E-118
   55.1950000000000         3.618882858566865E-118
   55.3850000000000        -4.064444688864188E-118
   55.5750000000000        -1.778290026835400E-117
   55.7650000000000        -3.974186136717102E-117
   55.9550000000000        -7.217332309456422E-117
   56.1450000000000        -1.168312680989537E-116
   56.3350000000000        -1.741548959567482E-116
   56.5250000000000        -2.420073794048861E-116
   56.7150000000000        -3.139187530660646E-116
   56.9050000000000        -3.768179898157545E-116
   57.0950000000000        -4.083485314750261E-116
   57.2850000000000        -3.740428911029753E-116
   57.4750000000000        -2.249040204005791E-116
   57.6650000000000         1.036835255919807E-116
   57.8550000000000         6.903128381313746E-116
   58.0450000000000         1.621234583988545E-115
   58.2350000000000         2.976855219380806E-115
   58.4250000000000         4.808127579801137E-115
   58.6150000000000         7.099827280714662E-115
   58.8050000000000         9.718283989990539E-115
   58.9950000000000         1.234279023527258E-114
   59.1850000000000         1.438316105008460E-114
   59.3750000000000         1.489133745333339E-114
   59.5650000000000         1.248304473156185E-114
   59.7550000000000         5.296651862357134E-115
   59.9450000000000        -8.969618682074379E-115
   60.1350000000000        -3.288509441907090E-114
   60.3250000000000        -6.890614892347993E-114
   60.5150000000000        -1.187043278907697E-113
   60.7050000000000        -1.821197955413399E-113
   60.8950000000000        -2.556774444030059E-113
   61.0850000000000        -3.306565303807451E-113
   61.2750000000000        -3.908058760954553E-113
   61.4650000000000        -4.099611672506351E-113
   61.6550000000000        -3.500619823248170E-113
   61.8450000000000        -1.603897150283721E-113
   62.0350000000000         2.207561828849110E-113
   62.2250000000000         8.602930070495241E-113
   62.4150000000000         1.818455253288621E-112
   62.6050000000000         3.128488928901873E-112
   62.7950000000000         4.765808778093892E-112
   62.9850000000000         6.605272847127563E-112
   63.1750000000000         8.367012828258293E-112
   63.3650000000000         9.554450467425985E-112
   63.5550000000000         9.393140760604245E-112
   63.7450000000000         6.786225189513888E-112
   63.9350000000000         3.116109246310990E-113
   64.1250000000000        -1.170291136528397E-111
   64.3150000000000        -3.097875104647094E-111
   64.5050000000000        -5.890211101827681E-111
   64.6950000000000        -9.589429890866113E-111
   64.8850000000000        -1.404824061494983E-110
   65.0750000000000        -1.880428910781120E-110
   65.2650000000000        -2.292467673243007E-110
   65.4550000000000        -2.483315780946386E-110
   65.6450000000000        -2.214727399985562E-110
   65.8350000000000        -1.157324918237181E-110
   66.0250000000000         1.106718035193638E-110
   66.2150000000000         5.057312228793729E-110
   66.4050000000000         1.117277745112912E-109
   66.5950000000000         1.981269210542881E-109
   66.7850000000000         3.103027070168140E-109
   66.9750000000000         4.429973276348686E-109
   67.1650000000000         5.815200910867631E-109
   67.3550000000000         6.972804440867358E-109
   67.5450000000000         7.428577858580394E-109
   67.7350000000000         6.473733872388844E-109
   67.9250000000000         3.134885000136532E-109
   68.1150000000000        -3.819366555087427E-109
   68.3050000000000        -1.580664526338772E-108
   68.4950000000000        -3.425681817932950E-108
   68.6850000000000        -6.029194202657398E-108
   68.8750000000000        -9.421374960453319E-108
   69.0650000000000        -1.347581100614343E-107
   69.2550000000000        -1.780954021920301E-107
   69.4450000000000        -2.165954287484474E-107
   69.6350000000000        -2.374425547369595E-107
   69.8250000000000        -2.212879984216795E-107
   70.0150000000000        -1.412663596585201E-107
   70.2050000000000         3.711748113553399E-108
   70.3950000000000         3.545153968407754E-107
   70.5850000000000         8.537425429749108E-107
   70.7750000000000         1.572140657341694E-106
   70.9650000000000         2.529080999499373E-106
   71.1550000000000         3.707481160598310E-106
   71.3450000000000         5.028609648342081E-106
   71.5350000000000         6.320310846176636E-106
   71.7250000000000         7.280269357737208E-106
   71.9150000000000         7.438212183670140E-106
   72.1050000000000         6.124145120096008E-106
   72.2950000000000         2.453866811090687E-106
   72.4850000000000        -4.652040354905712E-106
   72.6750000000000        -1.639418725288894E-105
   72.8650000000000        -3.393880141457511E-105
   73.0550000000000        -5.815079018848809E-105
   73.2450000000000        -8.918593177570037E-105
   73.4350000000000        -1.259191246011938E-104
   73.6250000000000        -1.652014265313679E-104
   73.8150000000000        -2.009674589779801E-104
   74.0050000000000        -2.232604092860734E-104
   74.1950000000000        -2.173075256279864E-104
   74.3850000000000        -1.628662299520250E-104
   74.5750000000000        -3.416827488422196E-105
   74.7650000000000         1.990897071290323E-104
   74.9550000000000         5.691400020411764E-104
   75.1450000000000         1.105255045170596E-103
   75.3350000000000         1.825869928732955E-103
   75.5250000000000         2.727077890928038E-103
   75.7150000000000         3.767097886772330E-103
   75.9050000000000         4.846794219742417E-103
   76.0950000000000         5.787132156518191E-103
   76.2850000000000         6.305654725208932E-103
   76.4750000000000         5.995716083654546E-103
   76.6650000000000         4.314309839371176E-103
   76.8550000000000         5.868096503737255E-104
   77.0450000000000        -5.960403865310556E-103
   77.2350000000000        -1.612598671805685E-102
   77.4250000000000        -3.060319922330584E-102
   77.6150000000000        -4.977774394123876E-102
   77.8050000000000        -7.344120833126823E-102
   77.9950000000000        -1.004140831404407E-101
   78.1850000000000        -1.280845439931164E-101
   78.3750000000000        -1.518885367270235E-101
   78.5650000000000        -1.647845196598488E-101
   78.7550000000000        -1.568131904305195E-101
   78.9450000000000        -1.148782131196206E-101
   79.1350000000000        -2.293609163374434E-102
   79.3250000000000         1.371629774344480E-101
   79.5150000000000         3.838945421202827E-101
   79.7050000000000         7.330233896344125E-101
   79.8950000000000         1.193004192953620E-100
   80.0850000000000         1.758580942978292E-100
   80.2750000000000         2.402501217387083E-100
   80.4650000000000         3.065530785601606E-100
   80.6550000000000         3.645366798156830E-100
   80.8450000000000         3.985625904810926E-100
   81.0350000000000         3.866835254592089E-100
   81.2250000000000         3.002263598906409E-100
   81.4150000000000         1.042444298101252E-100
   81.6050000000000        -2.406741108427656E-100
   81.7950000000000        -7.746699300240031E-100
   81.9850000000000        -1.532332385022606E-099
   82.1750000000000        -2.533290558693646E-099
   82.3650000000000        -3.769237423466006E-099
   82.5550000000000        -5.187261107623703E-099
   82.7450000000000        -6.669886170389664E-099
   82.9350000000000        -8.013022318236348E-099
   83.1250000000000        -8.904113652973966E-099
   83.3150000000000        -8.904186926175895E-099
   83.5050000000000        -7.439176176964250E-099
   83.6950000000000        -3.807751055996973E-099
   83.8850000000000         2.785295560594724E-099
   84.0750000000000         1.315954505645500E-098
   84.2650000000000         2.804204910129299E-098
   84.4550000000000         4.789236147494675E-098
   84.6450000000000         7.266154654626390E-098
   84.8350000000000         1.014828220290479E-097
   85.0250000000000         1.323008988257995E-097
   85.2150000000000         1.614610789448495E-097
   85.4050000000000         1.832983292346735E-097
   85.5950000000000         1.897909601378506E-097
   85.7850000000000         1.703725380097975E-097
   85.9750000000000         1.120274692876550E-097
   86.1650000000000        -1.729531464367138E-100
   86.3550000000000        -1.819114875644491E-097
   86.5450000000000        -4.476474324999698E-097
   86.7350000000000        -8.076348491380307E-097
   86.9250000000000        -1.263794602000032E-096
   87.1150000000000        -1.804389949621437E-096
   87.3050000000000        -2.397608829584207E-096
   87.4950000000000        -2.984383944740100E-096
   87.6850000000000        -3.471093154401863E-096
   87.8750000000000        -3.723178891193450E-096
   88.0650000000000        -3.561195715400569E-096
   88.2550000000000        -2.761311695118713E-096
   88.4450000000000        -1.062800994334250E-096
   88.6350000000000         1.814507823242537E-096
   88.8250000000000         6.139633411968481E-096
   89.0150000000000         1.212361391590631E-095
   89.2050000000000         1.985401117571047E-095
   89.3950000000000         2.920967923616106E-095
   89.5850000000000         3.975704424789553E-095
   89.7750000000000         5.063259533206924E-095
   89.9650000000000         6.042101191400482E-095
   90.1550000000000         6.704437696620544E-095
   90.3450000000000         6.768509500563892E-095
   90.5350000000000         5.877304243240789E-095
   90.7250000000000         3.607538425996703E-095
   90.9150000000000        -5.065759803640365E-096
   91.1050000000000        -6.929865555373171E-095
   91.2950000000000        -1.605821126398993E-094
   91.4850000000000        -2.812207441267220E-094
   91.6750000000000        -4.305945419345795E-094
   91.8650000000000        -6.035944342285680E-094
   92.0550000000000        -7.888242565682810E-094
   92.2450000000000        -9.666966318524437E-094
   92.4350000000000        -1.107636059610479E-093
   92.6250000000000        -1.170705069485184E-093
   92.8150000000000        -1.103083127453778E-093
   93.0050000000000        -8.409430507386010E-094
   93.1950000000000        -3.123703260484161E-094
   93.3850000000000         5.569651434577433E-094
   93.5750000000000         1.834676528645808E-093
   93.7650000000000         3.568460067417203E-093
   93.9550000000000         5.768462591174444E-093
   94.1450000000000         8.385274881164501E-093
   94.3350000000000         1.128425185950458E-092
   94.5250000000000         1.421775021795291E-092
   94.7150000000000         1.679801814741683E-092
   94.9050000000000         1.847484652028647E-092
   95.0950000000000         1.852362776584576E-092
   95.2850000000000         1.605104085035311E-092
   95.4750000000000         1.002698980952186E-092
   95.6650000000000        -6.476106317126001E-094
   95.8550000000000        -1.702745068035030E-092
   96.0450000000000        -3.995518469907047E-092
   96.2350000000000        -6.983372612176999E-092
   96.4250000000000        -1.063378001350798E-091
   96.6150000000000        -1.480719713077735E-091
   96.8050000000000        -1.921933823943936E-091
   96.9950000000000        -2.340317030770382E-091
   97.1850000000000        -2.667560354730418E-091
   97.3750000000000        -2.811579641021275E-091
   97.5650000000000        -2.656400797033665E-091
   97.7550000000000        -2.065178043939954E-091
   97.9450000000000        -8.875588761202634E-092
   98.1350000000000         1.027347965094917E-091
   98.3250000000000         3.811248064149004E-091
   98.5150000000000         7.549335158420642E-091
   98.7050000000000         1.224509389742483E-090
   98.8950000000000         1.777786436417224E-090
   99.0850000000000         2.385507391133218E-090
   99.2750000000000         2.996270280120750E-090
   99.4650000000000         3.531957466798666E-090
   99.6550000000000         3.884336648572312E-090
   99.8450000000000         3.913865291694575E-090
   100.035000000000         3.451957885432208E-090
   100.225000000000         2.308152582267976E-090
   100.415000000000         2.836923744058683E-091
   100.605000000000        -2.807042548857387E-090
   100.795000000000        -7.106116860343132E-090
   100.985000000000        -1.267209829702828E-089
   101.175000000000        -1.943101006267662E-089
   101.365000000000        -2.711996415408989E-089
   101.555000000000        -3.522706781611566E-089
   101.745000000000        -4.293341814067481E-089
   101.935000000000        -4.906555805208696E-089
   102.125000000000        -5.206949700409416E-089
   102.315000000000        -5.002003851528098E-089
   102.505000000000        -4.068132772389918E-089
   102.695000000000        -2.163573976838244E-089
   102.885000000000         9.502134537969168E-090
   103.075000000000         5.477228345946080E-089
   103.265000000000         1.154483729248656E-088
   103.455000000000         1.915100427526445E-088
   103.645000000000         2.810229722287935E-088
   103.835000000000         3.794595918172337E-088
   104.025000000000         4.790161453798104E-088
   104.215000000000         5.680084460757387E-088
   104.405000000000         6.304576100804798E-088
   104.595000000000         6.460058088594289E-088
   104.785000000000         5.903270472350938E-088
   104.975000000000         4.362143571639629E-088
   105.165000000000         1.555266592768150E-088
   105.355000000000        -2.778409893990081E-088
   105.545000000000        -8.838483759961971E-088
   105.735000000000        -1.671031360846755E-087
   105.925000000000        -2.630149061101685E-087
   106.115000000000        -3.727025576680207E-087
   106.305000000000        -4.895074053080994E-087
   106.495000000000        -6.028251047470443E-087
   106.685000000000        -6.975477652221281E-087
   106.875000000000        -7.537858971266638E-087
   107.065000000000        -7.470303253584004E-087
   107.255000000000        -6.489342964172531E-087
   107.445000000000        -4.289037989485463E-087
   107.635000000000        -5.667322519553320E-088
   107.825000000000         4.939930615199152E-087
   108.015000000000         1.240401960434719E-086
   108.205000000000         2.184872649808381E-086
   108.395000000000         3.307706130267366E-086
   108.585000000000         4.559568662783857E-086
   108.775000000000         5.853912712034738E-086
   108.965000000000         7.060329397845875E-086
   109.155000000000         8.000011718470415E-086
   109.345000000000         8.444781495885716E-086
   109.535000000000         8.121358622173584E-086
   109.725000000000         6.722682140803639E-086
   109.915000000000         3.928073252959012E-086
   110.105000000000        -5.662018364002698E-087