  -1.42500000000000         0.000000000000000E+000
  -1.23500000000000         0.000000000000000E+000
  -1.04500000000000         0.000000000000000E+000
 -0.855000000000000         0.000000000000000E+000
 -0.665000000000000         0.000000000000000E+000
 -0.475000000000000         0.000000000000000E+000
 -0.285000000000000         0.000000000000000E+000
 -9.499999999999975E-002    0.000000000000000E+000
  9.500000000000020E-002    0.000000000000000E+000
  0.285000000000000         0.000000000000000E+000
  0.475000000000000         0.000000000000000E+000
  0.665000000000000         0.000000000000000E+000
  0.855000000000000         0.000000000000000E+000
   1.04500000000000         0.000000000000000E+000
   1.23500000000000         0.000000000000000E+000
   1.42500000000000         0.000000000000000E+000
   1.61500000000000         0.000000000000000E+000
   1.80500000000000         0.000000000000000E+000
   1.99500000000000         0.000000000000000E+000
   2.18500000000000         0.000000000000000E+000
   2.37500000000000         0.000000000000000E+000
   2.56500000000000         0.000000000000000E+000
   2.75500000000000         0.000000000000000E+000
   2.94500000000000         0.000000000000000E+000
   3.13500000000000         0.000000000000000E+000
   3.32500000000000         0.000000000000000E+000
   3.51500000000000         0.000000000000000E+000
   3.70500000000000         0.000000000000000E+000
   3.89500000000000         0.000000000000000E+000
   4.08500000000000         0.000000000000000E+000
   4.27500000000000         0.000000000000000E+000
   4.46500000000000         0.000000000000000E+000
   4.65500000000000         0.000000000000000E+000
   4.84500000000000         0.000000000000000E+000
   5.03500000000000         0.000000000000000E+000
   5.22500000000000         0.000000000000000E+000
   5.41500000000000         0.000000000000000E+000
   5.60500000000000         0.000000000000000E+000
   5.79500000000000         0.000000000000000E+000
   5.98500000000000         0.000000000000000E+000
   6.17500000000000         0.000000000000000E+000
   6.36500000000000         0.000000000000000E+000
   6.55500000000000         0.000000000000000E+000
   6.74500000000000         0.000000000000000E+000
   6.93500000000000         0.000000000000000E+000
   7.12500000000000         0.000000000000000E+000
   7.31500000000000         0.000000000000000E+000
   7.50500000000000         0.000000000000000E+000
   7.69500000000000         0.000000000000000E+000
   7.88500000000000         0.000000000000000E+000
   8.07500000000000         0.000000000000000E+000
   8.26500000000000         0.000000000000000E+000
   8.45500000000000         0.000000000000000E+000
   8.64500000000000        -4.371487633643491E-221
   8.83500000000000        -2.162818361963098E-208
   9.02500000000000        -1.025260551755776E-206
   9.21500000000000        -1.158278894843812E-204
   9.40500000000000        -1.317966186899886E-202
   9.59500000000000        -7.608253286250123E-201
   9.78500000000000        -2.691430759817593E-199
   9.97500000000000        -6.548764634108867E-198
   10.1650000000000        -1.145991681492090E-196
   10.3550000000000        -1.396177192720460E-195
   10.5450000000000        -8.658654501892746E-195
   10.7350000000000         9.007100807483872E-194
   10.9250000000000         3.946824071244510E-192
   11.1150000000000         7.763206180845901E-191
   11.3050000000000         1.145420518869748E-189
   11.4950000000000         1.411223323309252E-188
   11.6850000000000         1.517605256148880E-187
   11.8750000000000         1.459061422930757E-186
   12.0650000000000         1.273180144006832E-185
   12.2550000000000         1.018820515674533E-184
   12.4450000000000         7.532263407760954E-184
   12.6350000000000         5.172874652814924E-183
   12.8250000000000         3.312855902025289E-182
   13.0150000000000         1.983498382986498E-181
   13.2050000000000         1.111517585090371E-180
   13.3950000000000         5.827015617378763E-180
   13.5850000000000         2.849953434822648E-179
   13.7750000000000         1.292254836748930E-178
   13.9650000000000         5.362009344002729E-178
   14.1550000000000         1.979897447225500E-177
   14.3450000000000         6.058546766915846E-177
   14.5350000000000         1.156290250841375E-176
   14.7250000000000        -2.433641695014663E-176
   14.9150000000000        -4.437751284352045E-175
   15.1050000000000        -3.314613183514077E-174
   15.2950000000000        -1.951415856268641E-173
   15.4850000000000        -1.012687317660799E-172
   15.6750000000000        -4.826289351895315E-172
   15.8650000000000        -2.154802158524838E-171
   16.0550000000000        -9.115282832289311E-171
   16.2450000000000        -3.679537738018879E-170
   16.4350000000000        -1.424176687727172E-169
   16.6250000000000        -5.303491201532569E-169
   16.8150000000000        -1.904898115569862E-168
   17.0050000000000        -6.611555357658467E-168
   17.1950000000000        -2.220573678373122E-167
   17.3850000000000        -7.224464614843809E-167
   17.5750000000000        -2.278465495732090E-166
   17.7650000000000        -6.969083513592377E-166
   17.9550000000000        -2.067729421866854E-165
   18.1450000000000        -5.950735642247946E-165
   18.3350000000000        -1.660561547149985E-164
   18.5250000000000        -4.490008373040803E-164
   18.7150000000000        -1.175063641894546E-163
   18.9050000000000        -2.971404830798910E-163
   19.0950000000000        -7.241933946447174E-163
   19.2850000000000        -1.694716939371535E-162
   19.4750000000000        -3.785651069955512E-162
   19.6650000000000        -7.994544159936609E-162
   19.8550000000000        -1.568611675214719E-161
   20.0450000000000        -2.758341972316747E-161
   20.2350000000000        -3.946905945836155E-161
   20.4250000000000        -2.807373044139883E-161
   20.6150000000000         9.018195078575751E-161
   20.8050000000000         5.726319239846011E-160
   20.9950000000000         2.152881327696294E-159
   21.1850000000000         6.839988923003825E-159
   21.3750000000000         2.004085278052065E-158
   21.5650000000000         5.626947365401677E-158
   21.7550000000000         1.547096835612163E-157
   21.9450000000000         4.219787781371849E-157
   22.1350000000000         1.149632455041127E-156
   22.3250000000000         3.134378834854078E-156
   22.5150000000000         8.537461730961522E-156
   22.7050000000000         2.314405147455456E-155
   22.8950000000000         6.216019824444428E-155
   23.0850000000000         1.646879252917439E-154
   23.2750000000000         4.288270210693490E-154
   23.4650000000000         1.094179640652135E-153
   23.6550000000000         2.729405986649091E-153
   23.8450000000000         6.643432433003526E-153
   24.0350000000000         1.575140652530106E-152
   24.2250000000000         3.631509838893688E-152
   24.4150000000000         8.124538478667504E-152
   24.6050000000000         1.759016410923155E-151
   24.7950000000000         3.671174951563609E-151
   24.9850000000000         7.341863480036236E-151
   25.1750000000000         1.393162536385981E-150
   25.3650000000000         2.464245573031099E-150
   25.5550000000000         3.915825309302834E-150
   25.7450000000000         5.063179377487829E-150
   25.9350000000000         3.190516910870844E-150
   26.1250000000000        -9.909088664540471E-150
   26.3150000000000        -5.609420295565683E-149
   26.5050000000000        -1.892125359690745E-148
   26.6950000000000        -5.346866830413886E-148
   26.8850000000000        -1.372028325611651E-147
   27.0750000000000        -3.301456711398245E-147
   27.2650000000000        -7.570493099789593E-147
   27.4550000000000        -1.669608994696104E-146
   27.6450000000000        -3.561673808386324E-146
   27.8350000000000        -7.376568162057650E-146
   28.0250000000000        -1.486907490558807E-145
   28.2150000000000        -2.921684121080913E-145
   28.4050000000000        -5.601396257761016E-145
   28.5950000000000        -1.048090644550722E-144
   28.7850000000000        -1.913295174069709E-144
   28.9750000000000        -3.403573780310642E-144
   29.1650000000000        -5.886471844310079E-144
   29.3550000000000        -9.857611564544328E-144
   29.5450000000000        -1.587090809142120E-143
   29.7350000000000        -2.425240348178908E-143
   29.9250000000000        -3.428512298023810E-143
   30.1150000000000        -4.218855388487910E-143
   30.3050000000000        -3.647769285943963E-143
   30.4950000000000         1.217548609518386E-143
   30.6850000000000         1.722776145175922E-142
   30.8750000000000         5.950546062452046E-142
   31.0650000000000         1.600917295989486E-141
   31.2550000000000         3.846803242412076E-141
   31.4450000000000         8.641866995276516E-141
   31.6350000000000         1.852749934410242E-140
   31.8250000000000         3.831326616520297E-140
   32.0150000000000         7.686995126517870E-140
   32.2050000000000         1.501225328621371E-139
   32.3950000000000         2.858310198195266E-139
   32.5850000000000         5.308025944811993E-139
   32.7750000000000         9.609129345215278E-139
   32.9650000000000         1.693221221310411E-138
   33.1550000000000         2.896521648700732E-138
   33.3450000000000         4.789955492805079E-138
   33.5350000000000         7.605361873862563E-138
   33.7250000000000         1.146201573543540E-137
   33.9150000000000         1.605287622234661E-137
   34.1050000000000         1.995524342045008E-137
   34.2950000000000         1.923603348957238E-137
   34.4850000000000         4.798431141839178E-138
   34.6750000000000        -4.241084554657623E-137
   34.8650000000000        -1.596531793510392E-136
   35.0550000000000        -4.159352058033214E-136
   35.2450000000000        -9.330732130194677E-136
   35.4350000000000        -1.916447444018970E-135
   35.6250000000000        -3.696176895688747E-135
   35.8150000000000        -6.774995323772894E-135
   36.0050000000000        -1.186863616626466E-134
   36.1950000000000        -1.990293171189841E-134
   36.3850000000000        -3.189090974983947E-134
   36.5750000000000        -4.854056931528127E-134
   36.7650000000000        -6.932238614092331E-134
   36.9550000000000        -9.053287856768217E-134
   37.1450000000000        -1.016030225177832E-133
   37.3350000000000        -7.850131081135669E-134
   37.5250000000000         2.741917626953871E-134
   37.7150000000000         3.073073293854266E-133
   37.9050000000000         9.219572839340938E-133
   38.0950000000000         2.140439555238207E-132
   38.2850000000000         4.390638930886955E-132
   38.4750000000000         8.317212032905238E-132
   38.6650000000000         1.483185590267603E-131
   38.8550000000000         2.512033404332626E-131
   39.0450000000000         4.053439837956496E-131
   39.2350000000000         6.223632708660827E-131
   39.4250000000000         9.036907353325014E-131
   39.6150000000000         1.223853081297247E-130
   39.8050000000000         1.499765443559747E-130
   39.9950000000000         1.538028271430701E-130
   40.1850000000000         9.496348661940884E-131
   40.3750000000000        -9.805029956359253E-131
   40.5650000000000        -5.481516099376667E-130
   40.7550000000000        -1.454861279314286E-129
   40.9450000000000        -3.124923638750995E-129
   41.1350000000000        -6.003740688801759E-129
   41.3250000000000        -1.069619361570920E-128
   41.5150000000000        -1.795353122748116E-128
   41.7050000000000        -2.858372055854301E-128
   41.8950000000000        -4.321327750232111E-128
   42.0850000000000        -6.178660561626349E-128
   42.2750000000000        -8.263309054362915E-128
   42.4650000000000        -1.008649604511229E-127
   42.6550000000000        -1.057997662050409E-127
   42.8450000000000        -7.705280412845243E-128
   43.0350000000000         2.103901354986526E-128
   43.2250000000000         2.468421351168311E-127
   43.4150000000000         6.904550783092646E-127
   43.6050000000000         1.483213744636595E-126
   43.7950000000000         2.804939524529767E-126
   43.9850000000000         4.883512691449738E-126
   44.1750000000000         7.977172059327345E-126
   44.3650000000000         1.232383027566524E-125
   44.5550000000000         1.803333725785700E-125
   44.7450000000000         2.488806563919659E-125
   44.9350000000000         3.200524242886284E-125
   45.1250000000000         3.730332665623152E-125
   45.3150000000000         3.670898509427492E-125
   45.5050000000000         2.304899683077733E-125
   45.6950000000000        -1.539394842373766E-125
   45.8850000000000        -9.660082212138771E-125
   46.0750000000000        -2.465926796055121E-124
   46.2650000000000        -5.007732853122960E-124
   46.4550000000000        -9.039140340885456E-124
   46.6450000000000        -1.507212288592028E-123
   46.8350000000000        -2.359954014829086E-123
   47.0250000000000        -3.492140151714986E-123
   47.2150000000000        -4.883039907517498E-123
   47.4050000000000        -6.409175965641504E-123
   47.5950000000000        -7.764084060046326E-123
   47.7850000000000        -8.341981216591391E-123
   47.9750000000000        -7.079316033082881E-123
   48.1650000000000        -2.253738911219162E-123
   48.3550000000000         8.748270599099528E-123
   48.5450000000000         2.966281357734388E-122
   48.7350000000000         6.551225032128763E-122
   48.9250000000000         1.225819968702494E-121
   49.1150000000000         2.080166789816852E-121
   49.3050000000000         3.287423546604967E-121
   49.4950000000000         4.892983713245839E-121
   49.6850000000000         6.880246719166382E-121
   49.8750000000000         9.109201212239537E-121
   50.0650000000000         1.122407245500678E-120
   50.2550000000000         1.252280928930557E-120
   50.4450000000000         1.178395746667494E-120
   50.6350000000000         7.053225097488527E-121
   50.8250000000000        -4.594978339015696E-121
   51.0150000000000        -2.728372873311375E-120
   51.2050000000000        -6.647585293061612E-120
   51.3950000000000        -1.289106082042615E-119
   51.5850000000000        -2.221448078425629E-119
   51.7750000000000        -3.534213303388273E-119
   51.9650000000000        -5.274858243829867E-119
   52.1550000000000        -7.428664578518034E-119
   52.3450000000000        -9.860446977550255E-119
   52.5350000000000        -1.222917538265483E-118
   52.7250000000000        -1.387047175640113E-118
   52.9150000000000        -1.364507030686357E-118
   53.1050000000000        -9.757931381309136E-119
   53.2950000000000         4.355537397637954E-120
   53.4850000000000         2.060094628638846E-118
   53.6750000000000         5.551027091986790E-118
   53.8650000000000         1.109389418081598E-117
   54.0550000000000         1.932201289083996E-117
   54.2450000000000         3.082404694703441E-117
   54.4350000000000         4.595928683926268E-117
   54.6250000000000         6.455386103289842E-117
   54.8150000000000         8.543914868079052E-117
   55.0050000000000         1.057952468603255E-116
   55.1950000000000         1.202741425327188E-116
   55.3850000000000         1.199057724317286E-116
   55.5750000000000         9.084391801311574E-117
   55.7650000000000         1.309813869202365E-117
   55.9550000000000        -1.404660761131473E-116
   56.1450000000000        -4.043835844545459E-116
   56.3350000000000        -8.193699301684091E-116
   56.5250000000000        -1.428574552615716E-115
   56.7150000000000        -2.269892936724336E-115
   56.9050000000000        -3.362560603978314E-115
   57.0950000000000        -4.685969816901210E-115
   57.2850000000000        -6.148583292807529E-115
   57.4750000000000        -7.545170667194569E-115
   57.6650000000000        -8.501647390436975E-115
   57.8550000000000        -8.408925782426205E-115
   58.0450000000000        -6.350850630896848E-115
   58.2350000000000        -1.036996963610993E-115
   58.4250000000000         9.240646934086480E-115
   58.6150000000000         2.659693535551306E-114
   58.8050000000000         5.344447527449696E-114
   58.9950000000000         9.222538808197085E-114
   59.1850000000000         1.449057122394187E-113
   59.3750000000000         2.121389129476918E-113
   59.5650000000000         2.919967293761803E-113
   59.7550000000000         3.781720872966361E-113
   59.9450000000000         4.575908872682579E-113
   60.1350000000000         5.074415625042708E-113
   60.3250000000000         4.917612794699000E-113
   60.5150000000000         3.579260270288391E-113
   60.7050000000000         3.369961134124250E-114
   60.8950000000000        -5.740786248000272E-113
   61.0850000000000        -1.577537735968783E-112
   61.2750000000000        -3.100257356249896E-112
   61.4650000000000        -5.261159904676041E-112
   61.6550000000000        -8.146070370908514E-112
   61.8450000000000        -1.176266829050790E-111
   62.0350000000000        -1.597445723376817E-111
   62.2250000000000        -2.041007808178587E-111
   62.4150000000000        -2.434629198758182E-111
   62.6050000000000        -2.656689331372676E-111
   62.7950000000000        -2.520643931205758E-111
   62.9850000000000        -1.759782767700188E-111
   63.1750000000000        -1.572027229432567E-113
   63.3650000000000         3.164100795440471E-111
   63.5550000000000         8.312186884112543E-111
   63.7450000000000         1.599951210350594E-110
   63.9350000000000         2.675322355023131E-110
   64.1250000000000         4.091723052251709E-110
   64.3150000000000         5.843763051438528E-110
   64.5050000000000         7.855531010358619E-110
   64.6950000000000         9.939216652214978E-110
   64.8850000000000         1.174273473680504E-109
   65.0750000000000         1.268783570794472E-109
   65.2650000000000         1.190319265587851E-109
   65.4550000000000         8.161447645833911E-110
   65.6450000000000        -1.645172839532744E-111
   65.8350000000000        -1.510255669410919E-109
   66.0250000000000        -3.900575472255821E-109
   66.2150000000000        -7.435500157149283E-109
   66.4050000000000        -1.233820967412031E-108
   66.5950000000000        -1.874452742863589E-108
   66.7850000000000        -2.660833288820364E-108
   66.9750000000000        -3.556785045566872E-108
   67.1650000000000        -4.476787909581443E-108
   67.3550000000000        -5.263761816321467E-108
   67.5450000000000        -5.663197687017785E-108
   67.7350000000000        -5.295737928681168E-108
   67.9250000000000        -3.632237421785115E-108
   68.1150000000000         2.200874729041807E-110
   68.3050000000000         6.523751719826353E-108
   68.4950000000000         1.685471853619824E-107
   68.6850000000000         3.203208680432093E-107
   68.8750000000000         5.294302821343128E-107
   69.0650000000000         8.007623828091010E-107
   69.2550000000000         1.131221814428731E-106
   69.4450000000000         1.504171048412460E-106
   69.6350000000000         1.882165431865471E-106
   69.8250000000000         2.198056357001323E-106
   70.0150000000000         2.344903194041871E-106
   70.2050000000000         2.165698560341511E-106
   70.3950000000000         1.444713303416186E-106
   70.5850000000000        -9.666590773239297E-108
   70.7750000000000        -2.795406241756307E-106
   70.9650000000000        -7.027874876489501E-106
   71.1550000000000        -1.316913697338383E-105
   71.3450000000000        -2.152178102713907E-105
   71.5350000000000        -3.220475541725043E-105
   71.7250000000000        -4.499312285808950E-105
   71.9150000000000        -5.910210333994911E-105
   72.1050000000000        -7.291433149084437E-105
   72.2950000000000        -8.365913961929138E-105
   72.4850000000000        -8.706822120635133E-105
   72.6750000000000        -7.705446115907241E-105
   72.8650000000000        -4.549086381020564E-105
   73.0550000000000         1.779566432766922E-105
   73.2450000000000         1.246569178860868E-104
   73.4350000000000         2.876772050214962E-104
   73.6250000000000         5.184012907363597E-104
   73.8150000000000         8.244630874785572E-104
   74.0050000000000         1.205347113118211E-103
   74.1950000000000         1.646573572994381E-103
   74.3850000000000         2.112237457160195E-103
   74.5750000000000         2.536083932496048E-103
   74.7650000000000         2.811699825224758E-103
   74.9550000000000         2.782974009078235E-103
   75.1450000000000         2.236746640648209E-103
   75.3350000000000         9.005244814966785E-104
   75.5250000000000        -1.550754362643464E-103
   75.7150000000000        -5.473765206161946E-103
   75.9050000000000        -1.121547414510193E-102
   76.0950000000000        -1.904462815022913E-102
   76.2850000000000        -2.904937374605475E-102
   76.4750000000000        -4.099574382706044E-102
   76.6650000000000        -5.414508883469804E-102
   76.8550000000000        -6.703448511591307E-102
   77.0450000000000        -7.723344773929820E-102
   77.2350000000000        -8.110351607305304E-102
   77.4250000000000        -7.360478693176115E-102
   77.6150000000000        -4.821502243824705E-102
   77.8050000000000         2.948517867469791E-103
   77.9950000000000         8.868918624886715E-102
   78.1850000000000         2.178357602690967E-101
   78.3750000000000         3.977420690323124E-101
   78.5650000000000         6.320364029870593E-101
   78.7550000000000         9.175086936114558E-101
   78.9450000000000         1.240097320196414E-100
   79.1350000000000         1.570066045226421E-100
   79.3250000000000         1.856658530348414E-100
   79.5150000000000         2.022793736277628E-100
   79.7050000000000         1.960724248477576E-100
   79.8950000000000         1.530013707833437E-100
   80.0850000000000         5.596741118659604E-101
   80.2750000000000        -1.143210422726988E-100
   80.4650000000000        -3.775640223594197E-100
   80.6550000000000        -7.508694083970332E-100
   80.8450000000000        -1.244256391209836E-099
   81.0350000000000        -1.854453370686163E-099
   81.2250000000000        -2.556929235926645E-099
   81.4150000000000        -3.296348534517107E-099
   81.6050000000000        -3.976018220936882E-099
   81.7950000000000        -4.447412535429350E-099
   81.9850000000000        -4.501525922087350E-099
   82.1750000000000        -3.864592846782485E-099
   82.3650000000000        -2.201577224005120E-099
   82.5550000000000         8.683205747854373E-100
   82.7450000000000         5.739211419347278E-099
   82.9350000000000         1.276388676320981E-098
   83.1250000000000         2.217212000981018E-098
   83.3150000000000         3.395833778635852E-098
   83.5050000000000         4.773778966856402E-098
   83.6950000000000         6.257478766114761E-098
   83.8850000000000         7.679312505925814E-098
   84.0750000000000         8.778763570418216E-098
   84.2650000000000         9.186700319144177E-098
   84.4550000000000         8.417099263982547E-098
   84.6450000000000         5.871935248869453E-098
   84.8350000000000         8.663136669411716E-099
   85.0250000000000        -7.318028490245786E-098
   85.2150000000000        -1.934230759462717E-097
   85.4050000000000        -3.567546496371940E-097
   85.5950000000000        -5.640845119715834E-097
   85.7850000000000        -8.101672519616973E-097
   85.9750000000000        -1.080767660327105E-096
   86.1650000000000        -1.349526962285615E-096
   86.3550000000000        -1.574828954989080E-096
   86.5450000000000        -1.697136549684298E-096
   86.7350000000000        -1.637468370578133E-096
   86.9250000000000        -1.297897487814980E-096
   87.1150000000000        -5.651560037417793E-097
   87.3050000000000         6.814157995585863E-097
   87.4950000000000         2.556277631925166E-096
   87.6850000000000         5.147254721928115E-096
   87.8750000000000         8.487389622342012E-096
   88.0650000000000         1.251884863513555E-095
   88.2550000000000         1.704967961061524E-095
   88.4450000000000         2.170570034957278E-095
   88.6350000000000         2.588176839230515E-095
   88.8250000000000         2.869912732815096E-095
   89.0150000000000         2.897834900459300E-095
   89.2050000000000         2.524039774982225E-095
   89.3950000000000         1.575120213905030E-095
   89.5850000000000        -1.372654231807507E-096
   89.7750000000000        -2.797857614545420E-095
   89.9650000000000        -6.559556899196608E-095
   90.1550000000000        -1.150417218047470E-094
   90.3450000000000        -1.759168678314188E-094
   90.5350000000000        -2.459893025312320E-094
   90.7250000000000        -3.205050367217568E-094
   90.9150000000000        -3.914741564531333E-094
   91.1050000000000        -4.470212713664268E-094
   91.2950000000000        -4.709246145869760E-094
   91.4850000000000        -4.425086544005551E-094
   91.6750000000000        -3.370939828612338E-094
   91.8650000000000        -1.272397038274759E-094
   92.0550000000000         2.149706300381143E-094
   92.2450000000000         7.143585800166921E-094
   92.4350000000000         1.387603055175961E-093
   92.6250000000000         2.236621731347251E-093
   92.8150000000000         3.240451810478397E-093
   93.0050000000000         4.345939363862978E-093
   93.1950000000000         5.457867785669306E-093
   93.3850000000000         6.429558576248956E-093
   93.5750000000000         7.055449754327760E-093
   93.7650000000000         7.067671320345732E-093
   93.9550000000000         6.139146594789859E-093
   94.1450000000000         3.896183151019902E-093
   94.3350000000000        -5.621772145843138E-095
   94.5250000000000        -6.093129337650750E-093
   94.7150000000000        -1.450980114754762E-092
   94.9050000000000        -2.544140043321478E-092
   95.0950000000000        -3.876250570634151E-092
   95.2850000000000        -5.396916382944682E-092
   95.4750000000000        -7.005001708786254E-092
   95.6650000000000        -8.535771217855035E-092
   95.8550000000000        -9.749741643133573E-092
   96.0450000000000        -1.032555152797504E-091
   96.2350000000000        -9.859796065885360E-092
   96.4250000000000        -7.877353460208329E-092
   96.6150000000000        -3.856144662685628E-092
   96.8050000000000         2.729614268153120E-092
   96.9950000000000         1.234395037183300E-091
   97.1850000000000         2.529873042530630E-091
   97.3750000000000         4.163740094508262E-091
   97.5650000000000         6.099478332853242E-091
   97.7550000000000         8.243880876026991E-091
   97.9450000000000         1.043052542824440E-090
   98.1350000000000         1.240428567056496E-090
   98.3250000000000         1.380933948689895E-090
   98.5150000000000         1.418389748092165E-090
   98.7050000000000         1.296560789073638E-090
   98.8950000000000         9.512188132122720E-091
   99.0850000000000         3.142148030848895E-091
   99.2750000000000        -6.799668144177389E-091
   99.4650000000000        -2.084778471590131E-090
   99.6550000000000        -3.929076552563227E-090
   99.8450000000000        -6.201531251948530E-090
   100.035000000000        -8.832424352993767E-090
   100.225000000000        -1.167381535383348E-089
   100.415000000000        -1.447972665246342E-089
   100.605000000000        -1.688878561155721E-089
   100.795000000000        -1.841262419534389E-089
   100.985000000000        -1.843420583554757E-089
   101.175000000000        -1.622102110107219E-089
   101.365000000000        -1.095862894652762E-089
   101.555000000000        -1.810142578396704E-090
   101.745000000000         1.199324004198126E-089
   101.935000000000         3.102691144056862E-089
   102.125000000000         5.551142182301228E-089
   102.315000000000         8.511735715348751E-089
   102.505000000000         1.187441296712874E-088
   102.695000000000         1.542869639706980E-088
   102.885000000000         1.884144338314639E-088
   103.075000000000         2.163880423281556E-088
   103.265000000000         2.319649383019377E-088
   103.455000000000         2.274339928853188E-088
   103.645000000000         1.938428169847012E-088
   103.835000000000         1.214771980843421E-088
   104.025000000000         6.528305419261115E-091
   104.215000000000        -1.771302076221810E-088
   104.405000000000        -4.176394537689339E-088
   104.595000000000        -7.219700123715022E-088
   104.785000000000        -1.084260657490696E-087
   104.975000000000        -1.489176503022416E-087
   105.165000000000        -1.909346045088694E-087
   105.355000000000        -2.303030679331205E-087
   105.545000000000        -2.612403228209614E-087
   105.735000000000        -2.762910725692546E-087
   105.925000000000        -2.664284326214945E-087
   106.115000000000        -2.213820615924542E-087
   106.305000000000        -1.302575063683087E-087
   106.495000000000         1.749419260092861E-088
   106.685000000000         2.307116530546713E-087
   106.875000000000         5.147435296577325E-087
   107.065000000000         8.692734997909118E-087
   107.255000000000         1.285823024790851E-086
   107.445000000000         1.745074051102766E-086
   107.635000000000         2.214236749181365E-086
   107.825000000000         2.644780845210185E-086
   108.015000000000         2.970946996079209E-086
   108.205000000000         3.109547784493133E-086
   108.395000000000         2.961643656688953E-086
   108.585000000000         2.416721457619384E-086
   108.775000000000         1.359993051137773E-086
   108.965000000000        -3.166524277574676E-087
   109.155000000000        -2.699688837101681E-086
   109.345000000000        -5.834927920640973E-086
   109.535000000000        -9.704799296246379E-086
   109.725000000000        -1.420287484567115E-085
   109.915000000000        -1.910728193965803E-085
   110.105000000000        -2.405547023504354E-085