  -1.42500000000000         0.000000000000000E+000
  -1.23500000000000         0.000000000000000E+000
  -1.04500000000000         0.000000000000000E+000
 -0.855000000000000         0.000000000000000E+000
 -0.665000000000000         0.000000000000000E+000
 -0.475000000000000         0.000000000000000E+000
 -0.285000000000000         0.000000000000000E+000
 -9.499999999999975E-002    0.000000000000000E+000
  9.500000000000020E-002    0.000000000000000E+000
  0.285000000000000         0.000000000000000E+000
  0.475000000000000         0.000000000000000E+000
  0.665000000000000         0.000000000000000E+000
  0.855000000000000         0.000000000000000E+000
   1.04500000000000         0.000000000000000E+000
   1.23500000000000         0.000000000000000E+000
   1.42500000000000         0.000000000000000E+000
   1.61500000000000         0.000000000000000E+000
   1.80500000000000         0.000000000000000E+000
   1.99500000000000         0.000000000000000E+000
   2.18500000000000         0.000000000000000E+000
   2.37500000000000         0.000000000000000E+000
   2.56500000000000         0.000000000000000E+000
   2.75500000000000         0.000000000000000E+000
   2.94500000000000         0.000000000000000E+000
   3.13500000000000         0.000000000000000E+000
   3.32500000000000         0.000000000000000E+000
   3.51500000000000         0.000000000000000E+000
   3.70500000000000         0.000000000000000E+000
   3.89500000000000         0.000000000000000E+000
   4.08500000000000         0.000000000000000E+000
   4.27500000000000         0.000000000000000E+000
   4.46500000000000         0.000000000000000E+000
   4.65500000000000         0.000000000000000E+000
   4.84500000000000         0.000000000000000E+000
   5.03500000000000         0.000000000000000E+000
   5.22500000000000         0.000000000000000E+000
   5.41500000000000         0.000000000000000E+000
   5.60500000000000         0.000000000000000E+000
   5.79500000000000         0.000000000000000E+000
   5.98500000000000         0.000000000000000E+000
   6.17500000000000         0.000000000000000E+000
   6.36500000000000         0.000000000000000E+000
   6.55500000000000         0.000000000000000E+000
   6.74500000000000         0.000000000000000E+000
   6.93500000000000         0.000000000000000E+000
   7.12500000000000         0.000000000000000E+000
   7.31500000000000         0.000000000000000E+000
   7.50500000000000         0.000000000000000E+000
   7.69500000000000         0.000000000000000E+000
   7.88500000000000         0.000000000000000E+000
   8.07500000000000         0.000000000000000E+000
   8.26500000000000         0.000000000000000E+000
   8.45500000000000         0.000000000000000E+000
   8.64500000000000        -4.601565930151043E-220
   8.83500000000000        -2.276650907328657E-207
   9.02500000000000        -1.033688615280551E-205
   9.21500000000000        -1.198111839453778E-203
   9.40500000000000        -1.363159300501723E-201
   9.59500000000000        -7.733638456855233E-200
   9.78500000000000        -2.675661749068386E-198
   9.97500000000000        -6.342561781016434E-197
   10.1650000000000        -1.073947050769838E-195
   10.3550000000000        -1.241634794471701E-194
   10.5450000000000        -6.403078162551756E-194
   10.7350000000000         1.103290387696375E-192
   10.9250000000000         3.949411027724754E-191
   11.1150000000000         7.361399711671157E-190
   11.3050000000000         1.050373852421488E-188
   11.4950000000000         1.259890268886564E-187
   11.6850000000000         1.322940366603928E-186
   11.8750000000000         1.243812171040522E-185
   12.0650000000000         1.062222995226218E-184
   12.2550000000000         8.322013860287986E-184
   12.4450000000000         6.024054289851644E-183
   12.6350000000000         4.049855952108340E-182
   12.8250000000000         2.537718022414215E-181
   13.0150000000000         1.485399558583809E-180
   13.2050000000000         8.126892512907990E-180
   13.3950000000000         4.150992887960140E-179
   13.5850000000000         1.971481630240588E-178
   13.7750000000000         8.631249877829568E-178
   13.9650000000000         3.420827125115781E-177
   14.1550000000000         1.177597827304450E-176
   14.3450000000000         3.115717246053810E-176
   14.5350000000000         2.678341429207142E-176
   14.7250000000000        -4.046709875400754E-175
   14.9150000000000        -4.010473343881586E-174
   15.1050000000000        -2.620887460431708E-173
   15.2950000000000        -1.443126557027601E-172
   15.4850000000000        -7.162617990698031E-172
   15.6750000000000        -3.298056131703371E-171
   15.8650000000000        -1.430376727182617E-170
   16.0550000000000        -5.896445034674721E-170
   16.2450000000000        -2.324049659469316E-169
   16.4350000000000        -8.794086276586306E-169
   16.6250000000000        -3.204080334241788E-168
   16.8150000000000        -1.126485645961722E-167
   17.0050000000000        -3.827890398342074E-167
   17.1950000000000        -1.258703741857661E-166
   17.3850000000000        -4.008549875479903E-166
   17.5750000000000        -1.237059785344336E-165
   17.7650000000000        -3.700432865034914E-165
   17.9550000000000        -1.072926261399263E-164
   18.1450000000000        -3.014448707422940E-164
   18.3350000000000        -8.201214270736957E-164
   18.5250000000000        -2.158243652811376E-163
   18.7150000000000        -5.484522711298791E-163
   18.9050000000000        -1.342433190874714E-162
   19.0950000000000        -3.152860615070826E-162
   19.2850000000000        -7.063176697843042E-162
   19.4750000000000        -1.494665625567250E-161
   19.6650000000000        -2.935748153360221E-161
   19.8550000000000        -5.160644048966704E-161
   20.0450000000000        -7.362832762633591E-161
   20.2350000000000        -5.148366958623348E-161
   20.4250000000000         1.714345013437359E-160
   20.6150000000000         1.073362143152647E-159
   20.8050000000000         4.005058627361496E-159
   20.9950000000000         1.262914562223527E-158
   21.1850000000000         3.670882906521243E-158
   21.3750000000000         1.022476325928594E-157
   21.5650000000000         2.791062713386787E-157
   21.7550000000000         7.571064645265788E-157
   21.9450000000000         2.056252425746776E-156
   22.1350000000000         5.603259962715774E-156
   22.3250000000000         1.528880719321003E-155
   22.5150000000000         4.158574960792097E-155
   22.7050000000000         1.121678266404268E-154
   22.8950000000000         2.985284551478862E-154
   23.0850000000000         7.807107769289524E-154
   23.2750000000000         1.999700757572154E-153
   23.4650000000000         5.004011027509805E-153
   23.6550000000000         1.220889787772131E-152
   23.8450000000000         2.899138050495695E-152
   24.0350000000000         6.688203099291184E-152
   24.2250000000000         1.495778833611493E-151
   24.4150000000000         3.233724997729365E-151
   24.6050000000000         6.730091455495948E-151
   24.7950000000000         1.339789318282462E-150
   24.9850000000000         2.524093343267671E-150
   25.1750000000000         4.412498113388720E-150
   25.3650000000000         6.862060167086210E-150
   25.5550000000000         8.417726530510992E-150
   25.7450000000000         3.659684713541584E-150
   25.9350000000000        -2.337192120424667E-149
   26.1250000000000        -1.145186638000829E-148
   26.3150000000000        -3.716404340011419E-148
   26.5050000000000        -1.029605176666412E-147
   26.6950000000000        -2.606964792515842E-147
   26.8850000000000        -6.207157760855345E-147
   27.0750000000000        -1.410261472110880E-146
   27.2650000000000        -3.083461041985276E-146
   27.4550000000000        -6.522430376089929E-146
   27.6450000000000        -1.339404134696502E-145
   27.8350000000000        -2.676274132325947E-145
   28.0250000000000        -5.210575071390293E-145
   28.2150000000000        -9.892336828842391E-145
   28.4050000000000        -1.831515934673764E-144
   28.5950000000000        -3.304810578743299E-144
   28.7850000000000        -5.802605521456558E-144
   28.9750000000000        -9.884537702132210E-144
   29.1650000000000        -1.625123139259871E-143
   29.3550000000000        -2.555023934670915E-143
   29.5450000000000        -3.774761883094207E-143
   29.7350000000000        -5.047864843608826E-143
   29.9250000000000        -5.512892523179621E-143
   30.1150000000000        -2.806508429074063E-143
   30.3050000000000         8.817941087431394E-143
   30.4950000000000         4.239593149638281E-142
   30.6850000000000         1.261326247377313E-141
   30.8750000000000         3.188957876071238E-141
   31.0650000000000         7.399070437026462E-141
   31.2550000000000         1.624183426215869E-140
   31.4450000000000         3.423252103115121E-140
   31.6350000000000         6.982676685122679E-140
   31.8250000000000         1.384444628445684E-139
   32.0150000000000         2.674153803130708E-139
   32.2050000000000         5.036644259707016E-139
   32.3950000000000         9.248459630544519E-139
   32.5850000000000         1.653802191278944E-138
   32.7750000000000         2.873675072303463E-138
   32.9650000000000         4.834833209684783E-138
   33.1550000000000         7.831487078634391E-138
   33.3450000000000         1.209939549088505E-137
   33.5350000000000         1.753646115182532E-137
   33.7250000000000         2.305989528578346E-137
   33.9150000000000         2.526495194486094E-137
   34.1050000000000         1.581259750885977E-137
   34.2950000000000        -2.338322836020390E-137
   34.4850000000000        -1.285915331948825E-136
   34.6750000000000        -3.683482214200166E-136
   34.8650000000000        -8.657816081006465E-136
   35.0550000000000        -1.831923933502324E-135
   35.2450000000000        -3.611634037193949E-135
   35.4350000000000        -6.739673657537654E-135
   35.6250000000000        -1.199432057056526E-134
   35.8150000000000        -2.041429446189944E-134
   36.0050000000000        -3.320297756432975E-134
   36.1950000000000        -5.136855449497280E-134
   36.3850000000000        -7.482068800966998E-134
   36.5750000000000        -1.004388863634017E-133
   36.7650000000000        -1.183170802223041E-133
   36.9550000000000        -1.049512611119996E-133
   37.1450000000000        -1.157656994169519E-134
   37.3350000000000         2.547524826409213E-133
   37.5250000000000         8.602000129474515E-133
   37.7150000000000         2.085991072482947E-132
   37.9050000000000         4.384008449081970E-132
   38.0950000000000         8.442120722540272E-132
   38.2850000000000         1.524418849481497E-131
   38.4750000000000         2.608815994748274E-131
   38.6650000000000         4.248703868168348E-131
   38.8550000000000         6.581273121989794E-131
   39.0450000000000         9.644057758261451E-131
   39.2350000000000         1.320007772283678E-130
   39.4250000000000         1.641333958941783E-130
   39.6150000000000         1.728795998581859E-130
   39.8050000000000         1.175544656812872E-130
   39.9950000000000        -7.727780476449333E-131
   40.1850000000000        -5.420836744319406E-130
   40.3750000000000        -1.489640390652284E-129
   40.5650000000000        -3.248268139601129E-129
   40.7550000000000        -6.296044169626439E-129
   40.9450000000000        -1.128355961391787E-128
   41.1350000000000        -1.901977775503754E-128
   41.3250000000000        -3.037446358083031E-128
   41.5150000000000        -4.601856391150612E-128
   41.7050000000000        -6.587816588914484E-128
   41.8950000000000        -8.811717036115102E-128
   42.0850000000000        -1.073915466277161E-127
   42.2750000000000        -1.120451368182384E-127
   42.4650000000000        -7.986928326064299E-128
   42.6550000000000         2.792395953519015E-128
   42.8450000000000         2.746756412710041E-127
   43.0350000000000         7.578698079744453E-127
   43.2250000000000         1.619005155888352E-126
   43.4150000000000         3.050604772453053E-126
   43.6050000000000         5.294223294150421E-126
   43.7950000000000         8.618679652093499E-126
   43.9850000000000         1.326103789443250E-125
   44.1750000000000         1.930379755691073E-125
   44.3650000000000         2.645049945717235E-125
   44.5550000000000         3.364957403958311E-125
   44.7450000000000         3.850546155346517E-125
   44.9350000000000         3.641218886407429E-125
   45.1250000000000         1.935711879243813E-125
   45.3150000000000        -2.561334576040231E-125
   45.5050000000000        -1.181760043816776E-124
   45.6950000000000        -2.864865772447960E-124
   45.8850000000000        -5.683226195725731E-124
   46.0750000000000        -1.010539038155052E-123
   46.2650000000000        -1.665046285074253E-123
   46.4550000000000        -2.578540544149428E-123
   46.6450000000000        -3.771967397992492E-123
   46.8350000000000        -5.204261299239693E-123
   47.0250000000000        -6.713487510085565E-123
   47.2150000000000        -7.927562550993518E-123
   47.4050000000000        -8.137027534522347E-123
   47.5950000000000        -6.125162932896815E-123
   47.7850000000000         4.203496926455746E-125
   47.9750000000000         1.324917748871974E-122
   48.1650000000000         3.754637116247730E-122
   48.3550000000000         7.826425526192995E-122
   48.5450000000000         1.418888287195895E-121
   48.7350000000000         2.354736633219237E-121
   48.9250000000000         3.652605108776742E-121
   49.1150000000000         5.340519324005968E-121
   49.3050000000000         7.367446536921549E-121
   49.4950000000000         9.533186796140258E-121
   49.6850000000000         1.138537116091810E-120
   49.8750000000000         1.207730771353616E-120
   50.0650000000000         1.018449484190846E-120
   50.2550000000000         3.486419203341993E-121
   50.4450000000000        -1.126380680998021E-120
   50.6350000000000        -3.853337602356098E-120
   50.8250000000000        -8.407929172911504E-120
   51.0150000000000        -1.547496597877066E-119
   51.2050000000000        -2.577990159754763E-119
   51.3950000000000        -3.994089342734225E-119
   51.5850000000000        -5.820036934981715E-119
   51.7750000000000        -7.998544380414536E-119
   51.9650000000000        -1.032403394002330E-118
   52.1550000000000        -1.234761168827321E-118
   52.3450000000000        -1.325009777522384E-118
   52.5350000000000        -1.168388543640328E-118
   52.7250000000000        -5.592918497768277E-119
   52.9150000000000         7.965565335005792E-119
   53.1050000000000         3.295168651293561E-118
   53.2950000000000         7.434815686677947E-118
   53.4850000000000         1.379191330976907E-117
   53.6750000000000         2.295474419915665E-117
   53.8650000000000         3.539122515694007E-117
   54.0550000000000         5.122055073804922E-117
   54.2450000000000         6.985349195873436E-117
   54.4350000000000         8.946482269630029E-117
   54.6250000000000         1.062675372367075E-116
   54.8150000000000         1.135775958989988E-116
   55.0050000000000         1.006971217803173E-116
   55.1950000000000         5.171230635013809E-117
   55.3850000000000        -5.558988636056067E-117
   55.5750000000000        -2.503243706774698E-116
   55.7650000000000        -5.680522537550784E-116
   55.9550000000000        -1.048413165246721E-115
   56.1450000000000        -1.729665869925897E-115
   56.3350000000000        -2.638611453377927E-115
   56.5250000000000        -3.774068782909515E-115
   56.7150000000000        -5.081914207707530E-115
   56.9050000000000        -6.419850710755402E-115
   57.0950000000000        -7.510772583169815E-115
   57.2850000000000        -7.885158742159878E-115
   57.4750000000000        -6.815760988230009E-115
   57.6650000000000        -3.252415045900581E-115
   57.8550000000000         4.228431972329749E-115
   58.0450000000000         1.743551699113717E-114
   58.2350000000000         3.849978476976656E-114
   58.4250000000000         6.968594046915421E-114
   58.6150000000000         1.130118323879677E-113
   58.8050000000000         1.695938509697575E-113
   58.9950000000000         2.386262838457573E-113
   59.1850000000000         3.159034441273778E-113
   59.3750000000000         3.918144580649711E-113
   59.5650000000000         4.487941359191186E-113
   59.7550000000000         4.583148948225218E-113
   59.9450000000000         3.776724732998120E-113
   60.1350000000000         1.470714765529566E-113
   60.3250000000000        -3.121270874410702E-113
   60.5150000000000        -1.096665043517466E-112
   60.7050000000000        -2.316244595299340E-112
   60.8950000000000        -4.081421048292973E-112
   61.0850000000000        -6.481306437693932E-112
   61.2750000000000        -9.547321144212523E-112
   61.4650000000000        -1.319902147079951E-111
   61.6550000000000        -1.716845712112128E-111
   61.8450000000000        -2.090099466413543E-111
   62.0350000000000        -2.343362579123581E-111
   62.2250000000000        -2.325711997737151E-111
   62.4150000000000        -1.817671060995429E-111
   62.6050000000000        -5.198040191571423E-112
   62.7950000000000         1.951860863019435E-111
   62.9850000000000         6.057204015986561E-111
   63.1750000000000         1.230134856723304E-110
   63.3650000000000         2.117045214576481E-110
   63.5550000000000         3.301992773499385E-110
   63.7450000000000         4.789928510072609E-110
   63.9350000000000         6.529767749638301E-110
   64.1250000000000         8.379713273820416E-110
   64.3150000000000         1.006281303340926E-109
   64.5050000000000         1.111369179732853E-109
   64.6950000000000         1.081984127484366E-109
   64.8850000000000         8.164559615578057E-110
   65.0750000000000         1.783871659576443E-110
   65.2650000000000        -1.004327220764185E-109
   65.4550000000000        -2.934351737177491E-109
   65.6450000000000        -5.829821873124809E-109
   65.8350000000000        -9.894430137565622E-109
   66.0250000000000        -1.526683094501231E-108
   66.2150000000000        -2.194290258018204E-108
   66.4050000000000        -2.966456601951299E-108
   66.5950000000000        -3.777035771222985E-108
   66.7850000000000        -4.500654186216758E-108
   66.9750000000000        -4.930416937430684E-108
   67.1650000000000        -4.753823736406913E-108
   67.3550000000000        -3.530112124014389E-108
   67.5450000000000        -6.744759885784338E-109
   67.7350000000000         4.542473444753361E-108
   67.9250000000000         1.296805820678404E-107
   68.1150000000000         2.549769094137946E-107
   68.3050000000000         4.294170876952513E-107
   68.4950000000000         6.580531035017896E-107
   68.6850000000000         9.395646089321779E-107
   68.8750000000000         1.261587118342595E-106
   69.0650000000000         1.594540257181492E-106
   69.2550000000000         1.883980075656718E-106
   69.4450000000000         2.041801334698320E-106
   69.6350000000000         1.937086912175489E-106
   69.8250000000000         1.388080720833479E-106
   70.0150000000000         1.576754585407055E-107
   70.2050000000000        -2.044040023807656E-106
   70.3950000000000        -5.545278470143134E-106
   70.5850000000000        -1.067976585773664E-105
   70.7750000000000        -1.772802713198877E-105
   70.9650000000000        -2.682427428625538E-105
   71.1550000000000        -3.782058989157967E-105
   71.3450000000000        -5.010197909531766E-105
   71.5350000000000        -6.235038290585443E-105
   71.7250000000000        -7.226401120824111E-105
   71.9150000000000        -7.625157281133370E-105
   72.1050000000000        -6.914030246124803E-105
   72.2950000000000        -4.396294099608890E-105
   72.4850000000000         8.077871658615530E-106
   72.6750000000000         9.733012883905742E-105
   72.8650000000000         2.349182643069086E-104
   73.0550000000000         4.312557160917741E-104
   73.2450000000000         6.935995845231481E-104
   73.4350000000000         1.022403437954845E-103
   73.6250000000000         1.406271148517403E-103
   73.8150000000000         1.815431975084674E-103
   74.0050000000000         2.193873557964316E-103
   74.1950000000000         2.450615493363789E-103
   74.3850000000000         2.451109603118454E-103
   74.5750000000000         2.010432242522108E-103
   74.7650000000000         8.907876809379939E-104
   74.9550000000000        -1.193164693006655E-103
   75.1450000000000        -4.556597079940983E-103
   75.3350000000000        -9.508899332180398E-103
   75.5250000000000        -1.629403586929479E-102
   75.7150000000000        -2.500081511511028E-102
   75.9050000000000        -3.543822634741585E-102
   76.0950000000000        -4.697392107497579E-102
   76.2850000000000        -5.833919046003078E-102
   76.4750000000000        -6.741207355055535E-102
   76.6650000000000        -7.100208442457736E-102
   76.8550000000000        -6.467577116715962E-102
   77.0450000000000        -4.268173013163120E-102
   77.2350000000000         1.944168723685579E-103
   77.4250000000000         7.698982223728154E-102
   77.6150000000000         1.902708566418141E-101
   77.8050000000000         3.482927255236264E-101
   77.9950000000000         5.542406258595039E-101
   78.1850000000000         8.051969954060699E-101
   78.3750000000000         1.088553623154095E-100
   78.5650000000000         1.377702523737978E-100
   78.7550000000000         1.627268956518826E-100
   78.9450000000000         1.768400797007046E-100
   79.1350000000000         1.704954203308818E-100
   79.3250000000000         1.311808797975325E-100
   79.5150000000000         4.369828433848151E-101
   79.7050000000000        -1.090345872859039E-100
   79.8950000000000        -3.443449291816110E-100
   80.0850000000000        -6.770651718367856E-100
   80.2750000000000        -1.115444864576844E-099
   80.4650000000000        -1.655533873178113E-099
   80.6550000000000        -2.273996506165187E-099
   80.8450000000000        -2.919550681337996E-099
   81.0350000000000        -3.503575418412821E-099
   81.2250000000000        -3.890907373592251E-099
   81.4150000000000        -3.892453664202090E-099
   81.6050000000000        -3.261964087585003E-099
   81.7950000000000        -1.700081328125191E-099
   81.9850000000000         1.130466731725187E-099
   82.1750000000000         5.574091955694452E-099
   82.3650000000000         1.193133565248833E-098
   82.5550000000000         2.038337801899122E-098
   82.7450000000000         3.088915718692290E-098
   82.9350000000000         4.305479380110376E-098
   83.1250000000000         5.597924037363693E-098
   83.3150000000000         6.808620990581926E-098
   83.5050000000000         7.696065201213354E-098
   83.6950000000000         7.921827422558830E-098
   83.8850000000000         7.044843522820689E-098
   84.0750000000000         4.528325577099335E-098
   84.2650000000000        -2.342545378787140E-099
   84.4550000000000        -7.866809200664755E-098
   84.6450000000000        -1.892439095842043E-097
   84.8350000000000        -3.376636253556150E-097
   85.0250000000000        -5.238460754009069E-097
   85.2150000000000        -7.418675145339754E-097
   85.4050000000000        -9.774122085283642E-097
   85.5950000000000        -1.205007394991525E-096
   85.7850000000000        -1.385337236483358E-096
   85.9750000000000        -1.463088114731464E-096
   86.1650000000000        -1.365957169042323E-096
   86.3550000000000        -1.005642754152044E-096
   86.5450000000000        -2.818056110607806E-097
   86.7350000000000         9.098917069151383E-097
   86.9250000000000         2.664538637960163E-096
   87.1150000000000         5.048529615441949E-096
   87.3050000000000         8.073278840351374E-096
   87.4950000000000         1.166210886877052E-095
   87.6850000000000         1.561133418389209E-095
   87.8750000000000         1.954798055730685E-095
   88.0650000000000         2.288843010367780E-095
   88.2550000000000         2.480452753295051E-095
   88.4450000000000         2.420621708765514E-095
   88.6350000000000         1.975239388847504E-095
   88.8250000000000         9.904015962533584E-096
   89.0150000000000        -6.964840421038380E-096
   89.2050000000000        -3.238201489233807E-095
   89.3950000000000        -6.750425469473511E-095
   89.5850000000000        -1.127468649985050E-094
   89.7750000000000        -1.673154709346181E-094
   89.9650000000000        -2.286528748181384E-094
   90.1550000000000        -2.918329442637665E-094
   90.3450000000000        -3.489580665433050E-094
   90.5350000000000        -3.886465092442017E-094
   90.7250000000000        -3.957296401297431E-094
   90.9150000000000        -3.513137254636946E-094
   91.1050000000000        -2.333927473078145E-094
   91.2950000000000        -1.822139185586341E-095
   91.4850000000000         3.173367622392410E-094
   91.6750000000000         7.922913592273003E-094
   91.8650000000000         1.416701051654362E-093
   92.0550000000000         2.185512989036061E-093
   92.2450000000000         3.071202273896337E-093
   92.4350000000000         4.015581675148600E-093
   92.6250000000000         4.921457021391293E-093
   92.8150000000000         5.645175390515500E-093
   93.0050000000000         5.991535697743232E-093
   93.1950000000000         5.712974005481287E-093
   93.3850000000000         4.515350105883441E-093
   93.5750000000000         2.072978084419751E-093
   93.7650000000000        -1.944330021072649E-093
   93.9550000000000        -7.829614458462851E-093
   94.1450000000000        -1.578052705490512E-092
   94.3350000000000        -2.582369265539312E-092
   94.5250000000000        -3.772274540978918E-092
   94.7150000000000        -5.087379995754630E-092
   94.9050000000000        -6.419566620737119E-092
   95.0950000000000        -7.602649456238378E-092
   95.2850000000000        -8.404359094398792E-092
   95.4750000000000        -8.522854861828292E-092
   95.6650000000000        -7.590508391527300E-092
   95.8550000000000        -5.188127664036268E-092
   96.0450000000000        -8.730290185054726E-093
   96.2350000000000         5.775718093133661E-092
   96.4250000000000         1.509209880872984E-091
   96.6150000000000         2.723641484940384E-091
   96.8050000000000         4.208736336995141E-091
   96.9950000000000         5.911617456352099E-091
   97.1850000000000         7.724993126251372E-091
   97.3750000000000         9.473607420881599E-091
   97.5650000000000         1.090258456169714E-090
   97.7550000000000         1.167007378750020E-090
   97.9450000000000         1.134723728847249E-090
   98.1350000000000         9.429186314901886E-091
   98.3250000000000         5.360853857034809E-091
   98.5150000000000        -1.418138130480014E-091
   98.7050000000000        -1.140596281883859E-090
   98.8950000000000        -2.494582411393682E-090
   99.0850000000000        -4.210722958368237E-090
   99.2750000000000        -6.254346699554166E-090
   99.4650000000000        -8.533144428576284E-090
   99.6550000000000        -1.088051958166683E-089
   99.8450000000000        -1.304005620133636E-089
   100.035000000000        -1.465355538861350E-089
   100.225000000000        -1.525582356759403E-089
   100.415000000000        -1.428008483903688E-089
   100.605000000000        -1.107843051984516E-089
   100.795000000000        -4.961975625277768E-090
   100.985000000000         4.734800465239043E-090
   101.175000000000         1.856188095029124E-089
   101.365000000000         3.683172067649372E-089
   101.555000000000         5.946813583014754E-089
   101.745000000000         8.583062859488366E-089
   101.935000000000         1.145238071797202E-088
   102.125000000000         1.432078810565289E-088
   102.315000000000         1.684335434747893E-088
   102.505000000000         1.855324830283669E-088
   102.695000000000         1.886026148601661E-088
   102.885000000000         1.706339099900011E-088
   103.075000000000         1.238251268172807E-088
   103.265000000000         4.014219922253083E-089
   103.455000000000        -8.783636150273003E-089
   103.645000000000        -2.657549637669292E-088
   103.835000000000        -4.959883930789560E-088
   104.025000000000        -7.758470547359494E-088
   104.215000000000        -1.095553346991495E-087
   104.405000000000        -1.436122928237483E-087
   104.595000000000        -1.767356636000077E-087
   104.785000000000        -2.046229102096704E-087
   104.975000000000        -2.216042956131928E-087
   105.165000000000        -2.206794328776261E-087
   105.355000000000        -1.937254452723850E-087
   105.545000000000        -1.319298693364669E-087
   105.735000000000        -2.649907538240896E-088
   105.925000000000         1.303163379904108E-087
   106.115000000000         3.438559886310663E-087
   106.305000000000         6.153498558336231E-087
   106.495000000000         9.399311859478222E-087
   106.685000000000         1.304463134617890E-086
   106.875000000000         1.685346092782755E-086
   107.065000000000         2.046548329671761E-086
   107.255000000000         2.338183512432863E-086
   107.445000000000         2.496037817166246E-086
   107.635000000000         2.442516899450580E-086
   107.825000000000         2.089526216642261E-086
   108.015000000000         1.343801687242202E-086
   108.205000000000         1.151539802727955E-087
   108.395000000000        -1.672039536106280E-086
   108.585000000000        -4.063983611994452E-086
   108.775000000000        -7.059473298338292E-086
   108.965000000000        -1.058942647950635E-085
   109.155000000000        -1.449516730306433E-085
   109.345000000000        -1.850734936577030E-085
   109.535000000000        -2.222813879849713E-085
   109.725000000000        -2.512002487965839E-085
   109.915000000000        -2.650531295178245E-085
   110.105000000000        -2.558087963122291E-085