  -1.42500000000000         0.000000000000000E+000
  -1.23500000000000         0.000000000000000E+000
  -1.04500000000000         0.000000000000000E+000
 -0.855000000000000         0.000000000000000E+000
 -0.665000000000000         0.000000000000000E+000
 -0.475000000000000         0.000000000000000E+000
 -0.285000000000000         0.000000000000000E+000
 -9.499999999999975E-002    0.000000000000000E+000
  9.500000000000020E-002    0.000000000000000E+000
  0.285000000000000         0.000000000000000E+000
  0.475000000000000         0.000000000000000E+000
  0.665000000000000         0.000000000000000E+000
  0.855000000000000         0.000000000000000E+000
   1.04500000000000         0.000000000000000E+000
   1.23500000000000         0.000000000000000E+000
   1.42500000000000         0.000000000000000E+000
   1.61500000000000         0.000000000000000E+000
   1.80500000000000         0.000000000000000E+000
   1.99500000000000         0.000000000000000E+000
   2.18500000000000         0.000000000000000E+000
   2.37500000000000         0.000000000000000E+000
   2.56500000000000         0.000000000000000E+000
   2.75500000000000         0.000000000000000E+000
   2.94500000000000         0.000000000000000E+000
   3.13500000000000         0.000000000000000E+000
   3.32500000000000         0.000000000000000E+000
   3.51500000000000         0.000000000000000E+000
   3.70500000000000         0.000000000000000E+000
   3.89500000000000         0.000000000000000E+000
   4.08500000000000         0.000000000000000E+000
   4.27500000000000         0.000000000000000E+000
   4.46500000000000         0.000000000000000E+000
   4.65500000000000         0.000000000000000E+000
   4.84500000000000         0.000000000000000E+000
   5.03500000000000         0.000000000000000E+000
   5.22500000000000         0.000000000000000E+000
   5.41500000000000         0.000000000000000E+000
   5.60500000000000         0.000000000000000E+000
   5.79500000000000         0.000000000000000E+000
   5.98500000000000         0.000000000000000E+000
   6.17500000000000         0.000000000000000E+000
   6.36500000000000         0.000000000000000E+000
   6.55500000000000         0.000000000000000E+000
   6.74500000000000         0.000000000000000E+000
   6.93500000000000         0.000000000000000E+000
   7.12500000000000         0.000000000000000E+000
   7.31500000000000         0.000000000000000E+000
   7.50500000000000         0.000000000000000E+000
   7.69500000000000         0.000000000000000E+000
   7.88500000000000         0.000000000000000E+000
   8.07500000000000         0.000000000000000E+000
   8.26500000000000         0.000000000000000E+000
   8.45500000000000         0.000000000000000E+000
   8.64500000000000         4.654637864893711E-221
   8.83500000000000         5.346220386867642E-208
   9.02500000000000         1.581549969430993E-206
   9.21500000000000        -7.208387492150994E-205
   9.40500000000000        -3.056371567337065E-203
   9.59500000000000         3.246735520093359E-202
   9.78500000000000         4.043694941703680E-200
   9.97500000000000         8.750868099964169E-199
   10.1650000000000        -4.757644284050373E-198
   10.3550000000000        -8.295797746564349E-196
   10.5450000000000        -2.905592905817672E-194
   10.7350000000000        -6.768121171696819E-193
   10.9250000000000        -1.234596949809224E-191
   11.1150000000000        -1.881961948463496E-190
   11.3050000000000        -2.483450366566525E-189
   11.4950000000000        -2.901462973409144E-188
   11.6850000000000        -3.048675070569701E-187
   11.8750000000000        -2.914666374992050E-186
   12.0650000000000        -2.558252840532621E-185
   12.2550000000000        -2.076131713716917E-184
   12.4450000000000        -1.566745065451389E-183
   12.6350000000000        -1.104524801477860E-182
   12.8250000000000        -7.301253694062521E-182
   13.0150000000000        -4.538724932318210E-181
   13.2050000000000        -2.659099577804214E-180
   13.3950000000000        -1.470363096911633E-179
   13.5850000000000        -7.678316495961803E-179
   13.7750000000000        -3.785054465284284E-178
   13.9650000000000        -1.758080100292128E-177
   14.1550000000000        -7.663289159284578E-177
   14.3450000000000        -3.110491651317141E-176
   14.5350000000000        -1.158076046327177E-175
   14.7250000000000        -3.830250527164188E-175
   14.9150000000000        -1.034687201466543E-174
   15.1050000000000        -1.563591877801033E-174
   15.2950000000000         5.578343251468860E-174
   15.4850000000000         7.168369144829788E-173
   15.6750000000000         4.750318394106105E-172
   15.8650000000000         2.553241062881536E-171
   16.0550000000000         1.222940720277141E-170
   16.2450000000000         5.413272855197177E-170
   16.4350000000000         2.254952446159368E-169
   16.6250000000000         8.933148756139797E-169
   16.8150000000000         3.388347245953875E-168
   17.0050000000000         1.236251422523336E-167
   17.1950000000000         4.353490867621505E-167
   17.3850000000000         1.483585109737616E-166
   17.5750000000000         4.902706433842232E-166
   17.7650000000000         1.573832286196323E-165
   17.9550000000000         4.915023080037435E-165
   18.1450000000000         1.495243983029310E-164
   18.3350000000000         4.436577185123729E-164
   18.5250000000000         1.285402408519231E-163
   18.7150000000000         3.640683598555657E-163
   18.9050000000000         1.009213023469694E-162
   19.0950000000000         2.741312461022481E-162
   19.2850000000000         7.305558035033714E-162
   19.4750000000000         1.912657121283869E-161
   19.6650000000000         4.926087618810036E-161
   19.8550000000000         1.249832199263263E-160
   20.0450000000000         3.128083419161738E-160
   20.2350000000000         7.732704413229951E-160
   20.4250000000000         1.890059752644075E-159
   20.6150000000000         4.571326590366061E-159
   20.8050000000000         1.094411533915110E-158
   20.9950000000000         2.593059777349289E-158
   21.1850000000000         6.075694591084754E-158
   21.3750000000000         1.405714640748432E-157
   21.5650000000000         3.204524533864494E-157
   21.7550000000000         7.175981957966718E-157
   21.9450000000000         1.572130651394155E-156
   22.1350000000000         3.351141692084263E-156
   22.3250000000000         6.895784114431583E-156
   22.5150000000000         1.353274807765964E-155
   22.7050000000000         2.479722375070415E-155
   22.8950000000000         4.059737060777914E-155
   23.0850000000000         5.242851405425817E-155
   23.2750000000000         2.257203407322498E-155
   23.4650000000000        -1.735911408679385E-154
   23.6550000000000        -8.973136328345733E-154
   23.8450000000000        -3.116435163894436E-153
   24.0350000000000        -9.283935533118238E-153
   24.2250000000000        -2.535558396972172E-152
   24.4150000000000        -6.528985526745860E-152
   24.6050000000000        -1.608242348268725E-151
   24.7950000000000        -3.822140440028424E-151
   24.9850000000000        -8.812720755058595E-151
   25.1750000000000        -1.978895431155633E-150
   25.3650000000000        -4.339742674672275E-150
   25.5550000000000        -9.314792330773841E-150
   25.7450000000000        -1.960231089988563E-149
   25.9350000000000        -4.050411762357165E-149
   26.1250000000000        -8.228010032775096E-149
   26.3150000000000        -1.645037703533010E-148
   26.5050000000000        -3.240204428225979E-148
   26.6950000000000        -6.293146980475176E-148
   26.8850000000000        -1.206138262899150E-147
   27.0750000000000        -2.282644893101331E-147
   27.2650000000000        -4.267754329380677E-147
   27.4550000000000        -7.884925787374076E-147
   27.6450000000000        -1.439573318827207E-146
   27.8350000000000        -2.596325091108721E-146
   28.0250000000000        -4.622023581151911E-146
   28.2150000000000        -8.110764317908155E-146
   28.4050000000000        -1.399983930386531E-145
   28.5950000000000        -2.369323603072275E-145
   28.7850000000000        -3.912692253341430E-145
   28.9750000000000        -6.258148110680526E-145
   29.1650000000000        -9.576909036632393E-145
   29.3550000000000        -1.371350697093377E-144
   29.5450000000000        -1.751309927663699E-144
   29.7350000000000        -1.729175733026763E-144
   29.9250000000000        -3.563667275057885E-145
   30.1150000000000         4.564679587220811E-144
   30.3050000000000         1.779660570549099E-143
   30.4950000000000         4.917283728301928E-143
   30.6850000000000         1.182246900776112E-142
   30.8750000000000         2.624775353337205E-142
   31.0650000000000         5.518899441197567E-142
   31.2550000000000         1.113212401409733E-141
   31.4450000000000         2.169694888711864E-141
   31.6350000000000         4.103291925036511E-141
   31.8250000000000         7.547424696472722E-141
   32.0150000000000         1.351635873553918E-140
   32.2050000000000         2.356785010027390E-140
   32.3950000000000         3.997000188549813E-140
   32.5850000000000         6.578455272733617E-140
   32.7750000000000         1.046570917878906E-139
   32.9650000000000         1.598681030935505E-139
   33.1550000000000         2.317607405793121E-139
   33.3450000000000         3.118822533360205E-139
   33.5350000000000         3.708387176938112E-139
   33.7250000000000         3.346415710173874E-139
   33.9150000000000         4.075272392510374E-140
   34.1050000000000        -8.405192024383097E-139
   34.2950000000000        -2.941944795057055E-138
   34.4850000000000        -7.427249423026698E-138
   34.6750000000000        -1.636180873315271E-137
   34.8650000000000        -3.329741720731150E-137
   35.0550000000000        -6.416467974429497E-137
   35.2450000000000        -1.185840141279009E-136
   35.4350000000000        -2.117029088849707E-136
   35.6250000000000        -3.666095697397539E-136
   35.8150000000000        -6.171959127203302E-136
   36.0050000000000        -1.010923193560278E-135
   36.1950000000000        -1.610058714435749E-135
   36.3850000000000        -2.488209369147654E-135
   36.5750000000000        -3.715701916762835E-135
   36.7650000000000        -5.321416668722875E-135
   36.9550000000000        -7.208212717315332E-135
   37.1450000000000        -8.981126896355961E-135
   37.3350000000000        -9.617511470688487E-135
   37.5250000000000        -6.859408594250290E-135
   37.7150000000000         3.868812835774062E-135
   37.9050000000000         3.133264826240731E-134
   38.0950000000000         9.163765921022383E-134
   38.2850000000000         2.133855209002526E-133
   38.4750000000000         4.458683802256116E-133
   38.6650000000000         8.716659118939745E-133
   38.8550000000000         1.625249520032212E-132
   39.0450000000000         2.919061415115057E-132
   39.2350000000000         5.077423528622700E-132
   39.4250000000000         8.575378859603286E-132
   39.6150000000000         1.407204701140221E-131
   39.8050000000000         2.241258039751880E-131
   39.9950000000000         3.454317559830586E-131
   40.1850000000000         5.123003936258612E-131
   40.3750000000000         7.238094742739813E-131
   40.5650000000000         9.561602566710376E-131
   40.7550000000000         1.134949621742046E-130
   40.9450000000000         1.084488884594666E-130
   41.1350000000000         4.395775623243157E-131
   41.3250000000000        -1.501488627920440E-130
   41.5150000000000        -6.011550262422321E-130
   41.7050000000000        -1.529256889445163E-129
   41.8950000000000        -3.299430608406241E-129
   42.0850000000000        -6.491850922465933E-129
   42.2750000000000        -1.198901042119076E-128
   42.4650000000000        -2.106740191563113E-128
   42.6550000000000        -3.546068655243719E-128
   42.8450000000000        -5.732243818832956E-128
   43.0350000000000        -8.894931614505785E-128
   43.2250000000000        -1.320156507650479E-127
   43.4150000000000        -1.859004558161342E-127
   43.6050000000000        -2.444395219708731E-127
   43.7950000000000        -2.900956189515990E-127
   43.9850000000000        -2.841142935720346E-127
   44.1750000000000        -1.507683867092004E-127
   44.3650000000000         2.465802733112634E-127
   44.5550000000000         1.139885956167176E-126
   44.7450000000000         2.902715929236573E-126
   44.9350000000000         6.107260935406109E-126
   45.1250000000000         1.158513544478618E-125
   45.3150000000000         2.047405400261737E-125
   45.5050000000000         3.421327430521446E-125
   45.6950000000000         5.441943006328171E-125
   45.8850000000000         8.252648891552212E-125
   46.0750000000000         1.190045809468842E-124
   46.2650000000000         1.618796098870543E-124
   46.4550000000000         2.041610449456832E-124
   46.6450000000000         2.296615719081629E-124
   46.8350000000000         2.065906928444422E-124
   47.0250000000000         7.828770880287115E-125
   47.2150000000000        -2.493605910312172E-124
   47.4050000000000        -9.237134059376926E-124
   47.5950000000000        -2.163060760748411E-123
   47.7850000000000        -4.272610827798885E-123
   47.9750000000000        -7.651341777372264E-123
   48.1650000000000        -1.277621124307757E-122
   48.3550000000000        -2.014124705992322E-122
   48.5450000000000        -3.011662058967650E-122
   48.7350000000000        -4.267682606640169E-122
   48.9250000000000        -5.692844983928831E-122
   49.1150000000000        -7.034945753118768E-122
   49.3050000000000        -7.763929664230882E-122
   49.4950000000000        -6.908303259615620E-122
   49.6850000000000        -2.837072598152465E-122
   49.8750000000000         7.008791058563987E-122
   50.0650000000000         2.641156533551391E-121
   50.2550000000000         6.064010021183904E-121
   50.4450000000000         1.165666865474947E-120
   50.6350000000000         2.024389085834689E-120
   50.8250000000000         3.269899277848816E-120
   51.0150000000000         4.974160174811113E-120
   51.2050000000000         7.155638893868954E-120
   51.3950000000000         9.714716141137444E-120
   51.5850000000000         1.233238535565519E-119
   51.7750000000000         1.432140434225773E-119
   51.9650000000000         1.442086702071883E-119
   52.1550000000000         1.053135192457986E-119
   52.3450000000000        -5.987985071398077E-121
   52.5350000000000        -2.370116390669364E-119
   52.7250000000000        -6.525410771288216E-119
   52.9150000000000        -1.335535636162157E-118
   53.1050000000000        -2.383668379039143E-118
   53.2950000000000        -3.898350883466570E-118
   53.4850000000000        -5.961510737363449E-118
   53.6750000000000        -8.593849483287451E-118
   53.8650000000000        -1.168687596444745E-117
   54.0550000000000        -1.490015381749809E-117
   54.2450000000000        -1.751570103319933E-117
   54.4350000000000        -1.824451715783220E-117
   54.6250000000000        -1.498746396692098E-117
   54.8150000000000        -4.566399756556964E-118
   55.0050000000000         1.753572825593926E-117
   55.1950000000000         5.735219711876253E-117
   55.3850000000000         1.224037028989725E-116
   55.5750000000000         2.212732506781352E-116
   55.7650000000000         3.625116714997617E-116
   55.9550000000000         5.525065583359476E-116
   56.1450000000000         7.918542074710062E-116
   56.3350000000000         1.069704954221357E-115
   56.5250000000000         1.355545427767435E-115
   56.7150000000000         1.587994999088129E-115
   56.9050000000000         1.660510545931527E-115
   57.0950000000000         1.404522738878739E-115
   57.2850000000000         5.716026175397986E-116
   57.4750000000000        -1.182069891487250E-115
   57.6650000000000        -4.303245971293517E-115
   57.8550000000000        -9.332195509540817E-115
   58.0450000000000        -1.686324568730382E-114
   58.2350000000000        -2.745734763717348E-114
   58.4250000000000        -4.148370989760766E-114
   58.6150000000000        -5.886322650597932E-114
   58.8050000000000        -7.868443210043277E-114
   58.9950000000000        -9.866547788210150E-114
   59.1850000000000        -1.144466291096238E-113
   59.3750000000000        -1.187217022493374E-113
   59.5650000000000        -1.002595168089670E-113
   59.7550000000000        -4.293455272072993E-114
   59.9450000000000         7.501350014713711E-114
   60.1350000000000         2.811329195216111E-113
   60.3250000000000         6.077880157767440E-113
   60.5150000000000         1.089307951786185E-112
   60.7050000000000         1.756264038843160E-112
   60.8950000000000         2.625655262054874E-112
   61.0850000000000         3.685620455921008E-112
   61.2750000000000         4.873290097644161E-112
   61.4650000000000         6.044671575836221E-112
   61.6550000000000         6.936207546435836E-112
   61.8450000000000         7.119086744113046E-112
   62.0350000000000         5.949794439223736E-112
   62.2250000000000         2.524065152620500E-112
   62.4150000000000        -4.353372099525124E-112
   62.6050000000000        -1.616388610577689E-111
   62.7950000000000        -3.460676618166102E-111
   62.9850000000000        -6.142952039497001E-111
   63.1750000000000        -9.810775022735112E-111
   63.3650000000000        -1.453163172368383E-110
   63.5550000000000        -2.021283113869942E-110
   63.7450000000000        -2.648817422468827E-110
   63.9350000000000        -3.256721885187824E-110
   64.1250000000000        -3.704712158405756E-110
   64.3150000000000        -3.769456279909577E-110
   64.5050000000000        -3.121736066254178E-110
   64.6950000000000        -1.306331078304295E-110
   64.8850000000000         2.269134433436499E-110
   65.0750000000000         8.326900461999161E-110
   65.2650000000000         1.767990173564223E-109
   65.4550000000000         3.114283650420501E-109
   65.6450000000000         4.937113407638630E-109
   65.8350000000000         7.260189756578901E-109
   66.0250000000000         1.002695939540009E-108
   66.2150000000000         1.304723139929933E-108
   66.4050000000000         1.592746906652044E-108
   66.5950000000000         1.798547491401647E-108
   66.7850000000000         1.815385384221789E-108
   66.9750000000000         1.488233363089585E-108
   67.1650000000000         6.057239785265002E-109
   67.3550000000000        -1.103246360542213E-108
   67.5450000000000        -3.963904907156451E-108
   67.7350000000000        -8.334962240483427E-108
   67.9250000000000        -1.456512582319279E-107
   68.1150000000000        -2.291726984375426E-107
   68.3050000000000        -3.344962700846895E-107
   68.4950000000000        -4.584342100765566E-107
   68.6850000000000        -5.916851925483559E-107
   68.8750000000000        -7.158417287718441E-107
   69.0650000000000        -7.998223763098029E-107
   69.2550000000000        -7.959717268072698E-107
   69.4450000000000        -6.363238798902739E-107
   69.6350000000000        -2.298769809441367E-107
   69.8250000000000         5.378146341181843E-107
   70.0150000000000         1.800864861363748E-106
   70.2050000000000         3.702602854726160E-106
   70.3950000000000         6.375320527506541E-106
   70.5850000000000         9.906591424693851E-106
   70.7750000000000         1.428833583380894E-105
   70.9650000000000         1.934519526798276E-105
   71.1550000000000         2.464011905290255E-105
   71.3450000000000         2.935781696249582E-105
   71.5350000000000         3.217142940680844E-105
   71.7250000000000         3.110497261603480E-105
   71.9150000000000         2.341433256737403E-105
   72.1050000000000         5.523109555231847E-106
   72.2950000000000        -2.693364924031530E-105
   72.4850000000000        -7.888563864814376E-105
   72.6750000000000        -1.553314717184519E-104
   72.8650000000000        -2.604618529959987E-104
   73.0550000000000        -3.962835567182313E-104
   73.2450000000000        -5.606321245582853E-104
   73.4350000000000        -7.444926108969257E-104
   73.6250000000000        -9.286169275841704E-104
   73.8150000000000        -1.079547851550339E-103
   74.0050000000000        -1.145348725728656E-103
   74.1950000000000        -1.051607846367636E-103
   74.3850000000000        -6.986457398140697E-104
   74.5750000000000         3.870030834326993E-105
   74.7650000000000         1.306826858600266E-103
   74.9550000000000         3.262228216424399E-103
   75.1450000000000         6.050578887452164E-103
   75.3350000000000         9.772857029989592E-103
   75.5250000000000         1.443542264883038E-102
   75.7150000000000         1.988167401844417E-102
   75.9050000000000         2.570453606625349E-102
   76.0950000000000         3.114193034461634E-102
   76.2850000000000         3.496189369329515E-102
   76.4750000000000         3.535046225428990E-102
   76.6650000000000         2.982399825592517E-102
   76.8550000000000         1.519823615928722E-102
   77.0450000000000        -1.234151888454853E-102
   77.2350000000000        -5.701197250086823E-102
   77.4250000000000        -1.229769072287497E-101
   77.6150000000000        -2.135905177922890E-101
   77.8050000000000        -3.302652673953589E-101
   77.9950000000000        -4.709057039513812E-101
   78.1850000000000        -6.278850654053857E-101
   78.3750000000000        -7.856043691061681E-101
   78.5650000000000        -9.177713487930213E-101
   78.7550000000000        -9.846752396463890E-101
   78.9450000000000        -9.309162201707617E-101
   79.1350000000000        -6.842730905404288E-101
   79.3250000000000        -1.566487841564626E-101
   79.5150000000000         7.517022772390733E-101
   79.7050000000000         2.143227028648932E-100
   79.8950000000000         4.107823896824304E-100
   80.0850000000000         6.699732192746826E-100
   80.2750000000000         9.905301206233937E-100
   80.4650000000000         1.360107542182302E-099
   80.6550000000000         1.750286193677771E-099
   80.8450000000000         2.110834330895378E-099
   81.0350000000000         2.363847180007764E-099
   81.2250000000000         2.398637836451070E-099
   81.4150000000000         2.068679768198192E-099
   81.6050000000000         1.192383765833623E-099
   81.7950000000000        -4.400122149868596E-100
   81.9850000000000        -3.050724652148272E-099
   82.1750000000000        -6.846888173441896E-099
   82.3650000000000        -1.197824472837371E-098
   82.5550000000000        -1.847762076483384E-098
   82.7450000000000        -2.618297240460673E-098
   82.9350000000000        -3.464192293517797E-098
   83.1250000000000        -4.300300815696319E-098
   83.3150000000000        -4.990245549151653E-098
   83.5050000000000        -5.336132228209193E-098
   83.6950000000000        -5.071510500394188E-098
   83.8850000000000        -3.860614518620572E-098
   84.0750000000000        -1.307759094853755E-098
   84.2650000000000         3.018482684910710E-098
   84.4550000000000         9.541205266728319E-098
   84.6450000000000         1.860608072083041E-097
   84.8350000000000         3.038289524574897E-097
   85.0250000000000         4.473520630844524E-097
   85.2150000000000         6.105890607065331E-097
   85.4050000000000         7.809554055333562E-097
   85.5950000000000         9.373333052668847E-097
   85.7850000000000         1.048180789857510E-096
   85.9750000000000         1.070073912305505E-096
   86.1650000000000         9.471437052298970E-097
   86.3550000000000         6.120018445421992E-097
   86.5450000000000        -1.112996450056111E-098
   86.7350000000000        -1.000285536377249E-096
   86.9250000000000        -2.425793120762948E-096
   87.1150000000000        -4.335751086162367E-096
   87.3050000000000        -6.736439466740112E-096
   87.4950000000000        -9.567601973050574E-096
   87.6850000000000        -1.267321619175293E-095
   87.8750000000000        -1.576933977341830E-095
   88.0650000000000        -1.841189851535020E-095
   88.2550000000000        -1.996885885931202E-095
   88.4450000000000        -1.960304765423131E-095
   88.6350000000000        -1.627382986815352E-095
   88.8250000000000        -8.767736274631865E-096
   89.0150000000000         4.230338351749833E-096
   89.2050000000000         2.401295901617893E-095
   89.3950000000000         5.166103634586043E-095
   89.5850000000000         8.778008394199043E-095
   89.7750000000000         1.321569020099142E-094
   89.9650000000000         1.833396355766515E-094
   90.1550000000000         2.381558122951699E-094
   90.3450000000000         2.911988366492914E-094
   90.5350000000000         3.343336554772489E-094
   90.7250000000000         3.562965951053698E-094
   90.9150000000000         3.424917175399073E-094
   91.1050000000000         2.751145867653326E-094
   91.2950000000000         1.337611168592969E-094
   91.4850000000000        -1.033000529739927E-094
   91.6750000000000        -4.570041091766305E-094
   91.8650000000000        -9.443376816068648E-094
   92.0550000000000        -1.574016608221835E-093
   92.2450000000000        -2.340926587597792E-093
   92.4350000000000        -3.219379719129193E-093
   92.6250000000000        -4.155416104964592E-093
   92.8150000000000        -5.058619151833077E-093
   93.0050000000000        -5.794219530560751E-093
   93.1950000000000        -6.176633299797180E-093
   93.3850000000000        -5.966002763269974E-093
   93.5750000000000        -4.869760058728568E-093
   93.7650000000000        -2.551673050539453E-093
   93.9550000000000         1.348799140990787E-093
   94.1450000000000         7.183800646134518E-093
   94.3350000000000         1.524803302029329E-092
   94.5250000000000         2.571082541998547E-092
   94.7150000000000         3.852777734492098E-092
   94.9050000000000         5.333215714201116E-092
   95.0950000000000         6.930886863251112E-092
   95.2850000000000         8.505748888431613E-092
   95.4750000000000         9.845574432780763E-092
   95.6650000000000         1.065408546338738E-091
   95.8550000000000         1.054333189174907E-091
   96.0450000000000         9.033562867753730E-092
   96.2350000000000         5.564647243233851E-092
   96.4250000000000        -4.761698796702739E-093
   96.6150000000000        -9.704872213700434E-092
   96.8050000000000        -2.266422221453655E-091
   96.9950000000000        -3.971536253740193E-091
   97.1850000000000        -6.089402186609885E-091
   97.3750000000000        -8.573056833389964E-091
   97.5650000000000        -1.130374232696961E-090
   97.7550000000000        -1.406735070319588E-090
   97.9450000000000        -1.653036666987615E-090
   98.1350000000000        -1.821815038085928E-090
   98.3250000000000        -1.849964938842040E-090
   98.5150000000000        -1.658402074265851E-090
   98.7050000000000        -1.153607354462397E-090
   98.8950000000000        -2.318737776474113E-091
   99.0850000000000         1.212832113408517E-090
   99.2750000000000         3.276462387194110E-090
   99.4650000000000         6.027095211916192E-090
   99.6550000000000         9.481175798748144E-090
   99.8450000000000         1.357368252916337E-089
   100.035000000000         1.812285518667204E-089
   100.225000000000         2.279118592206463E-089
   100.415000000000         2.704578477217744E-089
   100.605000000000         3.012298748557104E-089
   100.795000000000         3.100412289068800E-089
   100.985000000000         2.841158138460350E-089
   101.175000000000         2.083651924389149E-089
   101.365000000000         6.611383460454561E-090
   101.555000000000        -1.595848266727863E-089
   101.745000000000        -4.839014708853445E-089
   101.935000000000        -9.173355608008450E-089
   102.125000000000        -1.461904089282737E-088
   102.315000000000        -2.106432132829662E-088
   102.505000000000        -2.821090469756565E-088
   102.695000000000        -3.551500357662271E-088
   102.885000000000        -4.212949009058654E-088
   103.075000000000        -4.685526817450615E-088
   103.265000000000        -4.811296203805668E-088
   103.455000000000        -4.394908583095579E-088
   103.645000000000        -3.209363845019878E-088
   103.835000000000        -1.008804545495953E-088
   104.025000000000         2.449712104500618E-088
   104.215000000000         7.373698589569861E-088
   104.405000000000         1.389070929095687E-087
   104.595000000000         2.199144569337182E-087
   104.785000000000         3.146155921513504E-087
   104.975000000000         4.180520947408611E-087
   105.165000000000         5.216602937352767E-087
   105.355000000000         6.125430385831610E-087
   105.545000000000         6.729275595267602E-087
   105.735000000000         6.799710094411247E-087
   105.925000000000         6.061108027072474E-087
   106.115000000000         4.201845790884288E-087
   106.305000000000         8.955717613932451E-088
   106.495000000000        -4.165195895090761E-087
   106.685000000000        -1.122134477364761E-086
   106.875000000000        -2.038442915797634E-086
   107.065000000000        -3.155949142391060E-086
   107.255000000000        -4.435611419987042E-086
   107.445000000000        -5.799313797529359E-086
   107.635000000000        -7.120588244270691E-086
   107.825000000000        -8.216862755453039E-086
   108.015000000000        -8.844929315632571E-086
   108.205000000000        -8.701730485239285E-086
   108.395000000000        -7.432897899986659E-086
   108.585000000000        -4.651665418056254E-086
   108.775000000000         2.926735468364158E-088
   108.965000000000         6.950733170312373E-086
   109.155000000000         1.634360749544079E-085
   109.345000000000         2.824887619983748E-085
   109.535000000000         4.242334040587671E-085
   109.725000000000         5.823575745260205E-085
   109.915000000000         7.456160041404645E-085
   110.105000000000         8.968855578754847E-085