  -1.42500000000000         0.000000000000000E+000
  -1.23500000000000         0.000000000000000E+000
  -1.04500000000000         0.000000000000000E+000
 -0.855000000000000         0.000000000000000E+000
 -0.665000000000000         0.000000000000000E+000
 -0.475000000000000         0.000000000000000E+000
 -0.285000000000000         0.000000000000000E+000
 -9.499999999999975E-002    0.000000000000000E+000
  9.500000000000020E-002    0.000000000000000E+000
  0.285000000000000         0.000000000000000E+000
  0.475000000000000         0.000000000000000E+000
  0.665000000000000         0.000000000000000E+000
  0.855000000000000         0.000000000000000E+000
   1.04500000000000         0.000000000000000E+000
   1.23500000000000         0.000000000000000E+000
   1.42500000000000         0.000000000000000E+000
   1.61500000000000         0.000000000000000E+000
   1.80500000000000         0.000000000000000E+000
   1.99500000000000         0.000000000000000E+000
   2.18500000000000         0.000000000000000E+000
   2.37500000000000         0.000000000000000E+000
   2.56500000000000         0.000000000000000E+000
   2.75500000000000         0.000000000000000E+000
   2.94500000000000         0.000000000000000E+000
   3.13500000000000         0.000000000000000E+000
   3.32500000000000         0.000000000000000E+000
   3.51500000000000         0.000000000000000E+000
   3.70500000000000         0.000000000000000E+000
   3.89500000000000         0.000000000000000E+000
   4.08500000000000         0.000000000000000E+000
   4.27500000000000         0.000000000000000E+000
   4.46500000000000         0.000000000000000E+000
   4.65500000000000         0.000000000000000E+000
   4.84500000000000         0.000000000000000E+000
   5.03500000000000         0.000000000000000E+000
   5.22500000000000         0.000000000000000E+000
   5.41500000000000         0.000000000000000E+000
   5.60500000000000         0.000000000000000E+000
   5.79500000000000         0.000000000000000E+000
   5.98500000000000         0.000000000000000E+000
   6.17500000000000         0.000000000000000E+000
   6.36500000000000         0.000000000000000E+000
   6.55500000000000         0.000000000000000E+000
   6.74500000000000         0.000000000000000E+000
   6.93500000000000         0.000000000000000E+000
   7.12500000000000         0.000000000000000E+000
   7.31500000000000         0.000000000000000E+000
   7.50500000000000         0.000000000000000E+000
   7.69500000000000         0.000000000000000E+000
   7.88500000000000         0.000000000000000E+000
   8.07500000000000         0.000000000000000E+000
   8.26500000000000         0.000000000000000E+000
   8.45500000000000         0.000000000000000E+000
   8.64500000000000         1.032550657680288E-232
   8.83500000000000         6.974345189714192E-221
   9.02500000000000         2.493756938099466E-209
   9.21500000000000         1.633030638512479E-206
   9.40500000000000        -9.383949401229807E-205
   9.59500000000000        -1.574067675846305E-202
   9.78500000000000        -8.444815684905187E-201
   9.97500000000000        -2.790455488500754E-199
   10.1650000000000        -6.678007004356503E-198
   10.3550000000000        -1.245543007021527E-196
   10.5450000000000        -1.882330216727932E-195
   10.7350000000000        -2.348738320139592E-194
   10.9250000000000        -2.420921247324351E-193
   11.1150000000000        -2.001295283708155E-192
   11.3050000000000        -1.174741541842099E-191
   11.4950000000000        -1.675581123473948E-191
   11.6850000000000         7.577989611301090E-190
   11.8750000000000         1.406665694609613E-188
   12.0650000000000         1.704781261956568E-187
   12.2550000000000         1.689735535001261E-186
   12.4450000000000         1.464201581744708E-185
   12.6350000000000         1.143248254244292E-184
   12.8250000000000         8.180502719913855E-184
   13.0150000000000         5.422251119729091E-183
   13.2050000000000         3.353873215731717E-182
   13.3950000000000         1.946274597779866E-181
   13.5850000000000         1.063856756610214E-180
   13.7750000000000         5.493912496792571E-180
   13.9650000000000         2.686274130504269E-179
   14.1550000000000         1.245460571502063E-178
   14.3450000000000         5.479625521994289E-178
   14.5350000000000         2.287631884717624E-177
   14.7250000000000         9.051882993208498E-177
   14.9150000000000         3.385392421263119E-176
   15.1050000000000         1.190170738812517E-175
   15.2950000000000         3.891261555790120E-175
   15.4850000000000         1.157213187158020E-174
   15.6750000000000         2.966845433794806E-174
   15.8650000000000         5.461116306806764E-174
   16.0550000000000        -1.300632010414300E-174
   16.2450000000000        -8.415023405602193E-173
   16.4350000000000        -5.917426682875228E-172
   16.6250000000000        -3.147164356897448E-171
   16.8150000000000        -1.482177578505139E-170
   17.0050000000000        -6.507180494397239E-170
   17.1950000000000        -2.724567983550576E-169
   17.3850000000000        -1.100390916839808E-168
   17.5750000000000        -4.311477570487462E-168
   17.7650000000000        -1.643174354631363E-167
   17.9550000000000        -6.096981221948835E-167
   18.1450000000000        -2.202402377412764E-166
   18.3350000000000        -7.740708612870547E-166
   18.5250000000000        -2.644819061942710E-165
   18.7150000000000        -8.775874987431573E-165
   18.9050000000000        -2.824425999397972E-164
   19.0950000000000        -8.803687855826000E-164
   19.2850000000000        -2.652511941652339E-163
   19.4750000000000        -7.704965005251035E-163
   19.6650000000000        -2.149664665276177E-162
   19.8550000000000        -5.727649681771497E-162
   20.0450000000000        -1.443992144455988E-161
   20.2350000000000        -3.388512576306832E-161
   20.4250000000000        -7.159374767292006E-161
   20.6150000000000        -1.250966717854812E-160
   20.8050000000000        -1.238729501292120E-160
   20.9950000000000         2.894169421928372E-160
   21.1850000000000         2.484779523617467E-159
   21.3750000000000         1.105982659984748E-158
   21.5650000000000         4.017894575071378E-158
   21.7550000000000         1.307566333031960E-157
   21.9450000000000         3.947803935672193E-157
   22.1350000000000         1.124249695073368E-156
   22.3250000000000         3.045912348111249E-156
   22.5150000000000         7.885106314335084E-156
   22.7050000000000         1.953475652051016E-155
   22.8950000000000         4.627755842140186E-155
   23.0850000000000         1.044740682382712E-154
   23.2750000000000         2.231507580341835E-154
   23.4650000000000         4.447254489958707E-154
   23.6550000000000         8.035646701736040E-154
   23.8450000000000         1.225903644284904E-153
   24.0350000000000         1.196119439526684E-153
   24.2250000000000        -1.203728124585544E-153
   24.4150000000000        -1.181794187379326E-152
   24.6050000000000        -4.662141625795997E-152
   24.7950000000000        -1.461549827269088E-151
   24.9850000000000        -4.075119383675447E-151
   25.1750000000000        -1.052021249525284E-150
   25.3650000000000        -2.562043359071864E-150
   25.5550000000000        -5.944521824346160E-150
   25.7450000000000        -1.321274858220589E-149
   25.9350000000000        -2.821488111286104E-149
   26.1250000000000        -5.795439314748055E-149
   26.3150000000000        -1.144851908939345E-148
   26.5050000000000        -2.172077161501345E-148
   26.6950000000000        -3.947683233564680E-148
   26.8850000000000        -6.846315859163437E-148
   27.0750000000000        -1.127036737304038E-147
   27.2650000000000        -1.750359010782731E-147
   27.4550000000000        -2.553463545500098E-147
   27.6450000000000        -3.526002184445934E-147
   27.8350000000000        -4.856059764505466E-147
   28.0250000000000        -7.762448832744418E-147
   28.2150000000000        -1.708465096890905E-146
   28.4050000000000        -4.832895341606209E-146
   28.5950000000000        -1.451874048077749E-145
   28.7850000000000        -4.202049825283698E-145
   28.9750000000000        -1.143938271079046E-144
   29.1650000000000        -2.930732648209400E-144
   29.3550000000000        -7.107676679840661E-144
   29.5450000000000        -1.641305165685810E-143
   29.7350000000000        -3.625298571300998E-143
   29.9250000000000        -7.683522079326913E-143
   30.1150000000000        -1.565394972594688E-142
   30.3050000000000        -3.067208590601641E-142
   30.4950000000000        -5.774210426658650E-142
   30.6850000000000        -1.041446200612399E-141
   30.8750000000000        -1.789528805654759E-141
   31.0650000000000        -2.899237004242859E-141
   31.2550000000000        -4.340509906473274E-141
   31.4450000000000        -5.744147907868746E-141
   31.6350000000000        -5.895959267615766E-141
   31.8250000000000        -1.715133097428587E-141
   32.0150000000000         1.368322721451375E-140
   32.2050000000000         5.446127571411236E-140
   32.3950000000000         1.479486672574950E-139
   32.5850000000000         3.440500306846976E-139
   32.7750000000000         7.292233354753913E-139
   32.9650000000000         1.445282212122982E-138
   33.1550000000000         2.710756716162427E-138
   33.3450000000000         4.836556083117324E-138
   33.5350000000000         8.215234860674030E-138
   33.7250000000000         1.323954967054489E-137
   33.9150000000000         2.006428784458075E-137
   34.1050000000000         2.805639954535630E-137
   34.2950000000000         3.467204915418989E-137
   34.4850000000000         3.334783868430941E-137
   34.6750000000000         9.801417401892458E-138
   34.8650000000000        -6.406164128572598E-137
   35.0550000000000        -2.395439637035468E-136
   35.2450000000000        -6.045577620236426E-136
   35.4350000000000        -1.300776360892841E-135
   35.6250000000000        -2.541779138738707E-135
   35.8150000000000        -4.624043321588539E-135
   36.0050000000000        -7.912225922194443E-135
   36.1950000000000        -1.276159056403940E-134
   36.3850000000000        -1.930935938339223E-134
   36.5750000000000        -2.701798436333062E-134
   36.7650000000000        -3.378172996631381E-134
   36.9550000000000        -3.431117426174455E-134
   37.1450000000000        -1.739409135373507E-134
   37.3350000000000         3.848017257743505E-134
   37.5250000000000         1.716923620098634E-133
   37.7150000000000         4.466788558027715E-133
   37.9050000000000         9.655896056742890E-133
   38.0950000000000         1.880906571696838E-132
   38.2850000000000         3.404697599032595E-132
   38.4750000000000         5.804974053019186E-132
   38.6650000000000         9.370687502310752E-132
   38.8550000000000         1.431253277434856E-131
   39.0450000000000         2.054501115325742E-131
   39.2350000000000         2.726454159882476E-131
   39.4250000000000         3.219858753470212E-131
   39.6150000000000         3.035507672136788E-131
   39.8050000000000         1.206019499468758E-131
   39.9950000000000        -3.994087453389073E-131
   40.1850000000000        -1.544868869948568E-130
   40.3750000000000        -3.770646091948661E-130
   40.5650000000000        -7.754053320266081E-130
   40.7550000000000        -1.444129679920573E-129
   40.9450000000000        -2.505259308765624E-129
   41.1350000000000        -4.098618500633620E-129
   41.3250000000000        -6.351837321183878E-129
   41.5150000000000        -9.313438300537894E-129
   41.7050000000000        -1.282412149596024E-128
   41.8950000000000        -1.629114184173762E-128
   42.0850000000000        -1.831992877068150E-128
   42.2750000000000        -1.614906910294691E-128
   42.4650000000000        -4.835868021974211E-129
   42.6550000000000         2.383878073422002E-128
   42.8450000000000         8.271720973960757E-128
   43.0350000000000         1.907077268251183E-127
   43.2250000000000         3.739352726098250E-127
   43.4150000000000         6.658232732276669E-127
   43.6050000000000         1.104725123719139E-126
   43.7950000000000         1.726843605995624E-126
   43.9850000000000         2.550983250595498E-126
   44.1750000000000         3.550195476463324E-126
   44.3650000000000         4.603742763432418E-126
   44.5550000000000         5.421388476908856E-126
   44.7450000000000         5.431532325951773E-126
   44.9350000000000         3.626415390484962E-126
   45.1250000000000        -1.636472679226619E-126
   45.3150000000000        -1.286454159509317E-125
   45.5050000000000        -3.365509761884653E-125
   45.6950000000000        -6.883735607720358E-125
   45.8850000000000        -1.243897192083822E-124
   46.0750000000000        -2.068979158980921E-124
   46.2650000000000        -3.221944509971982E-124
   46.4550000000000        -4.726641627913537E-124
   46.6450000000000        -6.525279911184052E-124
   46.8350000000000        -8.402606744684550E-124
   47.0250000000000        -9.872229005885957E-124
   47.2150000000000        -1.001705550607019E-123
   47.4050000000000        -7.280672582354620E-124
   47.5950000000000         7.825008933177040E-125
   47.7850000000000         1.776977310779298E-123
   47.9750000000000         4.864239030342065E-123
   48.1650000000000         9.977110812263105E-123
   48.3550000000000         1.786225007917510E-122
   48.5450000000000         2.927914698007275E-122
   48.7350000000000         4.479600988395094E-122
   48.9250000000000         6.442253123309452E-122
   49.1150000000000         8.701135366021809E-122
   49.3050000000000         1.093538161736820E-121
   49.4950000000000         1.249035575341008E-121
   49.6850000000000         1.220960616454619E-121
   49.8750000000000         8.231060720278979E-122
   50.0650000000000        -2.233388598509251E-122
   50.2550000000000        -2.309185321702096E-121
   50.4450000000000        -5.946067501270720E-121
   50.6350000000000        -1.175165704638013E-120
   50.8250000000000        -2.039155102819916E-120
   51.0150000000000        -3.245008010802136E-120
   51.2050000000000        -4.819370450299212E-120
   51.3950000000000        -6.718327555733164E-120
   51.5850000000000        -8.768833243551057E-120
   51.7750000000000        -1.058627175032513E-119
   51.9650000000000        -1.146633904018755E-119
   52.1550000000000        -1.025432897244516E-119
   52.3450000000000        -5.203687260985298E-120
   52.5350000000000         6.150226944401761E-120
   52.7250000000000         2.705446842327933E-119
   52.9150000000000         6.146579335206769E-119
   53.1050000000000         1.137297628833747E-118
   53.2950000000000         1.878589849606279E-118
   53.4850000000000         2.862161517274118E-118
   53.6750000000000         4.073761214364050E-118
   53.8650000000000         5.429374785508567E-118
   54.0550000000000         6.731040358745492E-118
   54.2450000000000         7.609972794951211E-118
   54.4350000000000         7.459390886404286E-118
   54.6250000000000         5.364158330121779E-118
   54.8150000000000         4.157743527359916E-120
   55.0050000000000        -1.018211879878483E-117
   55.1950000000000        -2.732169724434352E-117
   55.3850000000000        -5.355543483387810E-117
   55.5750000000000        -9.084936073969885E-117
   55.7650000000000        -1.402975981952172E-116
   55.9550000000000        -2.010862094615532E-116
   56.1450000000000        -2.689974221635996E-116
   56.3350000000000        -3.344091868658160E-116
   56.5250000000000        -3.798274810093195E-116
   56.7150000000000        -3.771343470030854E-116
   56.9050000000000        -2.849628819410192E-116
   57.0950000000000        -4.693755657762936E-117
   57.2850000000000         4.080495604939536E-116
   57.4750000000000         1.161833289004954E-115
   57.6650000000000         2.296982984600938E-115
   57.8550000000000         3.878062410550577E-115
   58.0450000000000         5.921113861630160E-115
   58.2350000000000         8.348577037235753E-115
   58.4250000000000         1.092797412508353E-114
   58.6150000000000         1.319518062137461E-114
   58.8050000000000         1.436752158152938E-114
   58.9950000000000         1.325885994775528E-114
   59.1850000000000         8.218727576581758E-115
   59.3750000000000        -2.869502279226077E-115
   59.5650000000000        -2.248094742363224E-114
   59.7550000000000        -5.316529330483853E-114
   59.9450000000000        -9.700597558391425E-114
   60.1350000000000        -1.547358742792070E-113
   60.3250000000000        -2.244331205040458E-113
   60.5150000000000        -2.997582370463723E-113
   60.7050000000000        -3.677730013806827E-113
   60.8950000000000        -4.065180392684337E-113
   61.0850000000000        -3.827354973393469E-113
   61.2750000000000        -2.504155101839183E-113
   61.4650000000000         4.878086644518393E-114
   61.6550000000000         5.817368696160588E-113
   61.8450000000000         1.414813312451783E-112
   62.0350000000000         2.597248770845935E-112
   62.2250000000000         4.134717799307886E-112
   62.4150000000000         5.951200582156292E-112
   62.6050000000000         7.838627582193726E-112
   62.7950000000000         9.396318198774895E-112
   62.9850000000000         9.966461475263744E-112
   63.1750000000000         8.578169905059766E-112
   63.3650000000000         3.921173665126472E-112
   63.5550000000000        -5.619170579039531E-112
   63.7450000000000        -2.182204595875370E-111
   63.9350000000000        -4.633178840843356E-111
   64.1250000000000        -8.013686727488297E-111
   64.3150000000000        -1.227667083165588E-110
   64.5050000000000        -1.711633966498186E-110
   64.6950000000000        -2.182280548279111E-110
   64.8850000000000        -2.511204424440593E-110
   65.0750000000000        -2.495162410150318E-110
   65.2650000000000        -1.842087721027433E-110
   65.4550000000000        -1.668397284818325E-111
   65.6450000000000         2.994085843858924E-110
   65.8350000000000         8.136466595597719E-110
   66.0250000000000         1.569556449314774E-109
   66.2150000000000         2.588963754474796E-109
   66.4050000000000         3.848368058509821E-109
   66.5950000000000         5.246278946016174E-109
   66.7850000000000         6.561698523723392E-109
   66.9750000000000         7.406156278177096E-109
   67.1650000000000         7.175187243074956E-109
   67.3550000000000         5.010113072711644E-109
   67.5450000000000        -2.124981494165358E-110
   67.7350000000000        -9.838491178915550E-109
   67.9250000000000        -2.530728642374038E-108
   68.1150000000000        -4.789536152598552E-108
   68.3050000000000        -7.828651961401758E-108
   68.4950000000000        -1.159258268695801E-107
   68.6850000000000        -1.581281083645723E-107
   68.8750000000000        -1.989435503507878E-107
   69.0650000000000        -2.278391913008034E-107
   69.2550000000000        -2.283428311265204E-107
   69.4450000000000        -1.769206063094503E-107
   69.6350000000000        -4.252282514857251E-108
   69.8250000000000         2.125707863620462E-107
   70.0150000000000         6.297622532501582E-107
   70.2050000000000         1.247962386687253E-106
   70.3950000000000         2.093068304946868E-106
   70.5850000000000         3.161954285938768E-106
   70.7750000000000         4.400131128448422E-106
   70.9650000000000         5.672925104790303E-106
   71.1550000000000         6.731287117303775E-106
   71.3450000000000         7.175328543156957E-106
   71.5350000000000         6.421526170890997E-106
   71.7250000000000         3.683300266588706E-106
   71.9150000000000        -2.020744204136812E-106
   72.1050000000000        -1.181154067559089E-105
   72.2950000000000        -2.682296784025459E-105
   72.4850000000000        -4.797605495970749E-105
   72.6750000000000        -7.562549133485281E-105
   72.8650000000000        -1.090546577355280E-104
   73.0550000000000        -1.458083819898716E-104
   73.2450000000000        -1.808773189281524E-104
   73.4350000000000        -2.057878687086205E-104
   73.6250000000000        -2.077100463458432E-104
   73.8150000000000        -1.687745057237592E-104
   74.0050000000000        -6.588812909827524E-105
   74.1950000000000         1.285500623412960E-104
   74.3850000000000         4.445162079319817E-104
   74.5750000000000         9.101991085712079E-104
   74.7650000000000         1.545148070515680E-103
   74.9550000000000         2.350118191717415E-103
   75.1450000000000         3.293198051750162E-103
   75.3350000000000         4.292221775222036E-103
   75.5250000000000         5.194177826831471E-103
   75.7150000000000         5.753401076792661E-103
   75.9050000000000         5.611823480787194E-103
   76.0950000000000         4.286470590536750E-103
   76.2850000000000         1.171661711471054E-103
   76.4750000000000        -4.434173727833015E-103
   76.6650000000000        -1.326483936988667E-102
   76.8550000000000        -2.597200472482334E-102
   77.0450000000000        -4.294603228237962E-102
   77.2350000000000        -6.406010300968666E-102
   77.4250000000000        -8.833160757188170E-102
   77.6150000000000        -1.135057052484648E-101
   77.8050000000000        -1.355833935939506E-101
   77.9950000000000        -1.483416043973383E-101
   78.1850000000000        -1.429264045781956E-101
   78.3750000000000        -1.076419399892480E-101
   78.5650000000000        -2.810524877733452E-102
   78.7550000000000         1.120139775071164E-101
   78.9450000000000         3.294068362918200E-101
   79.1350000000000         6.384049688226666E-101
   79.3250000000000         1.046848389789884E-100
   79.5150000000000         1.550325975324166E-100
   79.7050000000000         2.124714524824571E-100
   79.8950000000000         2.717188668009189E-100
   80.0850000000000         3.236250805934729E-100
   80.2750000000000         3.541857345736763E-100
   80.4650000000000         3.437401267047681E-100
   80.6550000000000         2.666135707217836E-100
   80.8450000000000         9.155390996673867E-101
   81.0350000000000        -2.165966996707769E-100
   81.2250000000000        -6.934787273667816E-100
   81.4150000000000        -1.369488957691278E-099
   81.6050000000000        -2.261232522865468E-099
   81.7950000000000        -3.359776100094926E-099
   81.9850000000000        -4.615618163048263E-099
   82.1750000000000        -5.920783665067945E-099
   82.3650000000000        -7.089183332535843E-099
   82.5550000000000        -7.837381763860960E-099
   82.7450000000000        -7.769197844201800E-099
   82.9350000000000        -6.369077396289580E-099
   83.1250000000000        -3.010831390422215E-099
   83.3150000000000         3.010060093559823E-099
   83.5050000000000         1.241110568761541E-098
   83.6950000000000         2.581442190151382E-098
   83.8850000000000         4.358606879945142E-098
   84.0750000000000         6.561655747276204E-098
   84.2650000000000         9.104137984132204E-098
   84.4550000000000         1.179092767234544E-097
   84.6450000000000         1.428189871851473E-097
   84.8350000000000         1.605628600020521E-097
   85.0250000000000         1.638379483848078E-097
   85.2150000000000         1.431113160262439E-097
   85.4050000000000         8.675447649821989E-098
   85.5950000000000        -1.841099330688266E-098
   85.7850000000000        -1.859934501463074E-097
   85.9750000000000        -4.281651679815083E-097
   86.1650000000000        -7.528919102720893E-097
   86.3550000000000        -1.160145294128041E-096
   86.5450000000000        -1.637075178877440E-096
   86.7350000000000        -2.152266048891625E-096
   86.9250000000000        -2.649415560182069E-096
   87.1150000000000        -3.041061783201141E-096
   87.3050000000000        -3.203347479564865E-096
   87.4950000000000        -2.973232679970852E-096
   87.6850000000000        -2.150022158574020E-096
   87.8750000000000        -5.035119129163827E-097
   88.0650000000000         2.208597973894101E-096
   88.2550000000000         6.211233818546477E-096
   88.4450000000000         1.166782618971103E-095
   88.6350000000000         1.861963504793937E-095
   88.8250000000000         2.690800272812320E-095
   89.0150000000000         3.608126573438025E-095
   89.2050000000000         4.529133700040034E-095
   89.3950000000000         5.318937942539541E-095
   89.5850000000000         5.783551543496747E-095
   89.7750000000000         5.664396966159783E-095
   89.9650000000000         4.639199435877678E-095
   90.1550000000000         2.332763776965096E-095
   90.3450000000000        -1.658323735456183E-095
   90.5350000000000        -7.722784236365956E-095
   90.7250000000000        -1.616948752409812E-094
   90.9150000000000        -2.713697991127807E-094
   91.1050000000000        -4.047659456250230E-094
   91.2950000000000        -5.561125500188468E-094
   91.4850000000000        -7.137677814213915E-094
   91.6750000000000        -8.585879849771082E-094
   91.8650000000000        -9.624635128543498E-094
   92.0550000000000        -9.873240907215771E-094
   92.2450000000000        -8.850167017432936E-094
   92.4350000000000        -5.985562220254988E-094
   92.6250000000000        -6.532809244508554E-095
   92.8150000000000         7.771380085651552E-094
   93.0050000000000         1.982231220015651E-093
   93.1950000000000         3.581692197775770E-093
   93.3850000000000         5.569207481236435E-093
   93.5750000000000         7.880386047058984E-093
   93.7650000000000         1.036996699263992E-092
   93.9550000000000         1.278795431006788E-092
   94.1450000000000         1.475743821614326E-092
   94.3350000000000         1.575810892427861E-092
   94.5250000000000         1.512082116465114E-092
   94.7150000000000         1.203989388233754E-092
   94.9050000000000         5.610931095237675E-093
   95.0950000000000        -5.097444299876826E-093
   95.2850000000000        -2.092978638951941E-092
   95.4750000000000        -4.248127719817796E-092
   95.6650000000000        -6.988293797271112E-092
   95.8550000000000        -1.025364309603173E-091
   96.0450000000000        -1.388081376577898E-091
   96.2350000000000        -1.757028246864156E-091
   96.4250000000000        -2.085505859800034E-091
   96.6150000000000        -2.307564789957194E-091
   96.8050000000000        -2.336794271792290E-091
   96.9950000000000        -2.067239484275565E-091
   97.1850000000000        -1.377427083724809E-091
   97.3750000000000        -1.385654035473731E-092
   97.5650000000000         1.772026919206431E-091
   97.7550000000000         4.451370481779989E-091
   97.9450000000000         7.944620758427278E-091
   98.1350000000000         1.221229335962725E-090
   98.3250000000000         1.709191820936313E-090
   98.5150000000000         2.225636699349622E-090
   98.7050000000000         2.717267236444257E-090
   98.8950000000000         3.106701675921441E-090
   99.0850000000000         3.290361005299547E-090
   99.2750000000000         3.138722036674470E-090
   99.4650000000000         2.500090454672022E-090
   99.6550000000000         1.209164090313732E-090
   99.8450000000000        -8.983362679741155E-091
   100.035000000000        -3.963846955840281E-090
   100.225000000000        -8.076208866941112E-090
   100.415000000000        -1.323389858423896E-089
   100.605000000000        -1.930015323958478E-089
   100.795000000000        -2.595326056552832E-089
   100.985000000000        -3.263601771536795E-089
   101.175000000000        -3.851042192303562E-089
   101.365000000000        -4.242593693394626E-089
   101.555000000000        -4.291199635053554E-089
   101.745000000000        -3.820748075008709E-089
   101.935000000000        -2.634136042267242E-089
   102.125000000000        -5.279049598455824E-090
   102.315000000000         2.685229684912081E-089
   102.505000000000         7.144992200752961E-089
   102.695000000000         1.290299512084360E-088
   102.885000000000         1.987371467531599E-088
   103.075000000000         2.777907366309626E-088
   103.265000000000         3.609049419522460E-088
   103.455000000000         4.397442141296369E-088
   103.645000000000         5.024971487771943E-088
   103.835000000000         5.336777942590189E-088
   104.025000000000         5.142859274523149E-088
   104.215000000000         4.224751325048252E-088
   104.405000000000         2.348844885977109E-088
   104.595000000000        -7.121923829298268E-089
   104.785000000000        -5.148729893315991E-088
   104.975000000000        -1.107365853522410E-087
   105.165000000000        -1.847241492658093E-087
   105.355000000000        -2.714523230245309E-087
   105.545000000000        -3.664501891830366E-087
   105.735000000000        -4.621634790807088E-087
   105.925000000000        -5.474341001350068E-087
   106.115000000000        -6.071727583686995E-087
   106.305000000000        -6.223519536321298E-087
   106.495000000000        -5.704659351988700E-087
   106.685000000000        -4.266147013809578E-087
   106.875000000000        -1.653656344562590E-087
   107.065000000000         2.364769162274508E-087
   107.255000000000         7.961128621004158E-087
   107.445000000000         1.519997637570183E-086
   107.635000000000         2.398218928251008E-086
   107.825000000000         3.398268300332661E-086
   108.015000000000         4.458667477717901E-086
   108.205000000000         5.483129252531174E-086
   108.395000000000         6.336170541773932E-086
   108.585000000000         6.841329800504924E-086
   108.775000000000         6.783344402135940E-086
   108.965000000000         5.915778606402352E-086
   109.155000000000         3.975614242276998E-086
   109.345000000000         7.061728884103874E-087
   109.535000000000        -4.110624190643355E-086
   109.725000000000        -1.061228613956658E-085
   109.915000000000        -1.880464952195583E-085
   110.105000000000        -2.850350931340503E-085