  -1.42500000000000         0.000000000000000E+000
  -1.23500000000000         0.000000000000000E+000
  -1.04500000000000         0.000000000000000E+000
 -0.855000000000000         0.000000000000000E+000
 -0.665000000000000         0.000000000000000E+000
 -0.475000000000000         0.000000000000000E+000
 -0.285000000000000         0.000000000000000E+000
 -9.499999999999975E-002    0.000000000000000E+000
  9.500000000000020E-002    0.000000000000000E+000
  0.285000000000000         0.000000000000000E+000
  0.475000000000000         0.000000000000000E+000
  0.665000000000000         0.000000000000000E+000
  0.855000000000000         0.000000000000000E+000
   1.04500000000000         0.000000000000000E+000
   1.23500000000000         0.000000000000000E+000
   1.42500000000000         0.000000000000000E+000
   1.61500000000000         0.000000000000000E+000
   1.80500000000000         0.000000000000000E+000
   1.99500000000000         0.000000000000000E+000
   2.18500000000000         0.000000000000000E+000
   2.37500000000000         0.000000000000000E+000
   2.56500000000000         0.000000000000000E+000
   2.75500000000000         0.000000000000000E+000
   2.94500000000000         0.000000000000000E+000
   3.13500000000000         0.000000000000000E+000
   3.32500000000000         0.000000000000000E+000
   3.51500000000000         0.000000000000000E+000
   3.70500000000000         0.000000000000000E+000
   3.89500000000000         0.000000000000000E+000
   4.08500000000000         0.000000000000000E+000
   4.27500000000000         0.000000000000000E+000
   4.46500000000000         0.000000000000000E+000
   4.65500000000000         0.000000000000000E+000
   4.84500000000000         0.000000000000000E+000
   5.03500000000000         0.000000000000000E+000
   5.22500000000000         0.000000000000000E+000
   5.41500000000000         0.000000000000000E+000
   5.60500000000000         0.000000000000000E+000
   5.79500000000000         0.000000000000000E+000
   5.98500000000000         0.000000000000000E+000
   6.17500000000000         0.000000000000000E+000
   6.36500000000000         0.000000000000000E+000
   6.55500000000000         0.000000000000000E+000
   6.74500000000000        -6.341166515562547E-175
   6.93500000000000        -1.122502639005927E-167
   7.12500000000000         4.295119676404877E-166
   7.31500000000000         3.035815880443658E-164
   7.50500000000000        -5.211361683797404E-163
   7.69500000000000        -8.727697627365592E-161
   7.88500000000000        -3.794115018788759E-159
   8.07500000000000        -1.049518021931121E-157
   8.26500000000000        -2.188501215024177E-156
   8.45500000000000        -3.708192870536401E-155
   8.64500000000000        -5.331813550645858E-154
   8.83500000000000        -6.694455730085777E-153
   9.02500000000000        -1.995606029408434E-151
   9.21500000000000        -1.067996778530633E-149
   9.40500000000000        -4.485704067916514E-148
   9.59500000000000        -1.443969804633978E-146
   9.78500000000000        -3.728789142289547E-145
   9.97500000000000        -7.933561460703001E-144
   10.1650000000000        -1.417849262245640E-142
   10.3550000000000        -2.165441940540003E-141
   10.5450000000000        -2.871535576992976E-140
   10.7350000000000        -3.353596663662895E-139
   10.9250000000000        -3.492505851200770E-138
   11.1150000000000        -3.278314386484472E-137
   11.3050000000000        -2.799275161616877E-136
   11.4950000000000        -2.191520747248693E-135
   11.6850000000000        -1.583763210188062E-134
   11.8750000000000        -1.062701146928809E-133
   12.0650000000000        -6.654184397283442E-133
   12.2550000000000        -3.905117629483536E-132
   12.4450000000000        -2.156100973506900E-131
   12.6350000000000        -1.123619387460062E-130
   12.8250000000000        -5.542526686417305E-130
   13.0150000000000        -2.594056421375549E-129
   13.2050000000000        -1.154279289958276E-128
   13.3950000000000        -4.891196842063797E-128
   13.5850000000000        -1.976227388077719E-127
   13.7750000000000        -7.619706468715428E-127
   13.9650000000000        -2.804586224950826E-126
   14.1550000000000        -9.851744513607788E-126
   14.3450000000000        -3.299127538377329E-125
   14.5350000000000        -1.050838599211663E-124
   14.7250000000000        -3.170411183508082E-124
   14.9150000000000        -8.993248803595636E-124
   15.1050000000000        -2.365838042156749E-123
   15.2950000000000        -5.613032505228721E-123
   15.4850000000000        -1.121102308135915E-122
   15.6750000000000        -1.447460453921126E-122
   15.8650000000000         1.647602559694894E-122
   16.0550000000000         2.229613183217489E-121
   16.2450000000000         1.134803240263490E-120
   16.4350000000000         4.553564411854673E-120
   16.6250000000000         1.620169339455875E-119
   16.8150000000000         5.332379766481943E-119
   17.0050000000000         1.656818932132470E-118
   17.1950000000000         4.916232818027546E-118
   17.3850000000000         1.403318339582961E-117
   17.5750000000000         3.872616072614892E-117
   17.7650000000000         1.036903520221787E-116
   17.9550000000000         2.701090946100926E-116
   18.1450000000000         6.860130076919769E-116
   18.3350000000000         1.701617129019865E-115
   18.5250000000000         4.127978906729887E-115
   18.7150000000000         9.805397441268858E-115
   18.9050000000000         2.282798748970646E-114
   19.0950000000000         5.213121016676121E-114
   19.2850000000000         1.168554383759420E-113
   19.4750000000000         2.572533667286796E-113
   19.6650000000000         5.564497578864579E-113
   19.8550000000000         1.183015169424399E-112
   20.0450000000000         2.472623460583681E-112
   20.2350000000000         5.081490387760873E-112
   20.4250000000000         1.026857586041861E-111
   20.6150000000000         2.040296037203782E-111
   20.8050000000000         3.985407417107791E-111
   20.9950000000000         7.651241630401413E-111
   21.1850000000000         1.443102324755082E-110
   21.3750000000000         2.672557875724591E-110
   21.5650000000000         4.856201359799226E-110
   21.7550000000000         8.649120197531576E-110
   21.9450000000000         1.507899864548312E-109
   22.1350000000000         2.568694340440175E-109
   22.3250000000000         4.264854484521100E-109
   22.5150000000000         6.876949568171821E-109
   22.7050000000000         1.071213689927215E-108
   22.8950000000000         1.598442648718473E-108
   23.0850000000000         2.252207840287709E-108
   23.2750000000000         2.914107735536431E-108
   23.4650000000000         3.240732776815338E-108
   23.6550000000000         2.432846413279578E-108
   23.8450000000000        -1.175610703984642E-108
   24.0350000000000        -1.082072602392103E-107
   24.2250000000000        -3.246848496254141E-107
   24.4150000000000        -7.666104398246058E-107
   24.6050000000000        -1.613507794656891E-106
   24.7950000000000        -3.160833454516336E-106
   24.9850000000000        -5.878997960985147E-106
   25.1750000000000        -1.049210134382603E-105
   25.3650000000000        -1.807511765025090E-105
   25.5550000000000        -3.015958549377016E-105
   25.7450000000000        -4.882060510756322E-105
   25.9350000000000        -7.668634000278871E-105
   26.1250000000000        -1.167565437056742E-104
   26.3150000000000        -1.718260565203307E-104
   26.5050000000000        -2.431644502698981E-104
   26.6950000000000        -3.278787051825334E-104
   26.8850000000000        -4.140479894134980E-104
   27.0750000000000        -4.722242730992148E-104
   27.2650000000000        -4.411850975917173E-104
   27.4550000000000        -2.048414940409070E-104
   27.6450000000000         4.441237616046914E-104
   27.8350000000000         1.860047644133687E-103
   28.0250000000000         4.627848708648557E-103
   28.2150000000000         9.685303803176543E-103
   28.4050000000000         1.849787403442657E-102
   28.5950000000000         3.330274800210682E-102
   28.7850000000000         5.744086734158661E-102
   28.9750000000000         9.579584535313344E-102
   29.1650000000000         1.553548586284737E-101
   29.3550000000000         2.458955718700564E-101
   29.5450000000000         3.807800570025462E-101
   29.7350000000000         5.777943103670032E-101
   29.9250000000000         8.599001815246786E-101
   30.1150000000000         1.255651393516027E-100
   30.3050000000000         1.798848577502143E-100
   30.4950000000000         2.526746938553685E-100
   30.6850000000000         3.475757235164734E-100
   30.8750000000000         4.673066862036872E-100
   31.0650000000000         6.121925626147918E-100
   31.2550000000000         7.777472784550107E-100
   31.4450000000000         9.508933519180272E-100
   31.6350000000000         1.104283314636116E-099
   31.8250000000000         1.188068845583918E-099
   32.0150000000000         1.118367582380989E-099
   32.2050000000000         7.616455078628494E-100
   32.3950000000000        -8.567012682855925E-101
   32.5850000000000        -1.722708426842164E-099
   32.7750000000000        -4.574474010669309E-099
   32.9650000000000        -9.225393379001944E-099
   33.1550000000000        -1.645246935650686E-098
   33.3450000000000        -2.725128156696598E-098
   33.5350000000000        -4.284348971369825E-098
   33.7250000000000        -6.464812662716405E-098
   33.9150000000000        -9.419050900001187E-098
   34.1050000000000        -1.329118943979120E-097
   34.2950000000000        -1.818302250880020E-097
   34.4850000000000        -2.409880966826647E-097
   34.6750000000000        -3.086099680974608E-097
   34.8650000000000        -3.798792892052763E-097
   35.0550000000000        -4.452420321601382E-097
   35.2450000000000        -4.881526270595188E-097
   35.4350000000000        -4.822107873750865E-097
   35.6250000000000        -3.877055728525558E-097
   35.8150000000000        -1.477020238661299E-097
   36.0050000000000         3.160053563527170E-097
   36.1950000000000         1.106468173454695E-096
   36.3850000000000         2.353693063294491E-096
   36.5750000000000         4.213767652310017E-096
   36.7650000000000         6.862829849163853E-096
   36.9550000000000         1.048292250386077E-095
   37.1450000000000         1.523590330055613E-095
   37.3350000000000         2.122070212732417E-095
   37.5250000000000         2.840847865190266E-095
   37.7150000000000         3.654985604914774E-095
   37.9050000000000         4.504871927354338E-095
   38.0950000000000         5.279851539399349E-095
   38.2850000000000         5.798016104875927E-095
   38.4750000000000         5.782626611465786E-095
   38.6650000000000         4.836526096016765E-095
   38.8550000000000         2.417207982260747E-095
   39.0450000000000        -2.182979170765471E-095
   39.2350000000000        -9.844609424807152E-095
   39.4250000000000        -2.160703301012336E-094
   39.6150000000000        -3.861877149647048E-094
   39.8050000000000        -6.203481815902535E-094
   39.9950000000000        -9.283891245161892E-094
   40.1850000000000        -1.315648748166918E-093
   40.3750000000000        -1.778882272834923E-093
   40.5650000000000        -2.300588044445650E-093
   40.7550000000000        -2.841486268347786E-093
   40.9450000000000        -3.330993832517392E-093
   41.1350000000000        -3.655736893043402E-093
   41.3250000000000        -3.646480572256834E-093
   41.5150000000000        -3.064384844878011E-093
   41.7050000000000        -1.588280435856668E-093
   41.8950000000000         1.194230703498015E-093
   42.0850000000000         5.787536421647387E-093
   42.2750000000000         1.277435356091966E-092
   42.4650000000000         2.277890491491963E-092
   42.6550000000000         3.639529203741759E-092
   42.8450000000000         5.406624636434507E-092
   43.0350000000000         7.589436951952384E-092
   43.2250000000000         1.013657011581483E-091
   43.4150000000000         1.289651289127473E-091
   43.6050000000000         1.556665441297530E-091
   43.7950000000000         1.762902918452850E-091
   43.9850000000000         1.827398173797970E-091
   44.1750000000000         1.631628792362031E-091
   44.3650000000000         1.011354881297197E-091
   44.5550000000000        -2.495560184239465E-092
   44.7450000000000        -2.420485329615643E-091
   44.9350000000000        -5.816367765895465E-091
   45.1250000000000        -1.077500554599941E-090
   45.3150000000000        -1.761155056744466E-090
   45.5050000000000        -2.654044759630996E-090
   45.6950000000000        -3.755373595821202E-090
   45.8850000000000        -5.024437073689163E-090
   46.0750000000000        -6.356516031251991E-090
   46.2650000000000        -7.551940833811177E-090
   46.4550000000000        -8.279015137629583E-090
   46.6450000000000        -8.033305314018151E-090
   46.8350000000000        -6.098570620625649E-090
   47.0250000000000        -1.518517518200400E-090
   47.2150000000000         6.906293563868587E-090
   47.4050000000000         2.057576347459684E-089
   47.5950000000000         4.097410688827090E-089
   47.7850000000000         6.944558975903225E-089
   47.9750000000000         1.068221207372767E-088
   48.1650000000000         1.528612041956908E-088
   48.3550000000000         2.054585333228065E-088
   48.5450000000000         2.596168798279285E-088
   48.7350000000000         3.061872694214700E-088
   48.9250000000000         3.304556894656352E-088
   49.1150000000000         3.107346174001016E-088
   49.3050000000000         2.172379879757035E-088
   49.4950000000000         1.167208824513525E-089
   49.6850000000000        -3.518413316395165E-088
   49.8750000000000        -9.236935543962581E-088
   50.0650000000000        -1.752563867306942E-087
   50.2550000000000        -2.874902304462703E-087
   50.4450000000000        -4.298968987736827E-087
   50.6350000000000        -5.982477056173750E-087
   50.8250000000000        -7.803408005190381E-087
   51.0150000000000        -9.524545402958922E-087
   51.2050000000000        -1.075384382597356E-086
   51.3950000000000        -1.090503839691819E-086
   51.5850000000000        -9.165982879981387E-087
   51.7750000000000        -4.486062863913270E-087
   51.9650000000000         4.401508414060267E-087
   52.1550000000000         1.890204348796619E-086
   52.3450000000000         4.040176888282710E-086
   52.5350000000000         7.000310578034496E-086
   52.7250000000000         1.081263478683688E-085
   52.9150000000000         1.539570941045495E-085
   53.1050000000000         2.047323101524755E-085
   53.2950000000000         2.548817998993813E-085
   53.4850000000000         2.950788648873208E-085
   53.6750000000000         3.113061875338384E-085
   53.8650000000000         2.841114239901704E-085
   54.0550000000000         1.883103595649793E-085
   54.2450000000000        -6.510912239124320E-087
   54.4350000000000        -3.342489269670242E-085
   54.6250000000000        -8.287655047469914E-085
   54.8150000000000        -1.518033182089591E-084
   55.0050000000000        -2.415404365304755E-084
   55.1950000000000        -3.507602168749246E-084
   55.3850000000000        -4.739323576710460E-084
   55.5750000000000        -5.994843824520803E-084
   55.7650000000000        -7.077761969746141E-084
   55.9550000000000        -7.691066720445626E-084
   56.1450000000000        -7.421038793357327E-084
   56.3350000000000        -5.730109404219586E-084
   56.5250000000000        -1.965569401276306E-084
   56.7150000000000         4.607209950784689E-084
   56.9050000000000         1.473691405590582E-083
   57.0950000000000         2.907289428684622E-083
   57.2850000000000         4.799588095231678E-083
   57.4750000000000         7.138491696042579E-083
   57.6650000000000         9.831789255858981E-083
   57.8550000000000         1.267119679429399E-082
   58.0450000000000         1.529235420516907E-082
   58.2350000000000         1.713458902231037E-082
   58.4250000000000         1.740663733585120E-082
   58.6150000000000         1.506737606794809E-082
   58.8050000000000         8.833823861617750E-083
   58.9950000000000        -2.768076001042808E-083
   59.1850000000000        -2.129153258965519E-082
   59.3750000000000        -4.817573260037769E-082
   59.5650000000000        -8.445156006887454E-082
   59.7550000000000        -1.303297919640468E-081
   59.9450000000000        -1.846633476128511E-081
   60.1350000000000        -2.442892510875075E-081
   60.3250000000000        -3.032776494376856E-081
   60.5150000000000        -3.521457966330234E-081
   60.7050000000000        -3.771350713892859E-081
   60.8950000000000        -3.596985312787175E-081
   61.0850000000000        -2.764033088828111E-081
   61.2750000000000        -9.951216146249418E-082
   61.4650000000000         2.014354599416625E-081
   61.6550000000000         6.566812001062059E-081
   61.8450000000000         1.291571471180876E-080
   62.0350000000000         2.119812171178535E-080
   62.2250000000000         3.134431014642020E-080
   62.4150000000000         4.296435441170343E-080
   62.6050000000000         5.521492802518199E-080
   62.7950000000000         6.665449588401863E-080
   62.9850000000000         7.510162684754902E-080
   63.1750000000000         7.751935940213342E-080
   63.3650000000000         6.995810724603543E-080
   63.5550000000000         4.759982602897054E-080
   63.7450000000000         4.955904927123694E-081
   63.9350000000000        -6.372128515788479E-080
   64.1250000000000        -1.637505267238081E-079
   64.3150000000000        -2.990000775491064E-079
   64.5050000000000        -4.704914677106021E-079
   64.6950000000000        -6.746205058595620E-079
   64.8850000000000        -9.010392087020753E-079
   65.0750000000000        -1.130316866354632E-078
   65.2650000000000        -1.331596582904131E-078
   65.4550000000000        -1.460583386200082E-078
   65.6450000000000        -1.458334870916698E-078
   65.8350000000000        -1.251462874200019E-078
   66.0250000000000        -7.544752928505574E-079
   66.2150000000000         1.249365387964348E-079
   66.4050000000000         1.476862284813054E-078
   66.5950000000000         3.375708523600901E-078
   66.7850000000000         5.861909756951619E-078
   66.9750000000000         8.918901437171671E-078
   67.1650000000000         1.244614911260311E-077
   67.3550000000000         1.622995904662449E-077
   67.5450000000000         1.991491439225627E-077
   67.7350000000000         2.298000140094377E-077
   67.9250000000000         2.472466756689134E-077
   68.1150000000000         2.427098117572855E-077
   68.3050000000000         2.058847747637105E-077
   68.4950000000000         1.254788597363252E-077
   68.6850000000000        -9.915493316892551E-079
   68.8750000000000        -2.105923186337532E-077
   69.0650000000000        -4.841707646690199E-077
   69.2550000000000        -8.337759157622593E-077
   69.4450000000000        -1.256095721447176E-076
   69.6350000000000        -1.739502315014095E-076
   69.8250000000000        -2.262460882362628E-076
   70.0150000000000        -2.792445287400336E-076
   70.2050000000000        -3.285515176311274E-076
   70.3950000000000        -3.686564060904590E-076
   70.5850000000000        -3.930009266714344E-076
   70.7750000000000        -3.940365967872715E-076
   70.9650000000000        -3.631758662092482E-076
   71.1550000000000        -2.905042296594552E-076
   71.3450000000000        -1.640948659310509E-076
   71.5350000000000         3.122856203801653E-077
   71.7250000000000         3.157787079571263E-076
   71.9150000000000         7.175026274180874E-076
   72.1050000000000         1.274809443147848E-075
   72.2950000000000         2.039072163968846E-075
   72.4850000000000         3.075634545835068E-075
   72.6750000000000         4.461515582134753E-075
   72.8650000000000         6.277295779665283E-075
   73.0550000000000         8.589999963398506E-075
   73.2450000000000         1.142333936821556E-074
   73.4350000000000         1.471169901654995E-074
   73.6250000000000         1.823509272727667E-074
   73.8150000000000         2.153436055207561E-074
   74.0050000000000         2.380958237384653E-074
   74.1950000000000         2.381041692416036E-074
   74.3850000000000         1.973509390740389E-074
   74.5750000000000         9.165048814904441E-075
   74.7650000000000        -1.092580739917292E-074
   74.9550000000000        -4.403561611520261E-074
   75.1450000000000        -9.381021594655059E-074
   75.3350000000000        -1.634606450672387E-073
   75.5250000000000        -2.548553793345148E-073
   75.7150000000000        -3.672362586904434E-073
   75.9050000000000        -4.955430023658721E-073
   76.0950000000000        -6.283930542511626E-073
   76.2850000000000        -7.458562955919648E-073
   76.4750000000000        -8.172905294526027E-073
   76.6650000000000        -7.996618097847035E-073
   76.8550000000000        -6.369551841247981E-073
   77.0450000000000        -2.614685640716494E-073
   77.2350000000000         4.020540133138081E-073
   77.4250000000000         1.428396056294687E-072
   77.6150000000000         2.878920534002975E-072
   77.8050000000000         4.782887070260250E-072
   77.9950000000000         7.112703612316634E-072
   78.1850000000000         9.753604881922627E-072
   78.3750000000000         1.246947403736977E-071
   78.5650000000000         1.486817647231267E-071
   78.7550000000000         1.637182721594457E-071
   78.9450000000000         1.619975540022665E-071
   79.1350000000000         1.337434025847515E-071
   79.3250000000000         6.762017977318295E-072
   79.5150000000000        -4.836908701150779E-072
   79.7050000000000        -2.253614373342933E-071
   79.8950000000000        -4.713779296761846E-071
   80.0850000000000        -7.882756692274875E-071
   80.2750000000000        -1.167944460122075E-070
   80.4650000000000        -1.587924098943346E-070
   80.6550000000000        -2.006806401907584E-070
   80.8450000000000        -2.360019428419025E-070
   81.0350000000000        -2.556857841310263E-070
   81.2250000000000        -2.479899100770588E-070
   81.4150000000000        -1.988192369034365E-070
   81.6050000000000        -9.257722830014944E-071
   81.7950000000000         8.629354456447010E-071
   81.9850000000000         3.509466475568711E-070
   82.1750000000000         7.088614430043220E-070
   82.3650000000000         1.157679772929084E-069
   82.5550000000000         1.680303287421576E-069
   82.7450000000000         2.239595991159583E-069
   82.9350000000000         2.773274368930414E-069
   83.1250000000000         3.189840381143202E-069
   83.3150000000000         3.366697861219350E-069
   83.5050000000000         3.151854286842158E-069
   83.6950000000000         2.370796923314218E-069
   83.8850000000000         8.401801642125157E-070
   84.0750000000000        -1.610206854502328E-069
   84.2650000000000        -5.106189044113079E-069
   84.4550000000000        -9.688510366588044E-069
   84.6450000000000        -1.526381865287430E-068
   84.8350000000000        -2.155020851025699E-068
   85.0250000000000        -2.802240305129836E-068
   85.2150000000000        -3.386420679321848E-068
   85.4050000000000        -3.793856682853770E-068
   85.5950000000000        -3.878812561315270E-068
   85.7850000000000        -3.468109891343974E-068
   85.9750000000000        -2.371810596878736E-068
   86.1650000000000        -4.014553606701454E-069
   86.3550000000000         2.603038587968822E-068
   86.5450000000000         6.737396027433457E-068
   86.7350000000000         1.198855480606756E-067
   86.9250000000000         1.818389760829268E-067
   87.1150000000000         2.493812422569626E-067
   87.3050000000000         3.160394249990067E-067
   87.4950000000000         3.723512990390108E-067
   87.6850000000000         4.057282224017064E-067
   87.8750000000000         4.006777427892907E-067
   88.0650000000000         3.395236159086834E-067
   88.2550000000000         2.037572033626693E-067
   88.4450000000000        -2.386931784531171E-068
   88.6350000000000        -3.564466393827523E-067
   88.8250000000000        -7.992272810938250E-067
   89.0150000000000        -1.345291467076925E-066
   89.2050000000000        -1.970838306134218E-066
   89.3950000000000        -2.630556296844598E-066
   89.5850000000000        -3.253721224283018E-066
   89.7750000000000        -3.741864458975776E-066
   89.9650000000000        -3.969025192529839E-066
   90.1550000000000        -3.785713083516333E-066
   90.3450000000000        -3.027723088306242E-066
   90.5350000000000        -1.530817245728168E-066
   90.7250000000000         8.480265687720247E-067
   90.9150000000000         4.202642038089748E-066
   91.1050000000000         8.543621090800682E-066
   91.2950000000000         1.375988748324356E-065
   91.4850000000000         1.957891049098097E-065
   91.6750000000000         2.553005454508156E-065
   91.8650000000000         3.091710626612807E-065
   92.0550000000000         3.480745869151319E-065
   92.2450000000000         3.604653513916164E-065
   92.4350000000000         3.330652024067100E-065
   92.6250000000000         2.517801131707127E-065
   92.8150000000000         1.031147152974961E-065
   93.0050000000000        -1.238796098817303E-065
   93.1950000000000        -4.351392673530875E-065
   93.3850000000000        -8.286932159290637E-065
   93.5750000000000        -1.291515960669284E-064
   93.7650000000000        -1.796412756317350E-064
   93.9550000000000        -2.299335916502040E-064
   94.1450000000000        -2.737644419157927E-064
   94.3350000000000        -3.029916050760788E-064
   94.5250000000000        -3.077983548013018E-064
   94.7150000000000        -2.771871703138775E-064
   94.9050000000000        -1.998237401952437E-064
   95.0950000000000        -6.527354751213005E-065
   95.2850000000000         1.343570360065337E-064
   95.4750000000000         4.024073820351621E-064
   95.6650000000000         7.353673861123797E-064
   95.8550000000000         1.120461644192174E-063
   96.0450000000000         1.533354275645491E-063
   96.2350000000000         1.936298879672129E-063
   96.4250000000000         2.277135891470830E-063
   96.6150000000000         2.489600446157660E-063
   96.8050000000000         2.495433768209239E-063
   96.9950000000000         2.208774257628272E-063
   97.1850000000000         1.543224353002629E-063
   97.3750000000000         4.218304631056543E-064
   97.5650000000000        -1.210036411494093E-063
   97.7550000000000        -3.369258501900346E-063
   97.9450000000000        -6.017807692782400E-063
   98.1350000000000        -9.045160962286771E-063
   98.3250000000000        -1.225218463160463E-062
   98.5150000000000        -1.533894813334679E-062
   98.7050000000000        -1.789943436827334E-062
   98.8950000000000        -1.942647149433713E-062
   99.0850000000000        -1.933032116902820E-062
   99.2750000000000        -1.697411266047974E-062
   99.4650000000000        -1.172860257445562E-062
   99.6550000000000        -3.047470362596673E-063
   99.8450000000000         9.437537326923424E-063
   100.035000000000         2.580484589048630E-062
   100.225000000000         4.572105600018727E-062
   100.415000000000         6.831870907984775E-062
   100.605000000000         9.208766448411734E-062
   100.795000000000         1.147976700542605E-061
   100.985000000000         1.334728498983082E-061
   101.175000000000         1.444408051998047E-061
   101.365000000000         1.434791619448483E-061
   101.555000000000         1.260800012175607E-061
   101.745000000000         8.784699749375870E-062
   101.935000000000         2.503070601001982E-062
   102.125000000000        -6.480606119324684E-062
   102.315000000000        -1.820184539077627E-061
   102.505000000000        -3.240523657710135E-061
   102.695000000000        -4.846306557663401E-061
   102.885000000000        -6.530484982235978E-061
   103.075000000000        -8.136968227828097E-061
   103.265000000000        -9.459513722470662E-061
   103.455000000000        -1.024574975928596E-060
   103.645000000000        -1.020777991403352E-060
   103.835000000000        -9.040621818262273E-061
   104.025000000000        -6.449325769509954E-061
   104.215000000000        -2.184970209014525E-061
   104.405000000000         3.911173892850743E-061
   104.595000000000         1.185717158217231E-060
   104.785000000000         2.147687211664842E-060
   104.975000000000         3.234800475004576E-060
   105.165000000000         4.375817141598897E-060
   105.355000000000         5.467636757506392E-060
   105.545000000000         6.374870439331534E-060
   105.735000000000         6.932747320959058E-060
   105.925000000000         6.954233340248305E-060
   106.115000000000         6.242096527141916E-060
   106.305000000000         4.606378795243753E-060
   106.495000000000         1.887314032113591E-060
   106.685000000000        -2.016839462670327E-060
   106.875000000000        -7.118298412556644E-060
   107.065000000000        -1.330666135614204E-059
   107.255000000000        -2.031719312765458E-059
   107.445000000000        -2.770434436523512E-059
   107.635000000000        -3.482514485445866E-059
   107.825000000000        -4.083766573180674E-059
   108.015000000000        -4.471994022088297E-059
   108.205000000000        -4.531442172635585E-059
   108.395000000000        -4.140210305832971E-059
   108.585000000000        -3.180870435793273E-059
   108.775000000000        -1.554278448282921E-059
   108.965000000000         8.037770951628657E-060
   109.155000000000         3.903860850024440E-059
   109.345000000000         7.683360878360447E-059
   109.535000000000         1.198789932796805E-058
   109.725000000000         1.655593247006906E-058
   109.915000000000         2.100921163851366E-058
   110.105000000000         2.485206207846179E-058