  -1.42500000000000         0.000000000000000E+000
  -1.23500000000000         0.000000000000000E+000
  -1.04500000000000         0.000000000000000E+000
 -0.855000000000000         0.000000000000000E+000
 -0.665000000000000         0.000000000000000E+000
 -0.475000000000000         0.000000000000000E+000
 -0.285000000000000         0.000000000000000E+000
 -9.499999999999975E-002    0.000000000000000E+000
  9.500000000000020E-002    0.000000000000000E+000
  0.285000000000000         0.000000000000000E+000
  0.475000000000000         0.000000000000000E+000
  0.665000000000000         0.000000000000000E+000
  0.855000000000000         0.000000000000000E+000
   1.04500000000000         0.000000000000000E+000
   1.23500000000000         0.000000000000000E+000
   1.42500000000000         0.000000000000000E+000
   1.61500000000000         0.000000000000000E+000
   1.80500000000000         0.000000000000000E+000
   1.99500000000000         0.000000000000000E+000
   2.18500000000000         0.000000000000000E+000
   2.37500000000000         0.000000000000000E+000
   2.56500000000000         0.000000000000000E+000
   2.75500000000000         0.000000000000000E+000
   2.94500000000000         0.000000000000000E+000
   3.13500000000000         0.000000000000000E+000
   3.32500000000000         0.000000000000000E+000
   3.51500000000000         0.000000000000000E+000
   3.70500000000000         0.000000000000000E+000
   3.89500000000000         0.000000000000000E+000
   4.08500000000000         0.000000000000000E+000
   4.27500000000000         0.000000000000000E+000
   4.46500000000000         0.000000000000000E+000
   4.65500000000000         0.000000000000000E+000
   4.84500000000000         0.000000000000000E+000
   5.03500000000000         0.000000000000000E+000
   5.22500000000000         0.000000000000000E+000
   5.41500000000000         0.000000000000000E+000
   5.60500000000000         0.000000000000000E+000
   5.79500000000000         0.000000000000000E+000
   5.98500000000000         0.000000000000000E+000
   6.17500000000000         0.000000000000000E+000
   6.36500000000000         0.000000000000000E+000
   6.55500000000000         0.000000000000000E+000
   6.74500000000000        -6.024108189784419E-176
   6.93500000000000        -1.066377627537795E-168
   7.12500000000000         3.867088179125292E-167
   7.31500000000000         2.963499605138572E-165
   7.50500000000000        -4.366041130451509E-164
   7.69500000000000        -8.384481093297913E-162
   7.88500000000000        -3.771167206242273E-160
   8.07500000000000        -1.070797885575481E-158
   8.26500000000000        -2.285860154913973E-157
   8.45500000000000        -3.959276857928274E-156
   8.64500000000000        -5.813428881607350E-155
   8.83500000000000        -7.447598119053579E-154
   9.02500000000000        -2.033899038564363E-152
   9.21500000000000        -1.053894187269125E-150
   9.40500000000000        -4.468267977208011E-149
   9.59500000000000        -1.459068182819567E-147
   9.78500000000000        -3.825433634897254E-146
   9.97500000000000        -8.273661719675083E-145
   10.1650000000000        -1.505062250206788E-143
   10.3550000000000        -2.342371748447018E-142
   10.5450000000000        -3.167912957339330E-141
   10.7350000000000        -3.775504006028015E-140
   10.9250000000000        -4.014022642291507E-139
   11.1150000000000        -3.847588987253471E-138
   11.3050000000000        -3.355510168977404E-137
   11.4950000000000        -2.683426867137602E-136
   11.6850000000000        -1.981112207381045E-135
   11.8750000000000        -1.358134815288338E-134
   12.0650000000000        -8.689176082289980E-134
   12.2550000000000        -5.210926873980284E-133
   12.4450000000000        -2.940374787030520E-132
   12.6350000000000        -1.566305489273266E-131
   12.8250000000000        -7.899144259456765E-131
   13.0150000000000        -3.780808061462091E-130
   13.2050000000000        -1.721081491637249E-129
   13.3950000000000        -7.464283817058215E-129
   13.5850000000000        -3.088508100375716E-128
   13.7750000000000        -1.220464526432921E-127
   13.9650000000000        -4.608693554664169E-127
   14.1550000000000        -1.663220775629486E-126
   14.3450000000000        -5.733307665880688E-126
   14.5350000000000        -1.885044551984995E-125
   14.7250000000000        -5.895231845568754E-125
   14.9150000000000        -1.745070883331728E-124
   15.1050000000000        -4.846975659722225E-124
   15.2950000000000        -1.242690267973842E-123
   15.4850000000000        -2.840975548699689E-123
   15.6750000000000        -5.281110172653884E-123
   15.8650000000000        -5.090975172168788E-123
   16.0550000000000         1.765557250010737E-122
   16.2450000000000         1.466432055657056E-121
   16.4350000000000         6.870381325169314E-121
   16.6250000000000         2.658787624126209E-120
   16.8150000000000         9.263709274767139E-120
   17.0050000000000         3.006924990818348E-119
   17.1950000000000         9.251324153470365E-119
   17.3850000000000         2.725326955663466E-118
   17.5750000000000         7.737464647251425E-118
   17.7650000000000         2.126703335834255E-117
   17.9550000000000         5.677798078840833E-117
   18.1450000000000         1.476095805071049E-116
   18.3350000000000         3.744344434947299E-116
   18.5250000000000         9.282460668909565E-116
   18.7150000000000         2.251916819950837E-115
   18.9050000000000         5.352088388393493E-115
   19.0950000000000         1.247321216575792E-114
   19.2850000000000         2.852694377731474E-114
   19.4750000000000         6.406728026225378E-114
   19.6650000000000         1.413690771006918E-113
   19.8550000000000         3.066182451952233E-113
   20.0450000000000         6.539039150459911E-113
   20.2350000000000         1.371544730638724E-112
   20.4250000000000         2.829801024215775E-112
   20.6150000000000         5.743596966299136E-112
   20.8050000000000         1.146801524789513E-111
   20.9950000000000         2.252283184302887E-111
   21.1850000000000         4.350098347708349E-111
   21.3750000000000         8.259975538164040E-111
   21.5650000000000         1.541229681191166E-110
   21.7550000000000         2.824235229137593E-110
   21.9450000000000         5.078406519223988E-110
   22.1350000000000         8.951171013963052E-110
   22.3250000000000         1.544304239767626E-109
   22.5150000000000         2.602775624773454E-109
   22.7050000000000         4.273738839180631E-109
   22.8950000000000         6.809912360894034E-109
   23.0850000000000         1.046803032544991E-108
   23.2750000000000         1.537603012248284E-108
   23.4650000000000         2.122312860921702E-108
   23.6550000000000         2.661302883980719E-108
   23.8450000000000         2.780740276363738E-108
   24.0350000000000         1.641088287212700E-108
   24.2250000000000        -2.471386756501233E-108
   24.4150000000000        -1.283869200627642E-107
   24.6050000000000        -3.544981523385065E-107
   24.7950000000000        -8.080605710099629E-107
   24.9850000000000        -1.666844555482604E-106
   25.1750000000000        -3.222098989439665E-106
   25.3650000000000        -5.935984793876974E-106
   25.5550000000000        -1.051828159255897E-105
   25.7450000000000        -1.802139969968565E-105
   25.9350000000000        -2.994455948516907E-105
   26.1250000000000        -4.832163343747305E-105
   26.3150000000000        -7.573698045894350E-105
   26.5050000000000        -1.151610786040152E-104
   26.6950000000000        -1.694101783719963E-104
   26.8850000000000        -2.398932143586192E-104
   27.0750000000000        -3.240890792973268E-104
   27.2650000000000        -4.108629695129655E-104
   27.4550000000000        -4.722354957180648E-104
   27.6450000000000        -4.495036802995051E-104
   27.8350000000000        -2.306073967543594E-104
   28.0250000000000         3.857427567599531E-104
   28.2150000000000         1.745492245383338E-103
   28.4050000000000         4.422894139955634E-103
   28.5950000000000         9.343953233426307E-103
   28.7850000000000         1.796459669107718E-102
   28.9750000000000         3.252208439707559E-102
   29.1650000000000         5.638140127532828E-102
   29.3550000000000         9.450019217268861E-102
   29.5450000000000         1.540343769155858E-101
   29.7350000000000         2.450989418156931E-101
   29.9250000000000         3.816799185454028E-101
   30.1150000000000         5.826573181742700E-101
   30.3050000000000         8.728348154209961E-101
   30.4950000000000         1.283766389446299E-100
   30.6850000000000         1.854004285949549E-100
   30.8750000000000         2.628142575183701E-100
   31.0650000000000         3.653666861561256E-100
   31.2550000000000         4.974109710577568E-100
   31.4450000000000         6.616318309431956E-100
   31.6350000000000         8.568736142658390E-100
   31.8250000000000         1.074647069486742E-099
   32.0150000000000         1.293758530143408E-099
   32.2050000000000         1.472359773716572E-099
   32.3950000000000         1.536577434914831E-099
   32.5850000000000         1.364781472316112E-099
   32.7750000000000         7.665491407525219E-100
   32.9650000000000        -5.444382612662470E-100
   33.1550000000000        -2.983835221139583E-099
   33.3450000000000        -7.135691558869501E-099
   33.5350000000000        -1.379469483053260E-098
   33.7250000000000        -2.400639838291452E-098
   33.9150000000000        -3.909606876749623E-098
   34.1050000000000        -6.067079709029903E-098
   34.2950000000000        -9.057129844146085E-098
   34.4850000000000        -1.307390390096742E-097
   34.6750000000000        -1.829508551637861E-097
   34.8650000000000        -2.483573346075462E-097
   35.0550000000000        -3.267438601372604E-097
   35.2450000000000        -4.154163527631279E-097
   35.4350000000000        -5.076008771344154E-097
   35.6250000000000        -5.902429313560413E-097
   35.8150000000000        -6.411066530443164E-097
   36.0050000000000        -6.251178364580905E-097
   36.1950000000000        -4.899828511263867E-097
   36.3850000000000        -1.612675336352139E-097
   36.5750000000000         4.626412343472140E-097
   36.7650000000000         1.514917996987231E-096
   36.9550000000000         3.162764470524568E-096
   37.1450000000000         5.606052921944174E-096
   37.3350000000000         9.069430437592804E-096
   37.5250000000000         1.378420261161935E-095
   37.7150000000000         1.995524440821914E-095
   37.9050000000000         2.770710906387479E-095
   38.0950000000000         3.700259635729080E-095
   38.2850000000000         4.752657061935232E-095
   38.4750000000000         5.852818119987692E-095
   38.6650000000000         6.861637627198538E-095
   38.8550000000000         7.550742364634898E-095
   39.0450000000000         7.572994101726958E-095
   39.2350000000000         6.430373185147549E-095
   39.4250000000000         3.442467153829157E-095
   39.6150000000000        -2.278984274297260E-095
   39.8050000000000        -1.184107529156937E-094
   39.9950000000000        -2.655407969958055E-094
   40.1850000000000        -4.787243949007006E-094
   40.3750000000000        -7.727048418958756E-094
   40.5650000000000        -1.160254522037530E-093
   40.7550000000000        -1.648751581752907E-093
   40.9450000000000        -2.235137191335100E-093
   41.1350000000000        -2.898876610263375E-093
   41.3250000000000        -3.592587269466897E-093
   41.5150000000000        -4.230119484094707E-093
   41.7050000000000        -4.672122685764499E-093
   41.8950000000000        -4.709557410338572E-093
   42.0850000000000        -4.046289533449759E-093
   42.2750000000000        -2.282909985105892E-093
   42.4650000000000         1.094649570098841E-093
   42.6550000000000         6.716198280570872E-093
   42.8450000000000         1.531004442873833E-092
   43.0350000000000         2.765630293770585E-092
   43.2250000000000         4.449600965208467E-092
   43.4150000000000         6.637743850881973E-092
   43.6050000000000         9.341744744785724E-092
   43.7950000000000         1.249533468654859E-091
   43.9850000000000         1.590612072418687E-091
   44.1750000000000         1.919219634203887E-091
   44.3650000000000         2.170303083201515E-091
   44.5550000000000         2.242673975174473E-091
   44.7450000000000         1.989020047110712E-091
   44.9350000000000         1.206519003037158E-091
   45.1250000000000        -3.696614615928586E-092
   45.3150000000000        -3.066384292370044E-091
   45.5050000000000        -7.260824117926742E-091
   45.6950000000000        -1.334977155560633E-090
   45.8850000000000        -2.169059169164114E-090
   46.0750000000000        -3.250249714133524E-090
   46.2650000000000        -4.571553116314526E-090
   46.4550000000000        -6.075493933601395E-090
   46.6450000000000        -7.625164376507933E-090
   46.8350000000000        -8.967692590299091E-090
   47.0250000000000        -9.691315963487570E-090
   47.2150000000000        -9.179477239149093E-090
   47.4050000000000        -6.568681820494889E-090
   47.5950000000000        -7.214441360224530E-091
   47.7850000000000         9.768427045471358E-090
   47.9750000000000         2.651385954262071E-089
   48.1650000000000         5.118377541125264E-089
   48.3550000000000         8.522415047550993E-089
   48.5450000000000         1.294063147248297E-088
   48.7350000000000         1.831577089035226E-088
   48.9250000000000         2.436387899977976E-088
   49.1150000000000         3.045518691500425E-088
   49.3050000000000         3.547092666607439E-088
   49.4950000000000         3.764557239017236E-088
   49.6850000000000         3.441396457792575E-088
   49.8750000000000         2.229638316058582E-088
   50.0650000000000        -3.128062345594545E-089
   50.2550000000000        -4.708899097740606E-088
   50.4450000000000        -1.152407682533017E-087
   50.6350000000000        -2.129145056704519E-087
   50.8250000000000        -3.438804137534117E-087
   51.0150000000000        -5.084959711308302E-087
   51.2050000000000        -7.011406688056887E-087
   51.3950000000000        -9.069000499231599E-087
   51.5850000000000        -1.097574752053706E-086
   51.7750000000000        -1.227269186620705E-086
   51.9650000000000        -1.228072453894309E-086
   52.1550000000000        -1.006688710825058E-086
   52.3450000000000        -4.433024933025219E-087
   52.5350000000000         6.055438159976160E-087
   52.7250000000000         2.297773625660394E-086
   52.9150000000000         4.787566324403121E-086
   53.1050000000000         8.195115664844868E-086
   53.2950000000000         1.256144971033750E-085
   53.4850000000000         1.778607602581117E-085
   53.6750000000000         2.354673402381218E-085
   53.8650000000000         2.920320133329028E-085
   54.0550000000000         3.369120827706419E-085
   54.2450000000000         3.541830302665981E-085
   54.4350000000000         3.218108455420140E-085
   54.6250000000000         2.113244745291821E-085
   54.8150000000000        -1.162140072029307E-086
   55.0050000000000        -3.852979677227565E-085
   55.1950000000000        -9.479835884578864E-085
   55.3850000000000        -1.731441534276559E-084
   55.5750000000000        -2.751187437393529E-084
   55.7650000000000        -3.993084987848890E-084
   55.9550000000000        -5.396123713417106E-084
   56.1450000000000        -6.831773737228385E-084
   56.3350000000000        -8.081132815998195E-084
   56.5250000000000        -8.812222302520304E-084
   56.7150000000000        -8.561266450317006E-084
   56.9050000000000        -6.723574669681406E-084
   57.0950000000000        -2.561642877119963E-084
   57.2850000000000         4.759890770600523E-084
   57.4750000000000         1.610106657231107E-083
   57.6650000000000         3.222283347661754E-083
   57.8550000000000         5.360067022426284E-083
   58.0450000000000         8.016604367375276E-083
   58.2350000000000         1.109716397398582E-082
   58.4250000000000         1.437858047801117E-082
   58.6150000000000         1.746361175137210E-082
   58.8050000000000         1.973422574468086E-082
   58.9950000000000         2.031047179143548E-082
   59.1850000000000         1.802480897531917E-082
   59.3750000000000         1.142541878226604E-082
   59.5650000000000        -1.174174021312923E-083
   59.7550000000000        -2.157840246444046E-082
   59.9450000000000        -5.150275072424577E-082
   60.1350000000000        -9.225324760077977E-082
   60.3250000000000        -1.442721031506731E-081
   60.5150000000000        -2.065373305273905E-081
   60.7050000000000        -2.758190129895098E-081
   60.8950000000000        -3.458182052429702E-081
   61.0850000000000        -4.062478800583154E-081
   61.2750000000000        -4.419598497411194E-081
   61.4650000000000        -4.322771363855985E-081
   61.6550000000000        -3.507560536810511E-081
   61.8450000000000        -1.656720499087781E-081
   62.0350000000000         1.584093961153660E-081
   62.2250000000000         6.575624987683186E-081
   62.4150000000000         1.363494812070493E-080
   62.6050000000000         2.296197995220904E-080
   62.7950000000000         3.453957522358310E-080
   62.9850000000000         4.800640688308202E-080
   63.1750000000000         6.250540057680185E-080
   63.3650000000000         7.651575990837789E-080
   63.5550000000000         8.768376356950346E-080
   63.7450000000000         9.267655801033241E-080
   63.9350000000000         8.709384688841010E-080
   64.1250000000000         6.548402475964930E-080
   64.3150000000000         2.152271735372243E-080
   64.5050000000000        -5.157897944594989E-080
   64.6950000000000        -1.603646169351155E-079
   64.8850000000000        -3.100522898184709E-079
   65.0750000000000        -5.030311169488582E-079
   65.2650000000000        -7.369128946284407E-079
   65.4550000000000        -1.002169991693341E-078
   65.6450000000000        -1.279467226119435E-078
   65.8350000000000        -1.536898011905523E-078
   66.0250000000000        -1.727462137775328E-078
   66.2150000000000        -1.787268319410470E-078
   66.4050000000000        -1.635097431167568E-078
   66.5950000000000        -1.174103204368243E-078
   66.7850000000000        -2.965294677157528E-079
   66.9750000000000         1.107647595725959E-078
   67.1650000000000         3.137327397954564E-078
   67.3550000000000         5.861557673081187E-078
   67.5450000000000         9.295320649774856E-078
   67.7350000000000         1.337033765012886E-077
   67.9250000000000         1.790228120207320E-077
   68.1150000000000         2.255686783262208E-077
   68.3050000000000         2.681851640457154E-077
   68.4950000000000         2.996647093232189E-077
   68.6850000000000         3.106432291330649E-077
   68.8750000000000         2.896949869977536E-077
   69.0650000000000         2.236924940839901E-077
   69.2550000000000         9.848755944301858E-078
   69.4450000000000        -1.000502460918778E-077
   69.6350000000000        -3.846320595556988E-077
   69.8250000000000        -7.648185633064872E-077
   70.0150000000000        -1.245034649433969E-076
   70.2050000000000        -1.822440893486572E-076
   70.3950000000000        -2.484788421022079E-076
   70.5850000000000        -3.208362887145880E-076
   70.7750000000000        -3.956048534431649E-076
   70.9650000000000        -4.675400374278342E-076
   71.1550000000000        -5.296396465353610E-076
   71.3450000000000        -5.728265606164589E-076
   71.5350000000000        -5.854488594862978E-076
   71.7250000000000        -5.524831688367589E-076
   71.9150000000000        -4.543214419761130E-076
   72.1050000000000        -2.650517952723504E-076
   72.2950000000000         4.976695740373644E-077
   72.4850000000000         5.356640948351076E-076
   72.6750000000000         1.251693356992239E-075
   72.8650000000000         2.271880436363243E-075
   73.0550000000000         3.684273531954303E-075
   73.2450000000000         5.585540768457640E-075
   73.4350000000000         8.068369415010359E-075
   73.6250000000000         1.119831463067388E-074
   73.8150000000000         1.497641269221236E-074
   74.0050000000000         1.928408727017497E-074
   74.1950000000000         2.380798720348562E-074
   74.3850000000000         2.794481073248427E-074
   74.5750000000000         3.069032429110354E-074
   74.7650000000000         3.052305222559804E-074
   74.9550000000000         2.530171699173241E-074
   75.1450000000000         1.220636294586582E-074
   75.3350000000000        -1.223436885044417E-074
   75.5250000000000        -5.197439116861073E-074
   75.7150000000000        -1.110730967809818E-073
   75.9050000000000        -1.930371265813317E-073
   76.0950000000000        -2.998110519599499E-073
   76.2850000000000        -4.303647401950473E-073
   76.4750000000000        -5.788636885742815E-073
   76.6650000000000        -7.324741608018249E-073
   76.8550000000000        -8.689527752232283E-073
   77.0450000000000        -9.543030313018907E-073
   77.2350000000000        -9.409474136238861E-073
   77.4250000000000        -7.670546570110790E-073
   77.6150000000000        -3.578595809328013E-073
   77.8050000000000         3.700121414722044E-073
   77.9950000000000         1.500093256317010E-072
   78.1850000000000         3.102392563269739E-072
   78.3750000000000         5.213585060602515E-072
   78.5650000000000         7.810661859022349E-072
   78.7550000000000         1.077846220940679E-071
   78.9450000000000         1.387276255794305E-071
   79.1350000000000         1.668230164551973E-071
   79.3250000000000         1.859525567792011E-071
   79.5150000000000         1.877814105915602E-071
   79.7050000000000         1.617770107787091E-071
   79.8950000000000         9.558677091271359E-072
   80.0850000000000        -2.408032098313519E-072
   80.2750000000000        -2.099212332713438E-071
   80.4650000000000        -4.717287463825588E-071
   80.6550000000000        -8.132281439633971E-071
   80.8450000000000        -1.228076597844426E-070
   81.0350000000000        -1.695179938468708E-070
   81.2250000000000        -2.173671847966389E-070
   81.4150000000000        -2.598140537597859E-070
   81.6050000000000        -2.874967179541266E-070
   81.7950000000000        -2.880936679090162E-070
   81.9850000000000        -2.465558496574888E-070
   82.1750000000000        -1.458740810541755E-070
   82.3650000000000         3.144733445949812E-071
   82.5550000000000         3.010557251928111E-070
   82.7450000000000         6.734461566580210E-070
   82.9350000000000         1.149668840866571E-069
   83.1250000000000         1.716164742123564E-069
   83.3150000000000         2.339035875148006E-069
   83.5050000000000         2.958298329213849E-069
   83.6950000000000         3.482950194178704E-069
   83.8850000000000         3.787993017493744E-069
   84.0750000000000         3.714840481916212E-069
   84.2650000000000         3.076782871547749E-069
   84.4550000000000         1.671286427531142E-069
   84.6450000000000        -6.991848293177811E-070
   84.8350000000000        -4.196517409815259E-069
   85.0250000000000        -8.905915508163015E-069
   85.2150000000000        -1.478514344339212E-068
   85.4050000000000        -2.160640693745895E-068
   85.5950000000000        -2.889544271941953E-068
   85.7850000000000        -3.587501904944582E-068
   85.9750000000000        -4.142294351325740E-068
   86.1650000000000        -4.405754617292883E-068
   86.3550000000000        -4.196604210699510E-068
   86.5450000000000        -3.309262922236292E-068
   86.7350000000000        -1.530297593053696E-068
   86.9250000000000         1.336085386310525E-068
   87.1150000000000         5.432677460539477E-068
   87.3050000000000         1.080417379947118E-067
   87.4950000000000         1.734388567783235E-067
   87.6850000000000         2.473564113151917E-067
   87.8750000000000         3.239649780083364E-067
   88.0650000000000         3.942841070846438E-067
   88.2550000000000         4.458957849154226E-067
   88.4450000000000         4.629851340395715E-067
   88.6350000000000         4.268551181029054E-067
   88.8250000000000         3.170660956576305E-067
   89.0150000000000         1.133368145814093E-067
   89.2050000000000        -2.016955138736492E-067
   89.3950000000000        -6.388280011566369E-067
   89.5850000000000        -1.197834365663760E-066
   89.7750000000000        -1.862415005573346E-066
   89.9650000000000        -2.594949522466379E-066
   90.1550000000000        -3.331649658690765E-066
   90.3450000000000        -3.978926095013909E-066
   90.5350000000000        -4.411987426747178E-066
   90.7250000000000        -4.476852541058011E-066
   90.9150000000000        -3.997039023406143E-066
   91.1050000000000        -2.786144026161552E-066
   91.2950000000000        -6.673107116273509E-067
   91.4850000000000         2.499875095923982E-066
   91.6750000000000         6.785226774349920E-066
   91.8650000000000         1.214770705141484E-065
   92.0550000000000         1.839154072239075E-065
   92.2450000000000         2.512267013630486E-065
   92.4350000000000         3.171121039738895E-065
   92.6250000000000         3.726724089537447E-065
   92.8150000000000         4.063874176582245E-065
   93.0050000000000         4.044147526727223E-065
   93.1950000000000         3.513079593354147E-065
   93.3850000000000         2.312438734236103E-065
   93.5750000000000         2.982400164676729E-066
   93.7650000000000        -2.635292264669632E-065
   93.9550000000000        -6.526253503848049E-065
   94.1450000000000        -1.131138482272501E-064
   94.3350000000000        -1.679056726914779E-064
   94.5250000000000        -2.259307188798290E-064
   94.7150000000000        -2.815043437657711E-064
   94.9050000000000        -3.268203802641377E-064
   95.0950000000000        -3.520046225963383E-064
   95.2850000000000        -3.454416911893698E-064
   95.4750000000000        -2.944490714754088E-064
   95.6650000000000        -1.863604685013923E-064
   95.8550000000000        -1.005671062245997E-065
   96.0450000000000         2.420558017621183E-064
   96.2350000000000         5.716728515172924E-064
   96.4250000000000         9.719491547758734E-064
   96.6150000000000         1.424789106850580E-063
   96.8050000000000         1.898367357215434E-063
   96.9950000000000         2.345267119669998E-063
   97.1850000000000         2.701706987679933E-063
   97.3750000000000         2.888387195210221E-063
   97.5650000000000         2.813507630113319E-063
   97.7550000000000         2.378474613340847E-063
   97.9450000000000         1.486703324845986E-063
   98.1350000000000         5.572130261441461E-065
   98.3250000000000        -1.967526528805269E-063
   98.5150000000000        -4.588684141475655E-063
   98.7050000000000        -7.746330479129567E-063
   98.8950000000000        -1.129229153607756E-062
   99.0850000000000        -1.497418683909727E-062
   99.2750000000000        -1.842310805290052E-062
   99.4650000000000        -2.114986600021938E-062
   99.6550000000000        -2.255359292923935E-062
   99.8450000000000        -2.194653656762830E-062
   100.035000000000        -1.859851016197438E-062
   100.225000000000        -1.180354948236039E-062
   100.415000000000        -9.697717997570675E-064
   100.605000000000         1.426883368881962E-062
   100.795000000000         3.392294046996552E-062
   100.985000000000         5.750863986545956E-062
   101.175000000000         8.391043709978026E-062
   101.365000000000         1.112628339785223E-061
   101.555000000000         1.368709544789512E-061
   101.745000000000         1.571940193565266E-061
   101.935000000000         1.679174011893854E-061
   102.125000000000         1.641387424469789E-061
   102.315000000000         1.406904135123830E-061
   102.505000000000         9.261368564289922E-062
   102.695000000000         1.578879859685057E-062
   102.885000000000        -9.229072103219348E-062
   103.075000000000        -2.316315265278023E-061
   103.265000000000        -3.987981050556405E-061
   103.455000000000        -5.859981081323284E-061
   103.645000000000        -7.803066400288638E-061
   103.835000000000        -9.631664564856737E-061
   104.025000000000        -1.110320958569510E-060
   104.215000000000        -1.192346770365492E-060
   104.405000000000        -1.175947835369049E-060
   104.595000000000        -1.026148553356329E-060
   104.785000000000        -7.094751382175327E-061
   104.975000000000        -1.981388079839382E-061
   105.165000000000         5.248698655933918E-061
   105.355000000000         1.459997986008394E-060
   105.545000000000         2.585036169707999E-060
   105.735000000000         3.849259856935604E-060
   105.925000000000         5.168523019750304E-060
   106.115000000000         6.422174357152374E-060
   106.305000000000         7.452779512779015E-060
   106.495000000000         8.069680331377960E-060
   106.685000000000         8.057375415475071E-060
   106.875000000000         7.189537317328510E-060
   107.065000000000         5.249166139302135E-060
   107.255000000000         2.054899963341456E-060
   107.445000000000        -2.507146098483065E-060
   107.635000000000        -8.447447574353972E-060
   107.825000000000        -1.563541458004919E-059
   108.015000000000        -2.376338714555471E-059
   108.205000000000        -3.231665153054240E-059
   108.395000000000        -4.055472138508753E-059
   108.585000000000        -4.750974808963247E-059
   108.775000000000        -5.200813952950485E-059
   108.965000000000        -5.272111581496890E-059
   109.155000000000        -4.824885976704097E-059
   109.345000000000        -3.724099912507532E-059
   109.535000000000        -1.855330192906325E-059
   109.725000000000         8.563338279072024E-060
   109.915000000000         4.425022518222557E-059
   110.105000000000         8.781843521335223E-059