  -1.42500000000000         0.000000000000000E+000
  -1.23500000000000         0.000000000000000E+000
  -1.04500000000000         0.000000000000000E+000
 -0.855000000000000         0.000000000000000E+000
 -0.665000000000000         0.000000000000000E+000
 -0.475000000000000         0.000000000000000E+000
 -0.285000000000000         0.000000000000000E+000
 -9.499999999999975E-002    0.000000000000000E+000
  9.500000000000020E-002    0.000000000000000E+000
  0.285000000000000         0.000000000000000E+000
  0.475000000000000         0.000000000000000E+000
  0.665000000000000         0.000000000000000E+000
  0.855000000000000         0.000000000000000E+000
   1.04500000000000         0.000000000000000E+000
   1.23500000000000         0.000000000000000E+000
   1.42500000000000         0.000000000000000E+000
   1.61500000000000         0.000000000000000E+000
   1.80500000000000         0.000000000000000E+000
   1.99500000000000         0.000000000000000E+000
   2.18500000000000         0.000000000000000E+000
   2.37500000000000         0.000000000000000E+000
   2.56500000000000         0.000000000000000E+000
   2.75500000000000         0.000000000000000E+000
   2.94500000000000         0.000000000000000E+000
   3.13500000000000         0.000000000000000E+000
   3.32500000000000         0.000000000000000E+000
   3.51500000000000         0.000000000000000E+000
   3.70500000000000         0.000000000000000E+000
   3.89500000000000         0.000000000000000E+000
   4.08500000000000         0.000000000000000E+000
   4.27500000000000         0.000000000000000E+000
   4.46500000000000         0.000000000000000E+000
   4.65500000000000         0.000000000000000E+000
   4.84500000000000         0.000000000000000E+000
   5.03500000000000         0.000000000000000E+000
   5.22500000000000         0.000000000000000E+000
   5.41500000000000         0.000000000000000E+000
   5.60500000000000         0.000000000000000E+000
   5.79500000000000         0.000000000000000E+000
   5.98500000000000         0.000000000000000E+000
   6.17500000000000         0.000000000000000E+000
   6.36500000000000         0.000000000000000E+000
   6.55500000000000         0.000000000000000E+000
   6.74500000000000        -1.096639687806640E-176
   6.93500000000000         5.388640056774751E-170
   7.12500000000000         1.352891802300011E-166
   7.31500000000000         1.895944785025954E-164
   7.50500000000000         1.266573117576111E-162
   7.69500000000000         5.369081625567934E-161
   7.88500000000000         1.640349715169052E-159
   8.07500000000000         3.888142445178295E-158
   8.26500000000000         7.504319815578664E-157
   8.45500000000000         1.220372650609990E-155
   8.64500000000000         1.715288925932344E-154
   8.83500000000000         2.125114214934471E-153
   9.02500000000000        -4.564303148913428E-152
   9.21500000000000        -9.799466892367528E-150
   9.40500000000000        -5.979386765698142E-148
   9.59500000000000        -2.183983603168457E-146
   9.78500000000000        -5.665325171149013E-145
   9.97500000000000        -1.135748162811254E-143
   10.1650000000000        -1.852065196890755E-142
   10.3550000000000        -2.542423151835100E-141
   10.5450000000000        -3.010858893825855E-140
   10.7350000000000        -3.132606580361104E-139
   10.9250000000000        -2.903854671014817E-138
   11.1150000000000        -2.424697555746754E-137
   11.3050000000000        -1.839574437492470E-136
   11.4950000000000        -1.276803229586872E-135
   11.6850000000000        -8.150301101055877E-135
   11.8750000000000        -4.803337328712022E-134
   12.0650000000000        -2.619849853958987E-133
   12.2550000000000        -1.323379174746337E-132
   12.4450000000000        -6.181537612824383E-132
   12.6350000000000        -2.656559277921918E-131
   12.8250000000000        -1.038471867340124E-130
   13.0150000000000        -3.600397074806437E-130
   13.2050000000000        -1.038355126843279E-129
   13.3950000000000        -1.956059409054114E-129
   13.5850000000000         2.398332376618046E-129
   13.7750000000000         5.161101201140233E-128
   13.9650000000000         3.605219960397865E-127
   14.1550000000000         1.941065440451724E-126
   14.3450000000000         9.132016244480651E-126
   14.5350000000000         3.925480836331947E-125
   14.7250000000000         1.575254662401626E-124
   14.9150000000000         5.973920990265015E-124
   15.1050000000000         2.157755844691868E-123
   15.2950000000000         7.462815342555370E-123
   15.4850000000000         2.481112857500368E-122
   15.6750000000000         7.952544482881758E-122
   15.8650000000000         2.463019153708798E-121
   16.0550000000000         7.384282529085710E-121
   16.2450000000000         2.146061565754967E-120
   16.4350000000000         6.052732366473889E-120
   16.6250000000000         1.658074682514152E-119
   16.8150000000000         4.414320726647430E-119
   17.0050000000000         1.142600021336512E-118
   17.1950000000000         2.875778214128548E-118
   17.3850000000000         7.037122173823697E-118
   17.5750000000000         1.673517575815145E-117
   17.7650000000000         3.864704363658983E-117
   17.9550000000000         8.655582189673202E-117
   18.1450000000000         1.876367743221588E-116
   18.3350000000000         3.925466694711712E-116
   18.5250000000000         7.889213061104816E-116
   18.7150000000000         1.512091479070993E-115
   18.9050000000000         2.729752296992390E-115
   19.0950000000000         4.533600554969888E-115
   19.2850000000000         6.568551705467322E-115
   19.4750000000000         7.005815773897965E-115
   19.6650000000000         1.498015016295694E-118
   19.8550000000000        -3.013185758583249E-114
   20.0450000000000        -1.215244441011965E-113
   20.2350000000000        -3.606409152938787E-113
   20.4250000000000        -9.330674523405760E-113
   20.6150000000000        -2.218677553949779E-112
   20.8050000000000        -4.961615400852927E-112
   20.9950000000000        -1.055798266091514E-111
   21.1850000000000        -2.151145652317379E-111
   21.3750000000000        -4.209105354850678E-111
   21.5650000000000        -7.914282275048418E-111
   21.7550000000000        -1.427656500438117E-110
   21.9450000000000        -2.459729425973015E-110
   22.1350000000000        -4.011648861301242E-110
   22.3250000000000        -6.085593591905332E-110
   22.5150000000000        -8.264712193436807E-110
   22.7050000000000        -9.033999306421187E-110
   22.8950000000000        -4.337538526515378E-110
   23.0850000000000         1.533099991835957E-109
   23.2750000000000         7.056217745913839E-109
   23.4650000000000         2.035790282874482E-108
   23.6550000000000         4.974204672411306E-108
   23.8450000000000         1.109933545410800E-107
   24.0350000000000         2.332585931845409E-107
   24.2250000000000         4.689967814586074E-107
   24.4150000000000         9.104563771783412E-107
   24.6050000000000         1.716396772803004E-106
   24.7950000000000         3.154534210618545E-106
   24.9850000000000         5.667567656174319E-106
   25.1750000000000         9.973690428155888E-106
   25.3650000000000         1.721615741145272E-105
   25.5550000000000         2.918043783277256E-105
   25.7450000000000         4.860094536594206E-105
   25.9350000000000         7.958068107658625E-105
   26.1250000000000         1.281433749867073E-104
   26.3150000000000         2.029237570845912E-104
   26.5050000000000         3.159690699114286E-104
   26.6950000000000         4.835607211753195E-104
   26.8850000000000         7.268491426550163E-104
   27.0750000000000         1.071898196955725E-103
   27.2650000000000         1.548416165663103E-103
   27.4550000000000         2.185950953335399E-103
   27.6450000000000         3.005571013788412E-103
   27.8350000000000         4.003942472009353E-103
   28.0250000000000         5.125127181910359E-103
   28.2150000000000         6.213229174521032E-103
   28.4050000000000         6.936066974362634E-103
   28.5950000000000         6.666227430794675E-103
   28.7850000000000         4.301113116824714E-103
   28.9750000000000        -2.001972029613628E-103
   29.1650000000000        -1.520567574763757E-102
   29.3550000000000        -3.992301464296378E-102
   29.5450000000000        -8.313770183149679E-102
   29.7350000000000        -1.551528656690995E-101
   29.9250000000000        -2.707969168321225E-101
   30.1150000000000        -4.508901970060395E-101
   30.3050000000000        -7.239258847743159E-101
   30.4950000000000        -1.127829760349466E-100
   30.6850000000000        -1.711517070470841E-100
   30.8750000000000        -2.535736051747226E-100
   31.0650000000000        -3.672345094913576E-100
   31.2550000000000        -5.200675825982984E-100
   31.4450000000000        -7.198944096264611E-100
   31.6350000000000        -9.727740188690710E-100
   31.8250000000000        -1.280141986252297E-099
   32.0150000000000        -1.634171005149494E-099
   32.2050000000000        -2.010605883208315E-099
   32.3950000000000        -2.358129378547007E-099
   32.5850000000000        -2.583122171119279E-099
   32.7750000000000        -2.528530745388977E-099
   32.9650000000000        -1.945518517997732E-099
   33.1550000000000        -4.567540514081523E-100
   33.3450000000000         2.489256736602488E-099
   33.5350000000000         7.672235463588760E-099
   33.7250000000000         1.615997709367004E-098
   33.9150000000000         2.936799680774081E-098
   34.1050000000000         4.910782626060349E-098
   34.2950000000000         7.760523333647612E-098
   34.4850000000000         1.174590080471762E-097
   34.6750000000000         1.714966229989602E-097
   34.8650000000000         2.424645300663947E-097
   35.0550000000000         3.324679275669347E-097
   35.2450000000000         4.420480121642112E-097
   35.4350000000000         5.687556139341518E-097
   35.6250000000000         7.050520325500238E-097
   35.8150000000000         8.353467368910406E-097
   36.0050000000000         9.319768469554225E-097
   36.1950000000000         9.499593159226125E-097
   36.3850000000000         8.204240418588954E-097
   36.5750000000000         4.427930013721145E-097
   36.7650000000000        -3.239559481750795E-097
   36.9550000000000        -1.670164996298757E-096
   37.1450000000000        -3.843080275160290E-096
   37.3350000000000        -7.150774149854071E-096
   37.5250000000000        -1.195875338181509E-095
   37.7150000000000        -1.867391836557910E-095
   37.9050000000000        -2.770842918956016E-095
   38.0950000000000        -3.941352243114229E-095
   38.2850000000000        -5.397052407330473E-095
   38.4750000000000        -7.122347870576876E-095
   38.6650000000000        -9.043543862959026E-095
   38.8550000000000        -1.099493100630488E-094
   39.0450000000000        -1.267354346585689E-094
   39.2350000000000        -1.358135308358583E-094
   39.4250000000000        -1.295486383147121E-094
   39.6150000000000        -9.684249023244439E-095
   39.8050000000000        -2.227731439708291E-095
   39.9950000000000         1.146767250051112E-094
   40.1850000000000         3.402009786044786E-094
   40.3750000000000         6.861174200249864E-094
   40.5650000000000         1.188888333559275E-093
   40.7550000000000         1.887009541915349E-093
   40.9450000000000         2.815968978635197E-093
   41.1350000000000         3.999709545619992E-093
   41.3250000000000         5.437305632322927E-093
   41.5150000000000         7.083381488560549E-093
   41.7050000000000         8.820740189727102E-093
   41.8950000000000         1.042384549467456E-092
   42.0850000000000         1.151236513385433E-092
   42.2750000000000         1.149516084871142E-092
   42.4650000000000         9.507180622091634E-093
   42.6550000000000         4.345019239101025E-093
   42.8450000000000        -5.588137449056084E-093
   43.0350000000000        -2.231046849479798E-092
   43.2250000000000        -4.823524738000157E-092
   43.4150000000000        -8.605121186126325E-092
   43.6050000000000        -1.384560089003509E-091
   43.7950000000000        -2.076730880050702E-091
   43.9850000000000        -2.946665176492908E-091
   44.1750000000000        -3.979557341835823E-091
   44.3650000000000        -5.119285370944901E-091
   44.5550000000000        -6.245637782519156E-091
   44.7450000000000        -7.145165861625169E-091
   44.9350000000000        -7.476039084964490E-091
   45.1250000000000        -6.728758826502255E-091
   45.3150000000000        -4.186915590728384E-091
   45.5050000000000         1.104403693748167E-091
   45.6950000000000         1.035022668393587E-090
   45.8850000000000         2.497884328402911E-090
   46.0750000000000         4.655050581107721E-090
   46.2650000000000         7.656725441902848E-090
   46.4550000000000         1.161410032647192E-089
   46.6450000000000         1.654703154495466E-089
   46.8350000000000         2.230740968650736E-089
   47.0250000000000         2.847368685741975E-089
   47.2150000000000         3.421410198612366E-089
   47.4050000000000         3.812038376689161E-089
   47.5950000000000         3.802099483464798E-089
   47.7850000000000         3.079426894420502E-089
   47.9750000000000         1.221798960542849E-089
   48.1650000000000        -2.308631789058764E-089
   48.3550000000000        -8.152888013974713E-089
   48.5450000000000        -1.701298789422966E-088
   48.7350000000000        -2.956503163926340E-088
   48.9250000000000        -4.630966540792993E-088
   49.1150000000000        -6.734046075646480E-088
   49.3050000000000        -9.201181087764390E-088
   49.4950000000000        -1.184934565471444E-087
   49.6850000000000        -1.432110190811425E-087
   49.8750000000000        -1.601936405885986E-087
   50.0650000000000        -1.603838820311866E-087
   50.2550000000000        -1.310139892661824E-087
   50.4450000000000        -5.521807728623310E-088
   50.6350000000000         8.786879443644624E-088
   50.8250000000000         3.221802659132115E-087
   51.0150000000000         6.725164893096795E-087
   51.2050000000000         1.160547184749226E-086
   51.3950000000000         1.798454288255440E-086
   51.5850000000000         2.579682370009843E-086
   51.7750000000000         3.466424121043936E-086
   51.9650000000000         4.373812257290541E-086
   52.1550000000000         5.151385049950389E-086
   52.3450000000000         5.563306871468319E-086
   52.5350000000000         5.270110971196990E-086
   52.7250000000000         3.816410114072510E-086
   52.9150000000000         6.310540180556428E-087
   53.1050000000000        -4.951528939402244E-086
   53.2950000000000        -1.363784487992464E-085
   53.4850000000000        -2.607698518895895E-085
   53.6750000000000        -4.270404815717148E-085
   53.8650000000000        -6.351329302743806E-085
   54.0550000000000        -8.775339151665536E-085
   54.2450000000000        -1.135458969295489E-084
   54.4350000000000        -1.374425004596380E-084
   54.6250000000000        -1.539580006121241E-084
   54.8150000000000        -1.551449547813444E-084
   55.0050000000000        -1.303126389198103E-084
   55.1950000000000        -6.603574670629152E-085
   55.3850000000000         5.335628272142807E-085
   55.5750000000000         2.445765256996055E-084
   55.7650000000000         5.232028960579011E-084
   55.9550000000000         9.002618299363179E-084
   56.1450000000000         1.377351405508851E-083
   56.3350000000000         1.940188474986822E-083
   56.5250000000000         2.550658423959595E-083
   56.7150000000000         3.137749900701921E-083
   56.9050000000000         3.588187633820494E-083
   57.0950000000000         3.738140951033283E-083
   57.2850000000000         3.368072139133112E-083
   57.4750000000000         2.203558073470505E-083
   57.6650000000000        -7.430644349851537E-085
   57.8550000000000        -3.804659266723124E-083
   58.0450000000000        -9.304154834513736E-083
   58.2350000000000        -1.680134445165179E-082
   58.4250000000000        -2.634473494242723E-082
   58.6150000000000        -3.768329778343147E-082
   58.8050000000000        -5.012190691764565E-082
   58.9950000000000        -6.235970919548349E-082
   59.1850000000000        -7.232696616318132E-082
   59.3750000000000        -7.704542795148295E-082
   59.5650000000000        -7.254845760228791E-082
   59.7550000000000        -5.390910148715700E-082
   59.9450000000000        -1.543568163587663E-082
   60.1350000000000         4.889686868656865E-082
   60.3250000000000         1.447087254943830E-081
   60.5150000000000         2.761051524745232E-081
   60.7050000000000         4.441500842780690E-081
   60.8950000000000         6.449172393002948E-081
   61.0850000000000         8.671741700051823E-081
   61.2750000000000         1.089842492617212E-080
   61.4650000000000         1.279493034113517E-080
   61.6550000000000         1.388275591086885E-080
   61.8450000000000         1.352842098264983E-080
   62.0350000000000         1.094985141603852E-080
   62.2250000000000         5.248584475181492E-081
   62.4150000000000        -4.522597323314441E-081
   62.6050000000000        -1.924697298946954E-080
   62.7950000000000        -3.957790553764832E-080
   62.9850000000000        -6.571475067341362E-080
   63.1750000000000        -9.712177513653478E-080
   63.3650000000000        -1.322002071323829E-079
   63.5550000000000        -1.679358801866167E-079
   63.7450000000000        -1.995605621954483E-079
   63.9350000000000        -2.202834190150840E-079
   64.1250000000000        -2.211688790198895E-079
   64.3150000000000        -1.912562918043302E-079
   64.5050000000000        -1.180320394773194E-079
   64.6950000000000         1.162808629067414E-080
   64.8850000000000         2.099346336262251E-079
   65.0750000000000         4.859923034767151E-079
   65.2650000000000         8.429048371679144E-079
   65.4550000000000         1.274224166680182E-078
   65.6450000000000         1.759908106236937E-078
   65.8350000000000         2.262103437592636E-078
   66.0250000000000         2.721254900120212E-078
   66.2150000000000         3.053244126720224E-078
   66.4050000000000         3.148466206886471E-078
   66.5950000000000         2.873925717753459E-078
   66.7850000000000         2.079538921852029E-078
   66.9750000000000         6.098153395834516E-079
   67.1650000000000        -1.678095244429219E-078
   67.3550000000000        -4.889421212468570E-078
   67.5450000000000        -9.059979187242741E-078
   67.7350000000000        -1.411870552447792E-077
   67.9250000000000        -1.984694795958232E-077
   68.1150000000000        -2.583851941683341E-077
   68.3050000000000        -3.146621890636928E-077
   68.4950000000000        -3.586217619525100E-077
   68.6850000000000        -3.792070457507293E-077
   68.8750000000000        -3.633299927780462E-077
   69.0650000000000        -2.966259089590200E-077
   69.2550000000000        -1.646853066208339E-077
   69.4450000000000         4.520526586752785E-078
   69.6350000000000         3.418410208257951E-077
   69.8250000000000         7.275032575723119E-077
   70.0150000000000         1.195195644663139E-076
   70.2050000000000         1.726023928189125E-076
   70.3950000000000         2.287130611582906E-076
   70.5850000000000         2.830669695925702E-076
   70.7750000000000         3.294327661447147E-076
   70.9650000000000         3.603836378411356E-076
   71.1550000000000         3.677753170572292E-076
   71.3450000000000         3.434481194042748E-076
   71.5350000000000         2.801062864058146E-076
   71.7250000000000         1.722718070926860E-076
   71.9150000000000         1.714701897696536E-077
   72.1050000000000        -1.848396324437288E-076
   72.2950000000000        -4.300724894358893E-076
   72.4850000000000        -7.126447423870460E-076
   72.6750000000000        -1.026327692338017E-075
   72.8650000000000        -1.367686564788362E-075
   73.0550000000000        -1.740165187328136E-075
   73.2450000000000        -2.158589522329427E-075
   73.4350000000000        -2.653050894198051E-075
   73.6250000000000        -3.270555265184538E-075
   73.8150000000000        -4.072233724244792E-075
   74.0050000000000        -5.123416062735184E-075
   74.1950000000000        -6.473639649141762E-075
   74.3850000000000        -8.123914962471596E-075
   74.5750000000000        -9.979549543480695E-075
   74.7650000000000        -1.178880696659096E-074
   74.9550000000000        -1.307087648915774E-074
   75.1450000000000        -1.304118485227266E-074
   75.3350000000000        -1.054794680503843E-074
   75.5250000000000        -4.040700333137209E-075
   75.7150000000000         8.401298631751770E-075
   75.9050000000000         2.894671549281864E-074
   76.0950000000000         5.975807468132201E-074
   76.2850000000000         1.025694630293752E-073
   76.4750000000000         1.580681497949634E-073
   76.6650000000000         2.250712695745292E-073
   76.8550000000000         2.995206290470391E-073
   77.0450000000000         3.733653264399549E-073
   77.2350000000000         4.334634172527167E-073
   77.4250000000000         4.607080085352555E-073
   77.6150000000000         4.296640941115583E-073
   77.8050000000000         3.090798957492418E-073
   77.9950000000000         6.369509647782823E-074
   78.1850000000000        -3.422124411982036E-073
   78.3750000000000        -9.391452047845604E-073
   78.5650000000000        -1.744311202178466E-072
   78.7550000000000        -2.751154356319017E-072
   78.9450000000000        -3.916887068218314E-072
   79.1350000000000        -5.148970893327567E-072
   79.3250000000000        -6.292180170777179E-072
   79.5150000000000        -7.118672419041079E-072
   79.7050000000000        -7.324300898468774E-072
   79.8950000000000        -6.535117089258580E-072
   80.0850000000000        -4.328454907795435E-072
   80.2750000000000        -2.729516879294323E-073
   80.4650000000000         6.008900158723699E-072
   80.6550000000000         1.475381230197428E-071
   80.8450000000000         2.594744046521593E-071
   81.0350000000000         3.919613267198865E-071
   81.2250000000000         5.359158856544303E-071
   81.4150000000000         6.758599555087293E-071
   81.6050000000000         7.890243632219493E-071
   81.7950000000000         8.451228298442991E-071
   81.9850000000000         8.071664571323595E-071
   82.1750000000000         6.337109592316787E-071
   82.3650000000000         2.828990903848104E-071
   82.5550000000000        -2.814408325484794E-071
   82.7450000000000        -1.081571894668311E-070
   82.9350000000000        -2.115729980564571E-070
   83.1250000000000        -3.346744826009499E-070
   83.3150000000000        -4.690539770624918E-070
   83.5050000000000        -6.006218255480378E-070
   83.6950000000000        -7.090020916169798E-070
   83.8850000000000        -7.675932206153144E-070
   84.0750000000000        -7.446013102386153E-070
   84.2650000000000        -6.053495245145841E-070
   84.4550000000000        -3.161136623822896E-070
   84.6450000000000         1.503841402320939E-070
   84.8350000000000         8.078862271079016E-070
   85.0250000000000         1.648254370681901E-069
   85.2150000000000         2.632563212540973E-069
   85.4050000000000         3.682740127908619E-069
   85.5950000000000         4.675294679222223E-069
   85.7850000000000         5.439079633471691E-069
   85.9750000000000         5.759308238160655E-069
   86.1650000000000         5.390120252310334E-069
   86.3550000000000         4.077730688219691E-069
   86.5450000000000         1.595497930005114E-069
   86.7350000000000        -2.208984362511428E-069
   86.9250000000000        -7.356491796818964E-069
   87.1150000000000        -1.367259906658146E-068
   87.3050000000000        -2.072495287015000E-068
   87.4950000000000        -2.777154844810287E-068
   87.6850000000000        -3.373319502411777E-068
   87.8750000000000        -3.720573635188906E-068
   88.0650000000000        -3.652865967732778E-068
   88.2550000000000        -2.992570289509405E-068
   88.4450000000000        -1.572914254152216E-068
   88.6350000000000         7.308125950525988E-069
   88.8250000000000         3.962034041271403E-068
   89.0150000000000         8.038010263792404E-068
   89.2050000000000         1.270365587402491E-067
   89.3950000000000         1.749063429210777E-067
   89.5850000000000         2.169056969346221E-067
   89.7750000000000         2.435316931257245E-067
   89.9650000000000         2.432125205408829E-067
   90.1550000000000         2.031460600309894E-067
   90.3450000000000         1.107267095944241E-067
   90.5350000000000        -4.438297919711689E-068
   90.7250000000000        -2.675513611160698E-067
   90.9150000000000        -5.559659971698875E-067
   91.1050000000000        -8.951624637911126E-067
   91.2950000000000        -1.255701081009671E-066
   91.4850000000000        -1.590565940220833E-066
   91.6750000000000        -1.834018550340454E-066
   91.8650000000000        -1.902759848362021E-066
   92.0550000000000        -1.700304768153410E-066
   92.2450000000000        -1.125413484354549E-066
   92.4350000000000        -8.521171088299405E-068
   92.6250000000000         1.486768447487927E-066
   92.8150000000000         3.608012439642507E-066
   93.0050000000000         6.221137797105443E-066
   93.1950000000000         9.166967980367318E-066
   93.3850000000000         1.216002036444123E-065
   93.5750000000000         1.477108649665521E-065
   93.7650000000000         1.642268550517427E-065
   93.9550000000000         1.640394375509683E-065
   94.1450000000000         1.391164025537897E-065
   94.3350000000000         8.123473396347613E-066
   94.5250000000000        -1.692236399744323E-066
   94.7150000000000        -1.602944177146413E-065
   94.9050000000000        -3.496371375538346E-065
   95.0950000000000        -5.794829631016229E-065
   95.2850000000000        -8.360492891994339E-065
   95.4750000000000        -1.095362212651423E-064
   95.6650000000000        -1.321952190346780E-064
   95.8550000000000        -1.468556327439283E-064
   96.0450000000000        -1.477315075821686E-064
   96.2350000000000        -1.282960898818842E-064
   96.4250000000000        -8.184431199844953E-065
   96.6150000000000        -2.329697865972023E-066
   96.8050000000000         1.145171133499283E-064
   96.9950000000000         2.698157034278557E-064
   97.1850000000000         4.599823673387622E-064
   97.3750000000000         6.751246503493323E-064
   97.5650000000000         8.975749604946841E-064
   97.7550000000000         1.100817554401154E-063
   97.9450000000000         1.249119770273448E-063
   98.1350000000000         1.298218090228249E-063
   98.3250000000000         1.197420275250220E-063
   98.5150000000000         8.934530018161998E-064
   98.7050000000000         3.362966838835622E-064
   98.8950000000000        -5.129062813822551E-064
   99.0850000000000        -1.672014645797087E-063
   99.2750000000000        -3.126575707742061E-063
   99.4650000000000        -4.817867223524393E-063
   99.6550000000000        -6.631551005903386E-063
   99.8450000000000        -8.388637927936353E-063
   100.035000000000        -9.840872624799113E-063
   100.225000000000        -1.067295554612671E-062
   100.415000000000        -1.051415120463723E-062
   100.605000000000        -8.961696258110692E-063
   100.795000000000        -5.617929253384524E-063
   100.985000000000        -1.421337306144648E-064
   101.175000000000         7.683341835521513E-063
   101.365000000000         1.787507187551950E-062
   101.555000000000         3.016346811801228E-062
   101.745000000000         4.390825248984876E-062
   101.935000000000         5.802511694397745E-062
   102.125000000000         7.093708330632558E-062
   102.315000000000         8.056645207957615E-062
   102.505000000000         8.438460601386567E-062
   102.695000000000         7.953675243913064E-062
   102.885000000000         6.305635965876538E-062
   103.075000000000         3.217901077737458E-062
   103.265000000000        -1.524278173889315E-062
   103.455000000000        -8.023382257637335E-062
   103.645000000000        -1.621244335539106E-061
   103.835000000000        -2.579551679021785E-061
   104.025000000000        -3.619200276182357E-061
   104.215000000000        -4.649297130548778E-061
   104.405000000000        -5.543937963570453E-061
   104.595000000000        -6.143329904291068E-061
   104.785000000000        -6.259364778630543E-061
   104.975000000000        -5.686708802685483E-061
   105.165000000000        -4.220232449310719E-061
   105.355000000000        -1.679172562454288E-061
   105.545000000000         2.062223469915584E-061
   105.735000000000         7.038678430411721E-061
   105.925000000000         1.315464919419869E-060
   106.115000000000         2.014522795160279E-060
   106.305000000000         2.754178905325900E-060
   106.495000000000         3.464817763843241E-060
   106.685000000000         4.053419414029599E-060
   106.875000000000         4.405365945916197E-060
   107.065000000000         4.389422851721969E-060
   107.255000000000         3.866512852219909E-060
   107.445000000000         2.702692425396604E-060
   107.635000000000         7.864096862833228E-061
   107.825000000000        -1.950340857459868E-060
   108.015000000000        -5.507940647018178E-060
   108.205000000000        -9.793814703083349E-060
   108.395000000000        -1.459827007735829E-059
   108.585000000000        -1.957468715873133E-059
   108.775000000000        -2.422791453676318E-059
   108.965000000000        -2.791519066081073E-059
   109.155000000000        -2.986406714411347E-059
   109.345000000000        -2.921150639131672E-059
   109.535000000000        -2.506744169997991E-059
   109.725000000000        -1.660451303906668E-059
   109.915000000000        -3.173358403695107E-060
   110.105000000000         1.556025689505328E-059