  -1.42500000000000         0.000000000000000E+000
  -1.23500000000000         0.000000000000000E+000
  -1.04500000000000         0.000000000000000E+000
 -0.855000000000000         0.000000000000000E+000
 -0.665000000000000         0.000000000000000E+000
 -0.475000000000000         0.000000000000000E+000
 -0.285000000000000         0.000000000000000E+000
 -9.499999999999975E-002    0.000000000000000E+000
  9.500000000000020E-002    0.000000000000000E+000
  0.285000000000000         0.000000000000000E+000
  0.475000000000000         0.000000000000000E+000
  0.665000000000000         0.000000000000000E+000
  0.855000000000000         0.000000000000000E+000
   1.04500000000000         0.000000000000000E+000
   1.23500000000000         0.000000000000000E+000
   1.42500000000000         0.000000000000000E+000
   1.61500000000000         0.000000000000000E+000
   1.80500000000000         0.000000000000000E+000
   1.99500000000000         0.000000000000000E+000
   2.18500000000000         0.000000000000000E+000
   2.37500000000000         0.000000000000000E+000
   2.56500000000000         0.000000000000000E+000
   2.75500000000000         0.000000000000000E+000
   2.94500000000000         0.000000000000000E+000
   3.13500000000000         0.000000000000000E+000
   3.32500000000000         0.000000000000000E+000
   3.51500000000000         0.000000000000000E+000
   3.70500000000000         0.000000000000000E+000
   3.89500000000000         0.000000000000000E+000
   4.08500000000000         0.000000000000000E+000
   4.27500000000000         0.000000000000000E+000
   4.46500000000000         0.000000000000000E+000
   4.65500000000000         0.000000000000000E+000
   4.84500000000000         0.000000000000000E+000
   5.03500000000000         0.000000000000000E+000
   5.22500000000000         0.000000000000000E+000
   5.41500000000000         0.000000000000000E+000
   5.60500000000000         0.000000000000000E+000
   5.79500000000000         0.000000000000000E+000
   5.98500000000000         0.000000000000000E+000
   6.17500000000000         0.000000000000000E+000
   6.36500000000000         0.000000000000000E+000
   6.55500000000000         0.000000000000000E+000
   6.74500000000000         0.000000000000000E+000
   6.93500000000000        -2.830243527677886E-178
   7.12500000000000        -2.361544025438560E-170
   7.31500000000000        -4.495828306212059E-167
   7.50500000000000        -8.322579159242624E-165
   7.69500000000000        -5.900703399118529E-163
   7.88500000000000        -2.460715287857778E-161
   8.07500000000000        -7.137388303599990E-160
   8.26500000000000        -1.571789335528466E-158
   8.45500000000000        -2.771467112833339E-157
   8.64500000000000        -4.052429682355509E-156
   8.83500000000000        -5.033872036437114E-155
   9.02500000000000        -5.401494171776463E-154
   9.21500000000000         2.013284775484484E-152
   9.40500000000000         2.644012149755460E-150
   9.59500000000000         1.387047807723236E-148
   9.78500000000000         4.705798706692890E-147
   9.97500000000000         1.181336096934094E-145
   10.1650000000000         2.353935190540554E-144
   10.3550000000000         3.891189907309241E-143
   10.5450000000000         5.501787885045769E-142
   10.7350000000000         6.804423944367875E-141
   10.9250000000000         7.488362693665113E-140
   11.1150000000000         7.432881665313172E-139
   11.3050000000000         6.727227478168969E-138
   11.4950000000000         5.601597858087641E-137
   11.6850000000000         4.323381254459110E-136
   11.8750000000000         3.112423262988945E-135
   12.0650000000000         2.101139427002581E-134
   12.2550000000000         1.336213054438132E-133
   12.4450000000000         8.036545586891867E-133
   12.6350000000000         4.586860141696220E-132
   12.8250000000000         2.491737660234940E-131
   13.0150000000000         1.291688498460679E-130
   13.2050000000000         6.404347096710367E-130
   13.3950000000000         3.043214933701103E-129
   13.5850000000000         1.388398123792700E-128
   13.7750000000000         6.091447841523938E-128
   13.9650000000000         2.573857502171530E-127
   14.1550000000000         1.048767731759326E-126
   14.3450000000000         4.125987318445332E-126
   14.5350000000000         1.568951910185289E-125
   14.7250000000000         5.772530520538684E-125
   14.9150000000000         2.056867936790219E-124
   15.1050000000000         7.104111060177544E-124
   15.2950000000000         2.380290186698684E-123
   15.4850000000000         7.742785228542677E-123
   15.6750000000000         2.446925238758887E-122
   15.8650000000000         7.517782979855867E-122
   16.0550000000000         2.246857544708067E-121
   16.2450000000000         6.536294901916273E-121
   16.4350000000000         1.851803919889306E-120
   16.6250000000000         5.111944129047487E-120
   16.8150000000000         1.375653281608880E-119
   17.0050000000000         3.610363738671162E-119
   17.1950000000000         9.244465475526107E-119
   17.3850000000000         2.310216195789496E-118
   17.5750000000000         5.636298958373421E-118
   17.7650000000000         1.342806884139073E-117
   17.9550000000000         3.124584147998561E-117
   18.1450000000000         7.101981724771355E-117
   18.3350000000000         1.576837323390252E-116
   18.5250000000000         3.419621979968514E-116
   18.7150000000000         7.241965036315417E-116
   18.9050000000000         1.497082669422560E-115
   19.0950000000000         3.019002217731820E-115
   19.2850000000000         5.933062544368858E-115
   19.4750000000000         1.134619957910095E-114
   19.6650000000000         2.106791473117775E-114
   19.8550000000000         3.785695751044060E-114
   20.0450000000000         6.548865443846736E-114
   20.2350000000000         1.081387098605995E-113
   20.4250000000000         1.678926841683298E-113
   20.6150000000000         2.377794724934516E-113
   20.8050000000000         2.849442953549397E-113
   20.9950000000000         2.132696380090295E-113
   21.1850000000000        -2.150786060537202E-113
   21.3750000000000        -1.537445407009809E-112
   21.5650000000000        -4.897341536676075E-112
   21.7550000000000        -1.262327124578976E-111
   21.9450000000000        -2.929352677458692E-111
   22.1350000000000        -6.364943803649146E-111
   22.3250000000000        -1.319580388920038E-110
   22.5150000000000        -2.637976223196524E-110
   22.7050000000000        -5.118045906737405E-110
   22.8950000000000        -9.677475442678118E-110
   23.0850000000000        -1.788455575961720E-109
   23.2750000000000        -3.236664779920469E-109
   23.4650000000000        -5.743710909849354E-109
   23.6550000000000        -1.000292073323111E-108
   23.8450000000000        -1.710382251563497E-108
   24.0350000000000        -2.871631922800295E-108
   24.2250000000000        -4.732755920240678E-108
   24.4150000000000        -7.651637440585486E-108
   24.6050000000000        -1.212099135102094E-107
   24.7950000000000        -1.877852622317848E-107
   24.9850000000000        -2.837223985851896E-107
   25.1750000000000        -4.162280647983926E-107
   25.3650000000000        -5.887404298694085E-107
   25.5550000000000        -7.933396400928163E-107
   25.7450000000000        -9.955821805187121E-107
   25.9350000000000        -1.105748820593782E-106
   26.1250000000000        -9.263095208698327E-107
   26.3150000000000        -5.855256151431435E-108
   26.5050000000000         2.259794811353767E-106
   26.6950000000000         7.432005660757353E-106
   26.8850000000000         1.796941863079545E-105
   27.0750000000000         3.826782701306518E-105
   27.2650000000000         7.588379513504498E-105
   27.4550000000000         1.436120918527281E-104
   27.6450000000000         2.628366371553153E-104
   27.8350000000000         4.688904226803517E-104
   28.0250000000000         8.195609218423979E-104
   28.2150000000000         1.408483900762872E-103
   28.4050000000000         2.386077321027839E-103
   28.5950000000000         3.992015856767785E-103
   28.7850000000000         6.605227053272819E-103
   28.9750000000000         1.082026273872514E-102
   29.1650000000000         1.756300687698375E-102
   29.3550000000000         2.826445587574379E-102
   29.5450000000000         4.511925972338067E-102
   29.7350000000000         7.146638064925535E-102
   29.9250000000000         1.123430536196162E-101
   30.1150000000000         1.752803148956305E-101
   30.3050000000000         2.714279763683558E-101
   30.4950000000000         4.171166989506086E-101
   30.6850000000000         6.359793934536333E-101
   30.8750000000000         9.617530390179559E-101
   31.0650000000000         1.441846230697037E-100
   31.2550000000000         2.141655249413618E-100
   31.4450000000000         3.149390273988807E-100
   31.6350000000000         4.580752977619003E-100
   31.8250000000000         6.582066986991677E-100
   32.0150000000000         9.329231130354434E-100
   32.2050000000000         1.301790498819626E-099
   32.3950000000000         1.783733647670390E-099
   32.5850000000000         2.391581944923836E-099
   32.7750000000000         3.121949302617002E-099
   32.9650000000000         3.937764026263978E-099
   33.1550000000000         4.739651808634666E-099
   33.3450000000000         5.321010309268691E-099
   33.5350000000000         5.300071273038144E-099
   33.7250000000000         4.020723422693116E-099
   33.9150000000000         4.127651258849683E-100
   34.1050000000000        -7.197722942288882E-099
   34.2950000000000        -2.133489410602837E-098
   34.4850000000000        -4.567720022275619E-098
   34.6750000000000        -8.540669589971920E-098
   34.8650000000000        -1.475681456937233E-097
   35.0550000000000        -2.413645849573932E-097
   35.2450000000000        -3.782576249898847E-097
   35.4350000000000        -5.716556135655707E-097
   35.6250000000000        -8.358544900455254E-097
   35.8150000000000        -1.183740185982591E-096
   36.0050000000000        -1.622567361168534E-096
   36.1950000000000        -2.146905118532230E-096
   36.3850000000000        -2.727608374049271E-096
   36.5750000000000        -3.295478448131268E-096
   36.7650000000000        -3.718195768652322E-096
   36.9550000000000        -3.769264381859514E-096
   37.1450000000000        -3.088284479536518E-096
   37.3350000000000        -1.133119507654341E-096
   37.5250000000000         2.873217272556137E-096
   37.7150000000000         9.994454193818708E-096
   37.9050000000000         2.161966421604842E-095
   38.0950000000000         3.946859543474863E-095
   38.2850000000000         6.553310529451527E-095
   38.4750000000000         1.019106137516247E-094
   38.6650000000000         1.504696321164543E-094
   38.8550000000000         2.122704765558016E-094
   39.0450000000000         2.866489093992978E-094
   39.2350000000000         3.698612923098960E-094
   39.4250000000000         4.531941306503173E-094
   39.6150000000000         5.204691751184556E-094
   39.8050000000000         5.449418675403478E-094
   39.9950000000000         4.857141455762454E-094
   40.1850000000000         2.839840371322273E-094
   40.3750000000000        -1.402428899025994E-094
   40.5650000000000        -8.899305433730743E-094
   40.7550000000000        -2.089669343864943E-093
   40.9450000000000        -3.878918024454505E-093
   41.1350000000000        -6.396758177981570E-093
   41.3250000000000        -9.754311067706950E-093
   41.5150000000000        -1.399034656235859E-092
   41.7050000000000        -1.900541078796441E-092
   41.8950000000000        -2.447039091896660E-092
   42.0850000000000        -2.970734006447082E-092
   42.2750000000000        -3.354426147554699E-092
   42.4650000000000        -3.415217441695122E-092
   42.6550000000000        -2.888297520701873E-092
   42.8450000000000        -1.414109833213990E-092
   43.0350000000000         1.465880544538784E-092
   43.2250000000000         6.297224828483440E-092
   43.4150000000000         1.367405360734538E-091
   43.6050000000000         2.416118051974936E-091
   43.7950000000000         3.816158030060115E-091
   43.9850000000000         5.571326362944520E-091
   44.1750000000000         7.620135206179820E-091
   44.3650000000000         9.797716152843383E-091
   44.5550000000000         1.178883550089465E-090
   44.7450000000000         1.307450223348080E-090
   44.9350000000000         1.287782046216728E-090
   45.1250000000000         1.011917845376615E-090
   45.3150000000000         3.396655398309938E-091
   45.5050000000000        -8.985474788056563E-091
   45.6950000000000        -2.890954036879247E-090
   45.8850000000000        -5.822050677884009E-090
   46.0750000000000        -9.834165440200492E-090
   46.2650000000000        -1.496852092268741E-089
   46.4550000000000        -2.108200582588192E-089
   46.6450000000000        -2.773778872140510E-089
   46.8350000000000        -3.407159673054359E-089
   47.0250000000000        -3.864150919106115E-089
   47.2150000000000        -3.927801094144639E-089
   47.4050000000000        -3.296316748740522E-089
   47.5950000000000        -1.578311750798495E-089
   47.7850000000000         1.698399907234622E-089
   47.9750000000000         7.056360656733322E-089
   48.1650000000000         1.500655498877791E-088
   48.3550000000000         2.594412307326976E-088
   48.5450000000000         3.999099809865383E-088
   48.7350000000000         5.677709189580103E-088
   48.9250000000000         7.515716200459345E-088
   49.1150000000000         9.287036117453926E-088
   49.3050000000000         1.061648808252555E-087
   49.4950000000000         1.094320266454576E-087
   49.6850000000000         9.492295212576532E-088
   49.8750000000000         5.265660668446840E-088
   50.0650000000000        -2.933279781524832E-088
   50.2550000000000        -1.642205056974443E-087
   50.4450000000000        -3.648665668689184E-087
   50.6350000000000        -6.413041275332939E-087
   50.8250000000000        -9.970181382141849E-087
   51.0150000000000        -1.423856347027402E-086
   51.2050000000000        -1.895549013587485E-086
   51.3950000000000        -2.360040777865826E-086
   51.5850000000000        -2.731178080268293E-086
   51.7750000000000        -2.880762615226509E-086
   51.9650000000000        -2.632576835219406E-086
   52.1550000000000        -1.760691687708886E-086
   52.3450000000000         4.871258235867663E-089
   52.5350000000000         2.961323881928086E-086
   52.7250000000000         7.400794292519674E-086
   52.9150000000000         1.355799613406361E-085
   53.1050000000000         2.153385730452284E-085
   53.2950000000000         3.119253814574305E-085
   53.4850000000000         4.203205718412148E-085
   53.6750000000000         5.303321945987398E-085
   53.8650000000000         6.249800648812763E-085
   54.0550000000000         6.789719128757533E-085
   54.2450000000000         6.575758371065011E-085
   54.4350000000000         5.163149531550153E-085
   54.6250000000000         2.020369930188982E-085
   54.8150000000000        -3.439738936670622E-085
   55.0050000000000        -1.180099459601923E-084
   55.1950000000000        -2.354956552125376E-084
   55.3850000000000        -3.893798839531040E-084
   55.5750000000000        -5.780396824197053E-084
   55.7650000000000        -7.934543013577835E-084
   55.9550000000000        -1.018610157914174E-083
   56.1450000000000        -1.224760243984739E-083
   56.3350000000000        -1.368877816759136E-083
   56.5250000000000        -1.391812387307696E-083
   56.7150000000000        -1.217842637604320E-083
   56.9050000000000        -7.565074616707990E-084
   57.0950000000000         9.224630197571271E-085
   57.2850000000000         1.428474087940938E-083
   57.4750000000000         3.337114418930786E-083
   57.6650000000000         5.866481744315381E-083
   57.8550000000000         9.000006481862829E-083
   58.0450000000000         1.262169172072651E-082
   58.2350000000000         1.647699664002804E-082
   58.4250000000000         2.013254355148220E-082
   58.6150000000000         2.294017116257551E-082
   58.8050000000000         2.401333962292915E-082
   58.9950000000000         2.222654653658115E-082
   59.1850000000000         1.625091302199953E-082
   59.3750000000000         4.640952730371788E-083
   59.5650000000000        -1.401193714998760E-082
   59.7550000000000        -4.084539974047761E-082
   59.9450000000000        -7.640251221214916E-082
   60.1350000000000        -1.202190004316283E-081
   60.3250000000000        -1.703363977145305E-081
   60.5150000000000        -2.227773707158608E-081
   60.7050000000000        -2.710471646242632E-081
   60.8950000000000        -3.057588266751563E-081
   61.0850000000000        -3.145174468108925E-081
   61.2750000000000        -2.822359779101113E-081
   61.4650000000000        -1.920855242949407E-081
   61.6550000000000        -2.729645607747166E-082
   61.8450000000000         2.259899389549119E-081
   62.0350000000000         5.746828088938641E-081
   62.2250000000000         1.013508362326020E-080
   62.4150000000000         1.518787532467518E-080
   62.6050000000000         2.041745185472629E-080
   62.7950000000000         2.502295886397049E-080
   62.9850000000000         2.784779100640910E-080
   63.1750000000000         2.737717496363012E-080
   63.3650000000000         2.180280549936453E-080
   63.5550000000000         9.186405535497460E-081
   63.7450000000000        -1.224358712425906E-080
   63.9350000000000        -4.363070509373567E-080
   64.1250000000000        -8.484368263807366E-080
   64.3150000000000        -1.336454841397211E-079
   64.5050000000000        -1.847164456257465E-079
   64.6950000000000        -2.286250467443584E-079
   64.8850000000000        -2.509149645491694E-079
   65.0750000000000        -2.315712738891075E-079
   65.2650000000000        -1.452367771663582E-079
   65.4550000000000         3.734001560516455E-080
   65.6450000000000         3.460506978824347E-079
   65.8350000000000         8.057467753687659E-079
   66.0250000000000         1.427558186376141E-078
   66.2150000000000         2.196822921686003E-078
   66.4050000000000         3.057633387633782E-078
   66.5950000000000         3.894669452996818E-078
   66.7850000000000         4.513981373923111E-078
   66.9750000000000         4.625742057674089E-078
   67.1650000000000         3.833694850377610E-078
   67.3550000000000         1.637991929567559E-078
   67.5450000000000        -2.539848720621787E-078
   67.7350000000000        -9.299386913964173E-078
   67.9250000000000        -1.915967285534169E-077
   68.1150000000000        -3.240276826337896E-077
   68.3050000000000        -4.885452131085791E-077
   68.4950000000000        -6.760124240055949E-077
   68.6850000000000        -8.665203415988688E-077
   68.8750000000000        -1.025732195799325E-076
   69.0650000000000        -1.101441703613548E-076
   69.2550000000000        -1.021126843790653E-076
   69.4450000000000        -6.916149467352538E-077
   69.6350000000000        -2.323565676703963E-079
   69.8250000000000         1.166150023624993E-076
   70.0150000000000         2.926132030159474E-076
   70.2050000000000         5.357758835647463E-076
   70.3950000000000         8.473164497563085E-076
   70.5850000000000         1.216945385608507E-075
   70.7750000000000         1.617162427485474E-075
   70.9650000000000         1.996913736795696E-075
   71.1550000000000         2.275332957796933E-075
   71.3450000000000         2.336726283015678E-075
   71.5350000000000         2.028475012464452E-075
   71.7250000000000         1.164068884470368E-075
   71.9150000000000        -4.660288214265000E-076
   72.1050000000000        -3.072665241733805E-075
   72.2950000000000        -6.832422721770825E-075
   72.4850000000000        -1.183571545939273E-074
   72.6750000000000        -1.801738455576343E-074
   72.8650000000000        -2.507090441502670E-074
   73.0550000000000        -3.235079511493861E-074
   73.2450000000000        -3.877263360058028E-074
   73.4350000000000        -4.272613935650816E-074
   73.6250000000000        -4.202390757030791E-074
   73.8150000000000        -3.391587302813571E-074
   74.0050000000000        -1.520648618985963E-074
   74.1950000000000         1.748365169525422E-074
   74.3850000000000         6.726936227495897E-074
   74.5750000000000         1.363294686110663E-073
   74.7650000000000         2.249918903115649E-073
   74.9550000000000         3.305830001380299E-073
   75.1450000000000         4.460922668897635E-073
   75.3350000000000         5.587630190003077E-073
   75.5250000000000         6.487961024622887E-073
   75.7150000000000         6.884419992389610E-073
   75.9050000000000         6.418513932038508E-073
   76.0950000000000         4.661420260384907E-073
   76.2850000000000         1.142030419925488E-073
   76.4750000000000        -4.602270541077221E-073
   76.6650000000000        -1.294735563577561E-072
   76.8550000000000        -2.407364289128777E-072
   77.0450000000000        -3.782709989291220E-072
   77.2350000000000        -5.355505341904605E-072
   77.4250000000000        -6.992868903198216E-072
   77.6150000000000        -8.477276904113707E-072
   77.8050000000000        -9.493322349765607E-072
   77.9950000000000        -9.622408437517747E-072
   78.1850000000000        -8.350541045588808E-072
   78.3750000000000        -5.095145367049673E-072
   78.5650000000000         7.429216079142354E-073
   78.7550000000000         9.696570027381623E-072
   78.9450000000000         2.211504743741611E-071
   79.1350000000000         3.801131563106761E-071
   79.3250000000000         5.687876384758304E-071
   79.5150000000000         7.748887240639708E-071
   79.7050000000000         9.769046869823120E-071
   79.8950000000000         1.142418208834460E-070
   80.0850000000000         1.227181955196746E-070
   80.2750000000000         1.175483373082440E-070
   80.4650000000000         9.224169064460453E-071
   80.6550000000000         3.987154658631140E-071
   80.8450000000000        -4.612539111906377E-071
   81.0350000000000        -1.707886623120642E-070
   81.2250000000000        -3.360995345876584E-070
   81.4150000000000        -5.391075811350224E-070
   81.6050000000000        -7.698216381710918E-070
   81.7950000000000        -1.009055425377678E-069
   81.9850000000000        -1.226520705129830E-069
   82.1750000000000        -1.379571686560288E-069
   82.3650000000000        -1.413111255272114E-069
   82.5550000000000        -1.261254931853051E-069
   82.7450000000000        -8.513891843336223E-070
   82.9350000000000        -1.112290707168308E-070
   83.1250000000000         1.020654558189463E-069
   83.3150000000000         2.580636546466621E-069
   83.5050000000000         4.562394149487666E-069
   83.6950000000000         6.896649170232472E-069
   83.8850000000000         9.429902534025905E-069
   84.0750000000000         1.190469028317896E-068
   84.2650000000000         1.394489499486772E-068
   84.4550000000000         1.505063143505910E-068
   84.6450000000000         1.460804077168457E-068
   84.8350000000000         1.191977872137468E-068
   85.0250000000000         6.261834509418362E-069
   85.2150000000000        -3.028690913499747E-069
   85.4050000000000        -1.643234814513063E-068
   85.5950000000000        -3.409361968032967E-068
   85.7850000000000        -5.564065448777534E-068
   85.9750000000000        -7.999084160007850E-068
   86.1650000000000        -1.051623342991588E-067
   86.3550000000000        -1.281201643354816E-067
   86.5450000000000        -1.446941085190583E-067
   86.7350000000000        -1.496128170933411E-067
   86.9250000000000        -1.367033455107734E-067
   87.1150000000000        -9.930528697051776E-068
   87.3050000000000        -3.094210804827262E-068
   87.4950000000000         7.372305574238716E-068
   87.6850000000000         2.176458354035177E-067
   87.8750000000000         3.999097803476415E-067
   88.0650000000000         6.140725553952370E-067
   88.2550000000000         8.464960789514714E-067
   88.4450000000000         1.074875448798177E-066
   88.6350000000000         1.267251044658546E-066
   88.8250000000000         1.381850798771024E-066
   89.0150000000000         1.368153956831586E-066
   89.2050000000000         1.169579876178799E-066
   89.3950000000000         7.281699324451088E-067
   89.5850000000000        -8.468624317688448E-069
   89.7750000000000        -1.077865614951187E-066
   89.9650000000000        -2.491213016261200E-066
   90.1550000000000        -4.220246694202287E-066
   90.3450000000000        -6.183464137646749E-066
   90.5350000000000        -8.233167125382602E-066
   90.7250000000000        -1.014535441112974E-065
   90.9150000000000        -1.161499453766956E-065
   91.1050000000000        -1.225960480481166E-065
   91.2950000000000        -1.163425247331814E-065
   91.4850000000000        -9.260967549930280E-066
   91.6750000000000        -4.674996083830935E-066
   91.8650000000000         2.510781625320856E-066
   92.0550000000000         1.252367949806640E-065
   92.2450000000000         2.533410359358997E-065
   92.4350000000000         4.054940534103012E-065
   92.6250000000000         5.730817623646922E-065
   92.8150000000000         7.418837856246031E-065
   93.0050000000000         8.914656193404155E-065
   93.1950000000000         9.950871553559822E-065
   93.3850000000000         1.020354135018141E-064
   93.5750000000000         9.308407794749659E-065
   93.7650000000000         6.888859977109262E-065
   93.9550000000000         2.597042263785775E-065
   94.1450000000000        -3.831517334224521E-065
   94.3350000000000        -1.251088936938924E-064
   94.5250000000000        -2.332844206279848E-064
   94.7150000000000        -3.586475937884654E-064
   94.9050000000000        -4.931797252954455E-064
   95.0950000000000        -6.244347995526947E-064
   95.2850000000000        -7.352259778378444E-064
   95.4750000000000        -8.037564063090472E-064
   95.6650000000000        -8.043580324872856E-064
   95.8550000000000        -7.089946135455493E-064
   96.0450000000000        -4.896558380709321E-064
   96.2350000000000        -1.217134137833341E-064
   96.4250000000000         4.117767472760619E-064
   96.6150000000000         1.114961174317442E-063
   96.8050000000000         1.973549133622364E-063
   96.9950000000000         2.949106359284101E-063
   97.1850000000000         3.973931077602540E-063
   97.3750000000000         4.947347487091948E-063
   97.5650000000000         5.734412315612657E-063
   97.7550000000000         6.168135772002147E-063
   97.9450000000000         6.056335540895175E-063
   98.1350000000000         5.194135314547140E-063
   98.3250000000000         3.382852347622061E-063
   98.5150000000000         4.555614761002969E-064
   98.7050000000000        -3.691043545519246E-063
   98.8950000000000        -9.059749167025611E-063
   99.0850000000000        -1.551320885997988E-062
   99.2750000000000        -2.273515370865775E-062
   99.4650000000000        -3.019722402026169E-062
   99.6550000000000        -3.713740668795545E-062
   99.8450000000000        -4.255701187375783E-062
   100.035000000000        -4.524363326875543E-062
   100.225000000000        -4.382738483815035E-062
   100.415000000000        -3.687666193871228E-062
   100.605000000000        -2.303752039730282E-062
   100.795000000000        -1.217334678556857E-063
   100.985000000000         2.919139982209881E-062
   101.175000000000         6.805737645113556E-062
   101.365000000000         1.142443971178998E-061
   101.555000000000         1.653583562573756E-061
   101.745000000000         2.175407737208413E-061
   101.935000000000         2.653495846419444E-061
   102.125000000000         3.017731947591027E-061
   102.315000000000         3.184258806621634E-061
   102.505000000000         3.059700362863256E-061
   102.695000000000         2.548021263962111E-061
   102.885000000000         1.560232598095468E-061
   103.075000000000         2.691164415144857E-063
   103.265000000000        -2.086822408144079E-061
   103.455000000000        -4.764639485716132E-061
   103.645000000000        -7.921865931530047E-061
   103.835000000000        -1.138961693353278E-060
   104.025000000000        -1.490241092493336E-060
   104.215000000000        -1.809190110252596E-060
   104.405000000000        -2.048963641348857E-060
   104.595000000000        -2.154181925721118E-060
   104.785000000000        -2.063877431348162E-060
   104.975000000000        -1.716120069808990E-060
   105.165000000000        -1.054418058330733E-060
   105.355000000000        -3.583206401071400E-062
   105.545000000000         1.359469224156743E-060
   105.735000000000         3.117737827194851E-060
   105.925000000000         5.181071311102214E-060
   106.115000000000         7.437843798010261E-060
   106.305000000000         9.715535432678593E-060
   106.495000000000         1.177758238722435E-059
   106.685000000000         1.332600369140493E-059
   106.875000000000         1.401155207866254E-059
   107.065000000000         1.345293508734782E-059
   107.255000000000         1.126621544131111E-059
   107.445000000000         7.104792217805133E-060
   107.635000000000         7.093700426811725E-061
   107.825000000000        -8.033948598377299E-060
   108.015000000000        -1.903082110243198E-059
   108.205000000000        -3.191610882645301E-059
   108.395000000000        -4.599833650351462E-059
   108.585000000000        -6.021944784632162E-059
   108.775000000000        -7.313933657829017E-059
   108.965000000000        -8.295523115495122E-059
   109.155000000000        -8.756574700789624E-059
   109.345000000000        -8.468803211183310E-059
   109.535000000000        -7.203369274478733E-059
   109.725000000000        -4.754493688630861E-059
   109.915000000000        -9.686559883315180E-060
   110.105000000000         4.221788504786465E-059