  -1.42500000000000         0.000000000000000E+000
  -1.23500000000000         0.000000000000000E+000
  -1.04500000000000         0.000000000000000E+000
 -0.855000000000000         0.000000000000000E+000
 -0.665000000000000         0.000000000000000E+000
 -0.475000000000000         0.000000000000000E+000
 -0.285000000000000         0.000000000000000E+000
 -9.499999999999975E-002    0.000000000000000E+000
  9.500000000000020E-002    0.000000000000000E+000
  0.285000000000000         0.000000000000000E+000
  0.475000000000000         0.000000000000000E+000
  0.665000000000000         0.000000000000000E+000
  0.855000000000000         0.000000000000000E+000
   1.04500000000000         0.000000000000000E+000
   1.23500000000000         0.000000000000000E+000
   1.42500000000000         0.000000000000000E+000
   1.61500000000000         0.000000000000000E+000
   1.80500000000000         0.000000000000000E+000
   1.99500000000000         0.000000000000000E+000
   2.18500000000000         0.000000000000000E+000
   2.37500000000000         0.000000000000000E+000
   2.56500000000000         0.000000000000000E+000
   2.75500000000000         0.000000000000000E+000
   2.94500000000000         0.000000000000000E+000
   3.13500000000000         0.000000000000000E+000
   3.32500000000000         0.000000000000000E+000
   3.51500000000000         0.000000000000000E+000
   3.70500000000000         0.000000000000000E+000
   3.89500000000000         0.000000000000000E+000
   4.08500000000000         0.000000000000000E+000
   4.27500000000000         0.000000000000000E+000
   4.46500000000000         0.000000000000000E+000
   4.65500000000000         0.000000000000000E+000
   4.84500000000000         0.000000000000000E+000
   5.03500000000000         0.000000000000000E+000
   5.22500000000000         0.000000000000000E+000
   5.41500000000000         0.000000000000000E+000
   5.60500000000000         0.000000000000000E+000
   5.79500000000000         0.000000000000000E+000
   5.98500000000000         0.000000000000000E+000
   6.17500000000000         0.000000000000000E+000
   6.36500000000000         0.000000000000000E+000
   6.55500000000000         0.000000000000000E+000
   6.74500000000000         0.000000000000000E+000
   6.93500000000000        -2.289161112118080E-176
   7.12500000000000        -4.052234984643619E-169
   7.31500000000000         1.469493505778450E-167
   7.50500000000000         1.125724626454193E-165
   7.69500000000000        -1.657626136065798E-164
   7.88500000000000        -3.184977090826751E-162
   8.07500000000000        -1.433209300985671E-160
   8.26500000000000        -4.072216942277653E-159
   8.45500000000000        -8.700600681682952E-158
   8.64500000000000        -1.508597422955021E-156
   8.83500000000000        -2.217803575692476E-155
   9.02500000000000        -2.845173259469910E-154
   9.21500000000000        -7.750994382301506E-153
   9.40500000000000        -4.007643084882145E-151
   9.59500000000000        -1.698716930777274E-149
   9.78500000000000        -5.548466737799238E-148
   9.97500000000000        -1.455363498191733E-146
   10.1650000000000        -3.149539920214333E-145
   10.3550000000000        -5.733790185767711E-144
   10.5450000000000        -8.932508043300810E-143
   10.7350000000000        -1.209540713974713E-141
   10.9250000000000        -1.443624030333947E-140
   11.1150000000000        -1.537424011210520E-139
   11.3050000000000        -1.476520055459658E-138
   11.4950000000000        -1.290468104323519E-137
   11.6850000000000        -1.034467410066885E-136
   11.8750000000000        -7.657273198480320E-136
   12.0650000000000        -5.264359039102372E-135
   12.2550000000000        -3.378459643254995E-134
   12.4450000000000        -2.032795802503531E-133
   12.6350000000000        -1.151127015504147E-132
   12.8250000000000        -6.155240439488763E-132
   13.0150000000000        -3.116787520143985E-131
   13.2050000000000        -1.498259467750482E-130
   13.3950000000000        -6.851788420235943E-130
   13.5850000000000        -2.986253797257170E-129
   13.7750000000000        -1.242150962345131E-128
   13.9650000000000        -4.936390580170816E-128
   14.1550000000000        -1.875518647006898E-127
   14.3450000000000        -6.813878005409124E-127
   14.5350000000000        -2.366208777735350E-126
   14.7250000000000        -7.844557098083895E-126
   14.9150000000000        -2.476808979089662E-125
   15.1050000000000        -7.415725066468953E-125
   15.2950000000000        -2.089531648603411E-124
   15.4850000000000        -5.463795524947495E-124
   15.6750000000000        -1.288523873366224E-123
   15.8650000000000        -2.553201418103224E-123
   16.0550000000000        -3.223094438790373E-123
   16.2450000000000         4.155916131937604E-123
   16.4350000000000         5.250132367617751E-122
   16.6250000000000         2.652304064883715E-121
   16.8150000000000         1.062840620844138E-120
   17.0050000000000         3.785439930899884E-120
   17.1950000000000         1.248915558595385E-119
   17.3850000000000         3.894047171408728E-119
   17.5750000000000         1.160515799011656E-118
   17.7650000000000         3.329641283096414E-118
   17.9550000000000         9.241988475181824E-118
   18.1450000000000         2.490527398269159E-117
   18.3350000000000         6.533362906788171E-117
   18.5250000000000         1.671903625106890E-116
   18.7150000000000         4.180671344864452E-116
   18.9050000000000         1.022918754092007E-115
   19.0950000000000         2.451860722075973E-115
   19.2850000000000         5.762739377080017E-115
   19.4750000000000         1.329209935745557E-114
   19.6650000000000         3.010830587673645E-114
   19.8550000000000         6.701234865571847E-114
   20.0450000000000         1.466232390509213E-113
   20.2350000000000         3.154958363731950E-113
   20.4250000000000         6.678102366936363E-113
   20.6150000000000         1.390820225575189E-112
   20.8050000000000         2.850377083887308E-112
   20.9950000000000         5.748666019775338E-112
   21.1850000000000         1.140905318423828E-111
   21.3750000000000         2.227903974106706E-111
   21.5650000000000         4.279696022926163E-111
   21.7550000000000         8.084576762633138E-111
   21.9450000000000         1.501178989364901E-110
   22.1350000000000         2.738252153568430E-110
   22.3250000000000         4.902623974670861E-110
   22.5150000000000         8.606608264685410E-110
   22.7050000000000         1.479317134880999E-109
   22.8950000000000         2.484681585357181E-109
   23.0850000000000         4.067083832020731E-109
   23.2750000000000         6.462533109028146E-109
   23.4650000000000         9.909975278564208E-109
   23.6550000000000         1.452732198053061E-108
   23.8450000000000         2.002292623769094E-108
   24.0350000000000         2.509413503071282E-108
   24.2250000000000         2.625906172909920E-108
   24.4150000000000         1.570286535600813E-108
   24.6050000000000        -2.252796789475121E-108
   24.7950000000000        -1.190064325326243E-107
   24.9850000000000        -3.295909848785371E-107
   25.1750000000000        -7.524073636160136E-107
   25.3650000000000        -1.553988600865610E-106
   25.5550000000000        -3.008081585289264E-106
   25.7450000000000        -5.550935606038021E-106
   25.9350000000000        -9.856213471169811E-106
   26.1250000000000        -1.692986821040227E-105
   26.3150000000000        -2.821843417740957E-105
   26.5050000000000        -4.570992078480081E-105
   26.6950000000000        -7.197964404693538E-105
   26.8850000000000        -1.100857885661594E-104
   27.0750000000000        -1.631390655032107E-104
   27.2650000000000        -2.332396386991436E-104
   27.4550000000000        -3.192669939181376E-104
   27.6450000000000        -4.126891270720082E-104
   27.8350000000000        -4.900783924319495E-104
   28.0250000000000        -5.003199378386648E-104
   28.2150000000000        -3.434961448631673E-104
   28.4050000000000         1.629671154070038E-104
   28.5950000000000         1.337203628319974E-103
   28.7850000000000         3.713669344109002E-103
   28.9750000000000         8.163750370929299E-103
   29.1650000000000         1.607206141499773E-102
   29.3550000000000         2.958868285555404E-102
   29.5450000000000         5.198213444061939E-102
   29.7350000000000         8.812174608347664E-102
   29.9250000000000         1.451197323305827E-101
   30.1150000000000         2.331601151307297E-101
   30.3050000000000         3.665295132368053E-101
   30.4950000000000         5.648373449907080E-101
   30.6850000000000         8.543607412263988E-101
   30.8750000000000         1.269358973651536E-100
   31.0650000000000         1.853054919796206E-100
   31.2550000000000         2.657752381044814E-100
   31.4450000000000         3.743216609815681E-100
   31.6350000000000         5.171953338628956E-100
   31.8250000000000         6.999336344025868E-100
   32.0150000000000         9.255612202678576E-100
   32.2050000000000         1.191561875857082E-099
   32.3950000000000         1.485057934280155E-099
   32.5850000000000         1.775461301124718E-099
   32.7750000000000         2.003674893760278E-099
   32.9650000000000         2.066749974610676E-099
   33.1550000000000         1.796788354479103E-099
   33.3450000000000         9.328925905776340E-100
   33.5350000000000        -9.147744378913073E-100
   33.7250000000000        -4.309091445024754E-099
   33.9150000000000        -1.003720582339882E-098
   34.1050000000000        -1.916559757667333E-098
   34.2950000000000        -3.309210871771245E-098
   34.4850000000000        -5.358269098442844E-098
   34.6750000000000        -8.277294354138866E-098
   34.8650000000000        -1.231040159466671E-097
   35.0550000000000        -1.771487306922561E-097
   35.2450000000000        -2.472666827988261E-097
   35.4350000000000        -3.350069447422446E-097
   35.6250000000000        -4.401550161099039E-097
   35.8150000000000        -5.592992586575404E-097
   36.0050000000000        -6.837755442667444E-097
   36.1950000000000        -7.968440365116148E-097
   36.3850000000000        -8.699690276947712E-097
   36.5750000000000        -8.581256992929960E-097
   36.7650000000000        -6.941653586428296E-097
   36.9550000000000        -2.824568604378475E-097
   37.1450000000000         5.076851401565066E-097
   37.3350000000000         1.847843249900938E-096
   37.5250000000000         3.954068706441772E-096
   37.7150000000000         7.085840242316291E-096
   37.9050000000000         1.153706158156504E-095
   38.0950000000000         1.761454168658871E-095
   38.2850000000000         2.559804819733554E-095
   38.4750000000000         3.567463852194257E-095
   38.6650000000000         4.783875705328878E-095
   38.8550000000000         6.174886150529706E-095
   39.0450000000000         7.653157803890141E-095
   39.2350000000000         9.052623909185944E-095
   39.4250000000000         1.009669961424621E-094
   39.6150000000000         1.036076142764102E-094
   39.8050000000000         9.230685590013251E-095
   39.9950000000000         5.861152816844664E-095
   40.1850000000000        -8.598646958273609E-096
   40.3750000000000        -1.233037418938196E-094
   40.5650000000000        -3.022264868787063E-094
   40.7550000000000        -5.642004602680809E-094
   40.9450000000000        -9.287520879448108E-094
   41.1350000000000        -1.413552592975419E-093
   41.3250000000000        -2.030325199844893E-093
   41.5150000000000        -2.778735755372837E-093
   41.7050000000000        -3.637770603800877E-093
   41.8950000000000        -4.554142375963345E-093
   42.0850000000000        -5.427402419729536E-093
   42.2750000000000        -6.091732398674256E-093
   42.4650000000000        -6.294908214069777E-093
   42.6550000000000        -5.675765562036694E-093
   42.8450000000000        -3.742752867452842E-093
   43.0350000000000         1.420513208838711E-094
   43.2250000000000         6.766642248875379E-093
   43.4150000000000         1.705053498867606E-092
   43.6050000000000         3.199006888222691E-092
   43.7950000000000         5.254916501886180E-092
   43.9850000000000         7.947234069111148E-092
   44.1750000000000         1.129924237707718E-091
   44.3650000000000         1.524026867908594E-091
   44.5550000000000         1.954639409324295E-091
   44.7450000000000         2.376242978474892E-091
   44.9350000000000         2.710467027226363E-091
   45.1250000000000         2.834720199629012E-091
   45.3150000000000         2.569995671821078E-091
   45.5050000000000         1.669494168528394E-091
   45.6950000000000        -1.891174929910802E-092
   45.8850000000000        -3.403419022602004E-091
   46.0750000000000        -8.431542335814716E-091
   46.2650000000000        -1.575436793630940E-090
   46.4550000000000        -2.580344417780994E-090
   46.6450000000000        -3.884124488399475E-090
   46.8350000000000        -5.477906880854008E-090
   47.0250000000000        -7.291847672713132E-090
   47.2150000000000        -9.160606946979285E-090
   47.4050000000000        -1.078004902358978E-089
   47.5950000000000        -1.165670603876734E-089
   47.7850000000000        -1.105419779527832E-089
   47.9750000000000        -7.944703761488236E-090
   48.1650000000000        -9.789311690824609E-091
   48.3550000000000         1.150513089478781E-089
   48.5450000000000         3.140624601161134E-089
   48.7350000000000         6.067953049022307E-089
   48.9250000000000         1.010061753949500E-088
   49.1150000000000         1.532622706893861E-088
   49.3050000000000         2.167358856719663E-088
   49.4950000000000         2.880517920204690E-088
   49.6850000000000         3.597890607546211E-088
   49.8750000000000         4.188248574165869E-088
   50.0650000000000         4.445153167648476E-088
   50.2550000000000         4.069382205033274E-088
   50.4450000000000         2.655771510507045E-088
   50.6350000000000        -3.097669885921846E-089
   50.8250000000000        -5.434979704970141E-088
   51.0150000000000        -1.337722271122183E-087
   51.2050000000000        -2.475782660794168E-087
   51.3950000000000        -4.002056812583798E-087
   51.5850000000000        -5.922002850502177E-087
   51.7750000000000        -8.172840870387884E-087
   51.9650000000000        -1.058562575966086E-086
   52.1550000000000        -1.283951619518626E-086
   52.3450000000000        -1.441104286079608E-086
   52.5350000000000        -1.452406566973584E-086
   52.7250000000000        -1.210997636000515E-086
   52.9150000000000        -5.792525892226335E-087
   53.1050000000000         6.082775672726695E-087
   53.2950000000000         2.534891363418413E-086
   53.4850000000000         5.381628457200925E-086
   53.6750000000000         9.293600253226665E-086
   53.8650000000000         1.432938738624955E-085
   54.0550000000000         2.039081675987696E-085
   54.2450000000000         2.713204653153394E-085
   54.4350000000000         3.384977191000770E-085
   54.6250000000000         3.936085866213047E-085
   54.8150000000000         4.188010194211662E-085
   55.0050000000000         3.891924543475934E-085
   55.1950000000000         2.723877916865192E-085
   55.3850000000000         2.895869073359665E-086
   55.5750000000000        -3.855599913385733E-085
   55.7650000000000        -1.016492535475946E-084
   55.9550000000000        -1.902932286721151E-084
   56.1450000000000        -3.067019546574447E-084
   56.3350000000000        -4.499006306867939E-084
   56.5250000000000        -6.137850016653760E-084
   56.7150000000000        -7.847650781825653E-084
   56.9050000000000        -9.391131267774222E-084
   57.0950000000000        -1.040260915630459E-083
   57.2850000000000        -1.036455556107980E-083
   57.4750000000000        -8.593850663476391E-084
   57.6650000000000        -4.246150263601601E-084
   57.8550000000000         3.650826057638282E-084
   58.0450000000000         1.612210442161828E-083
   58.2350000000000         3.411392265366431E-083
   58.4250000000000         5.829132752276438E-083
   58.6150000000000         8.875252847010676E-083
   58.8050000000000         1.246530521779784E-082
   58.9950000000000         1.637425862998940E-082
   59.1850000000000         2.018328449854332E-082
   59.3750000000000         2.322368604061069E-082
   59.5650000000000         2.452494363580442E-082
   59.7550000000000         2.277749991251178E-082
   59.9450000000000         1.632515069931704E-082
   60.1350000000000         3.206454637298378E-083
   60.3250000000000        -1.873108338897928E-082
   60.5150000000000        -5.161694455995742E-082
   60.7050000000000        -9.721526898938765E-082
   60.8950000000000        -1.564281694959712E-081
   61.0850000000000        -2.286261869817163E-081
   61.2750000000000        -3.108023639181309E-081
   61.4650000000000        -3.965709298833417E-081
   61.6550000000000        -4.750676757446583E-081
   61.8450000000000        -5.298582302821411E-081
   62.0350000000000        -5.380230547099942E-081
   62.2250000000000        -4.696626597583021E-081
   62.4150000000000        -2.881493051780333E-081
   62.6050000000000         4.846536882848536E-082
   62.7950000000000         5.844059330059103E-081
   62.9850000000000         1.360969227324643E-080
   63.1750000000000         2.408649394563028E-080
   63.3650000000000         3.736174449243114E-080
   63.5550000000000         5.316248271081388E-080
   63.7450000000000         7.068157464884246E-080
   63.9350000000000         8.837957475474019E-080
   64.1250000000000         1.037772364664383E-079
   64.3150000000000         1.132635041634069E-079
   64.5050000000000         1.119558690608528E-079
   64.6950000000000         9.366349197394593E-080
   64.8850000000000         5.101731462550891E-080
   65.0750000000000        -2.415637815707304E-080
   65.2650000000000        -1.401345098150572E-079
   65.4550000000000        -3.041832781158804E-079
   65.6450000000000        -5.209591066585267E-079
   65.8350000000000        -7.903808240412659E-079
   66.0250000000000        -1.104980351182626E-078
   66.2150000000000        -1.446816436395891E-078
   66.4050000000000        -1.784142312558605E-078
   66.5950000000000        -2.068153460239567E-078
   66.7850000000000        -2.230301530218537E-078
   66.9750000000000        -2.180834657971553E-078
   67.1650000000000        -1.809395443842672E-078
   67.3550000000000        -9.886502467488181E-079
   67.5450000000000         4.179964719281788E-079
   67.7350000000000         2.543571600165628E-078
   67.9250000000000         5.498724778977146E-078
   68.1150000000000         9.346438456953441E-078
   68.3050000000000         1.407033455537353E-077
   68.4950000000000         1.953747469069063E-077
   68.6850000000000         2.545759350965585E-077
   68.8750000000000         3.134191739774709E-077
   69.0650000000000         3.646600301557048E-077
   69.2550000000000         3.984223217293872E-077
   69.4450000000000         4.020853027440518E-077
   69.6350000000000         3.604032282144736E-077
   69.8250000000000         2.559251201128864E-077
   70.0150000000000         6.977217415800824E-078
   70.2050000000000        -2.171880466720222E-077
   70.3950000000000        -6.227553653668894E-077
   70.5850000000000        -1.161407646660413E-076
   70.7750000000000        -1.841933262482324E-076
   70.9650000000000        -2.664706089744440E-076
   71.1550000000000        -3.618585404708093E-076
   71.3450000000000        -4.677336746578809E-076
   71.5350000000000        -5.795326335050635E-076
   71.7250000000000        -6.902042412626741E-076
   71.9150000000000        -7.894762376630322E-076
   72.1050000000000        -8.628463892135976E-076
   72.2950000000000        -8.901959198665256E-076
   72.4850000000000        -8.439349454001781E-076
   72.6750000000000        -6.866435638291841E-076
   72.8650000000000        -3.682914697431265E-076
   73.0550000000000         1.766710019888470E-076
   73.2450000000000         1.031732472399508E-075
   73.4350000000000         2.299176494002751E-075
   73.6250000000000         4.097712850103442E-075
   73.8150000000000         6.554536053658826E-075
   74.0050000000000         9.788749673144141E-075
   74.1950000000000         1.388248921632531E-074
   74.3850000000000         1.883578481046867E-074
   74.5750000000000         2.450151729466931E-074
   74.7650000000000         3.049810804108803E-074
   74.9550000000000         3.610027714039658E-074
   75.1450000000000         4.011276049794630E-074
   75.3350000000000         4.073869505982550E-074
   75.5250000000000         3.546370033477757E-074
   75.7150000000000         2.098842641575350E-074
   75.9050000000000        -6.744076441995547E-075
   76.0950000000000        -5.236568168515261E-074
   76.2850000000000        -1.206722761867765E-073
   76.4750000000000        -2.159042829592705E-073
   76.6650000000000        -3.406404778450033E-073
   76.8550000000000        -4.942444640639641E-073
   77.0450000000000        -6.708425324298295E-073
   77.2350000000000        -8.568796159586817E-073
   77.4250000000000        -1.028402549606906E-072
   77.6150000000000        -1.148360385622892E-072
   77.8050000000000        -1.164389190361371E-072
   77.9950000000000        -1.007755771863454E-072
   78.1850000000000        -5.943537529609077E-073
   78.3750000000000         1.711534021790461E-073
   78.5650000000000         1.386808570068050E-072
   78.7550000000000         3.139204908607540E-072
   78.9450000000000         5.482624209642628E-072
   79.1350000000000         8.410854680625902E-072
   79.3250000000000         1.182189883494012E-071
   79.5150000000000         1.547705183823554E-071
   79.7050000000000         1.895759243741941E-071
   79.8950000000000         2.162457824782648E-071
   80.0850000000000         2.258988973210252E-071
   80.2750000000000         2.070952605046735E-071
   80.4650000000000         1.461288286779147E-071
   80.6550000000000         2.783833687930108E-072
   80.8450000000000        -1.628978660281763E-071
   81.0350000000000        -4.388307703015805E-071
   81.2250000000000        -8.070662426462850E-071
   81.4150000000000        -1.264826072528807E-070
   81.6050000000000        -1.794359646933470E-070
   81.7950000000000        -2.357313600754489E-070
   81.9850000000000        -2.889115584987732E-070
   82.1750000000000        -3.294225829452944E-070
   82.3650000000000        -3.443437092993598E-070
   82.5550000000000        -3.174725958506851E-070
   82.7450000000000        -2.299425337260917E-070
   82.9350000000000        -6.156305632063722E-071
   83.1250000000000         2.069316258032048E-070
   83.3150000000000         5.905795456863167E-070
   83.5050000000000         1.095765258359447E-069
   83.6950000000000         1.714732910787579E-069
   83.8850000000000         2.419286332147355E-069
   84.0750000000000         3.154170257435202E-069
   84.2650000000000         3.830925715275516E-069
   84.4550000000000         4.323347748623345E-069
   84.6450000000000         4.466014557737347E-069
   84.8350000000000         4.057657513482589E-069
   85.0250000000000         2.871337942007549E-069
   85.2150000000000         6.734096203806420E-070
   85.4050000000000        -2.747016566481454E-069
   85.5950000000000        -7.537025015853759E-069
   85.7850000000000        -1.372728479986088E-068
   85.9750000000000        -2.116953225464316E-068
   86.1650000000000        -2.946800333489867E-068
   86.3550000000000        -3.791139980035611E-068
   86.5450000000000        -4.541509933555682E-068
   86.7350000000000        -5.048659890485402E-068
   86.9250000000000        -5.123023018916087E-068
   87.1150000000000        -4.540947443687402E-068
   87.3050000000000        -3.058605583911083E-068
   87.4950000000000        -4.353613998883534E-069
   87.6850000000000         3.532070973665211E-068
   87.8750000000000         8.964182230088931E-068
   88.0650000000000         1.584274013798199E-067
   88.2550000000000         2.394697829930539E-067
   88.4450000000000         3.278677996476804E-067
   88.6350000000000         4.154041339280911E-067
   88.8250000000000         4.900727445267846E-067
   89.0150000000000         5.358892502779909E-067
   89.2050000000000         5.331407340677201E-067
   89.3950000000000         4.592449550060041E-067
   89.5850000000000         2.903860936281981E-067
   89.7750000000000         4.067896053775016E-069
   89.9650000000000        -4.173316084896734E-067
   90.1550000000000        -9.820129224834487E-067
   90.3450000000000        -1.683358478792165E-066
   90.5350000000000        -2.494004838588735E-066
   90.7250000000000        -3.359913700956091E-066
   90.9150000000000        -4.195208804190779E-066
   91.1050000000000        -4.878788529850426E-066
   91.2950000000000        -5.253943534132169E-066
   91.4850000000000        -5.132366600268818E-066
   91.6750000000000        -4.303990997681054E-066
   91.8650000000000        -2.553980426015846E-066
   92.0550000000000         3.121376818565847E-067
   92.2450000000000         4.434805048492637E-066
   92.4350000000000         9.858752333652431E-066
   92.6250000000000         1.648506499950044E-065
   92.8150000000000         2.402030387389474E-065
   93.0050000000000         3.192778687051298E-065
   93.1950000000000         3.938806447545818E-065
   93.3850000000000         4.527748932525875E-065
   93.5750000000000         4.817533166555539E-065
   93.7650000000000         4.641080138783591E-065
   93.9550000000000         3.816122105981079E-065
   94.1450000000000         2.161103807321332E-065
   94.3350000000000        -4.822041266544246E-066
   94.5250000000000        -4.219311754954826E-065
   94.7150000000000        -9.067571444087927E-065
   94.9050000000000        -1.491647681805414E-064
   95.0950000000000        -2.148674589412516E-064
   95.2850000000000        -2.829265247671499E-064
   95.4750000000000        -3.461353015932122E-064
   95.6650000000000        -3.948171719278052E-064
   95.8550000000000        -4.169522796237411E-064
   96.0450000000000        -3.986387219643399E-064
   96.2350000000000        -3.249710749541362E-064
   96.4250000000000        -1.814030383877688E-064
   96.6150000000000         4.436960386069557E-065
   96.8050000000000         3.600168222154513E-064
   96.9950000000000         7.657491996025605E-064
   97.1850000000000         1.251218327690051E-063
   97.3750000000000         1.792397854920935E-063
   97.5650000000000         2.348805461869933E-063
   97.7550000000000         2.861530754363998E-063
   97.9450000000000         3.252625814939456E-063
   98.1350000000000         3.426478017805470E-063
   98.3250000000000         3.273799909932933E-063
   98.5150000000000         2.678817936859469E-063
   98.7050000000000         1.530099936172186E-063
   98.8950000000000        -2.647876452097664E-064
   99.0850000000000        -2.760970847537289E-063
   99.2750000000000        -5.954978644066730E-063
   99.4650000000000        -9.761751907639493E-063
   99.6550000000000        -1.399192772415010E-062
   99.8450000000000        -1.833211722075044E-062
   100.035000000000        -2.233161161984884E-062
   100.225000000000        -2.539955108230070E-062
   100.415000000000        -2.681696042314580E-062
   100.605000000000        -2.576806436620838E-062
   100.795000000000        -2.139480362139433E-062
   100.985000000000        -1.287734698762148E-062
   101.175000000000         4.584795274802851E-064
   101.365000000000         1.900861911029502E-062
   101.555000000000         4.273835643931877E-062
   101.745000000000         7.101958181229648E-062
   101.935000000000         1.024720837947989E-061
   102.125000000000         1.348281942642629E-061
   102.315000000000         1.648448059246508E-061
   102.505000000000         1.882905513989685E-061
   102.695000000000         2.000380064689526E-061
   102.885000000000         1.942902948657717E-061
   103.075000000000         1.649675324767190E-061
   103.265000000000         1.062703147852068E-061
   103.455000000000         1.342425255557564E-062
   103.645000000000        -1.164089663050779E-061
   103.835000000000        -2.830922706553926E-061
   104.025000000000        -4.824122197696339E-061
   104.215000000000        -7.050142349118063E-061
   104.405000000000        -9.355039925085208E-061
   104.595000000000        -1.151874412352045E-060
   104.785000000000        -1.325440442783926E-060
   104.975000000000        -1.421474964874707E-060
   105.165000000000        -1.400733189817823E-060
   105.355000000000        -1.222024415949218E-060
   105.545000000000        -8.459339551346329E-061
   105.735000000000        -2.397106714601791E-061
   105.925000000000         6.167847905008967E-061
   106.115000000000         1.724328076044936E-060
   106.305000000000         3.057211046218798E-060
   106.495000000000         4.556384290900961E-060
   106.685000000000         6.123689572142425E-060
   106.875000000000         7.618186948781486E-060
   107.065000000000         8.855713752727257E-060
   107.255000000000         9.612870081716299E-060
   107.445000000000         9.636575738797009E-060
   107.635000000000         8.660154564292734E-060
   107.825000000000         6.426545660542500E-060
   108.015000000000         2.718697023874046E-060
   108.205000000000        -2.603541454768289E-060
   108.395000000000        -9.561630557732066E-060
   108.585000000000        -1.801433558110156E-059
   108.775000000000        -2.761533483179240E-059
   108.965000000000        -3.777742860231339E-059
   109.155000000000        -4.764935884148059E-059
   109.345000000000        -5.611199531378894E-059
   109.535000000000        -6.180093850900919E-059
   109.725000000000        -6.316225004683299E-059
   109.915000000000        -5.854686996296184E-059
   110.105000000000        -4.634716447758727E-059