  -1.42500000000000         0.000000000000000E+000
  -1.23500000000000         0.000000000000000E+000
  -1.04500000000000         0.000000000000000E+000
 -0.855000000000000         0.000000000000000E+000
 -0.665000000000000         0.000000000000000E+000
 -0.475000000000000         0.000000000000000E+000
 -0.285000000000000         0.000000000000000E+000
 -9.499999999999975E-002    0.000000000000000E+000
  9.500000000000020E-002    0.000000000000000E+000
  0.285000000000000         0.000000000000000E+000
  0.475000000000000         0.000000000000000E+000
  0.665000000000000         0.000000000000000E+000
  0.855000000000000         0.000000000000000E+000
   1.04500000000000         0.000000000000000E+000
   1.23500000000000         0.000000000000000E+000
   1.42500000000000         0.000000000000000E+000
   1.61500000000000         0.000000000000000E+000
   1.80500000000000         0.000000000000000E+000
   1.99500000000000         0.000000000000000E+000
   2.18500000000000         0.000000000000000E+000
   2.37500000000000         0.000000000000000E+000
   2.56500000000000         0.000000000000000E+000
   2.75500000000000         0.000000000000000E+000
   2.94500000000000         0.000000000000000E+000
   3.13500000000000         0.000000000000000E+000
   3.32500000000000         0.000000000000000E+000
   3.51500000000000         0.000000000000000E+000
   3.70500000000000         0.000000000000000E+000
   3.89500000000000         0.000000000000000E+000
   4.08500000000000         0.000000000000000E+000
   4.27500000000000         0.000000000000000E+000
   4.46500000000000         0.000000000000000E+000
   4.65500000000000         0.000000000000000E+000
   4.84500000000000         0.000000000000000E+000
   5.03500000000000         0.000000000000000E+000
   5.22500000000000         0.000000000000000E+000
   5.41500000000000         0.000000000000000E+000
   5.60500000000000         0.000000000000000E+000
   5.79500000000000         0.000000000000000E+000
   5.98500000000000         0.000000000000000E+000
   6.17500000000000         0.000000000000000E+000
   6.36500000000000         0.000000000000000E+000
   6.55500000000000         0.000000000000000E+000
   6.74500000000000        -1.154357566112252E-175
   6.93500000000000         5.672255000056974E-169
   7.12500000000000         1.422962183230871E-165
   7.31500000000000         1.967260764486590E-163
   7.50500000000000         1.293604939434978E-161
   7.69500000000000         5.388980889014737E-160
   7.88500000000000         1.616277453123929E-158
   8.07500000000000         3.758485384857492E-157
   8.26500000000000         7.114157325788814E-156
   8.45500000000000         1.134468376693905E-154
   8.64500000000000         1.563660173774130E-153
   8.83500000000000         1.900039585087046E-152
   9.02500000000000        -5.218229822094888E-151
   9.21500000000000        -1.021500071322999E-148
   9.40500000000000        -6.088789042103981E-147
   9.59500000000000        -2.175101304854197E-145
   9.78500000000000        -5.516097038811598E-144
   9.97500000000000        -1.080728409716899E-142
   10.1650000000000        -1.721917033354236E-141
   10.3550000000000        -2.309088962081444E-140
   10.5450000000000        -2.670792765520640E-139
   10.7350000000000        -2.713468819214797E-138
   10.9250000000000        -2.455594184371895E-137
   11.1150000000000        -2.001084885399939E-136
   11.3050000000000        -1.481054334531369E-135
   11.4950000000000        -1.002258551639100E-134
   11.6850000000000        -6.233002365696697E-134
   11.8750000000000        -3.574917888279208E-133
   12.0650000000000        -1.894630443896064E-132
   12.2550000000000        -9.277939970319073E-132
   12.4450000000000        -4.186056990418669E-131
   12.6350000000000        -1.727084318473375E-130
   12.8250000000000        -6.407820308346970E-130
   13.0150000000000        -2.055981345445632E-129
   13.2050000000000        -5.084180963634739E-129
   13.3950000000000        -4.575864112268796E-129
   13.5850000000000         5.041156711934412E-128
   13.7750000000000         4.676166395625957E-127
   13.9650000000000         2.784077929157238E-126
   14.1550000000000         1.385322148570526E-125
   14.3450000000000         6.184099750407291E-125
   14.5350000000000         2.552410247994937E-124
   14.7250000000000         9.897132686409605E-124
   14.9150000000000         3.640461813320502E-123
   15.1050000000000         1.278441971999915E-122
   15.2950000000000         4.305831183645878E-122
   15.4850000000000         1.395555116629972E-121
   15.6750000000000         4.363846594297807E-121
   15.8650000000000         1.319157135749821E-120
   16.0550000000000         3.861120101489033E-120
   16.2450000000000         1.095607266531515E-119
   16.4350000000000         3.016677786856825E-119
   16.6250000000000         8.065442695951204E-119
   16.8150000000000         2.094767355808331E-118
   17.0050000000000         5.285947893368184E-118
   17.1950000000000         1.295803308339009E-117
   17.3850000000000         3.084558754497988E-117
   17.5750000000000         7.123918702689121E-117
   17.7650000000000         1.594120537987759E-116
   17.9550000000000         3.448908752553525E-116
   18.1450000000000         7.191191502754560E-116
   18.3350000000000         1.437827114450990E-115
   18.5250000000000         2.734537481752280E-115
   18.7150000000000         4.877780128358363E-115
   18.9050000000000         7.939702165551086E-115
   19.0950000000000         1.104817423421203E-114
   19.2850000000000         1.037236419207673E-114
   19.4750000000000        -5.769584524385721E-115
   19.6650000000000        -6.796007609542136E-114
   19.8550000000000        -2.492331407556185E-113
   20.0450000000000        -7.127940857218979E-113
   20.2350000000000        -1.804221400516862E-112
   20.4250000000000        -4.221321094711533E-112
   20.6150000000000        -9.311416816964289E-112
   20.8050000000000        -1.956161315043727E-111
   20.9950000000000        -3.934751590284918E-111
   21.1850000000000        -7.595220896303135E-111
   21.3750000000000        -1.406751281457370E-110
   21.5650000000000        -2.493434950329726E-110
   21.7550000000000        -4.203704764757383E-110
   21.9450000000000        -6.660220767188902E-110
   22.1350000000000        -9.675773288897699E-110
   22.3250000000000        -1.215522387535587E-109
   22.5150000000000        -1.078286666708073E-109
   22.7050000000000         2.685107583034650E-110
   22.8950000000000         4.675132167913169E-109
   23.0850000000000         1.602859251090257E-108
   23.2750000000000         4.210948911096988E-108
   23.4650000000000         9.790824860304033E-108
   23.6550000000000         2.113985292429411E-107
   23.8450000000000         4.333520793567111E-107
   24.0350000000000         8.536504326797190E-107
   24.2250000000000         1.627804180731508E-106
   24.4150000000000         3.019138932107797E-106
   24.6050000000000         5.464444179730760E-106
   24.7950000000000         9.673844639380200E-106
   24.9850000000000         1.677913899804900E-105
   25.1750000000000         2.854846912807279E-105
   25.3650000000000         4.768802543294652E-105
   25.5550000000000         7.825176847568341E-105
   25.7450000000000         1.261746266103113E-104
   25.9350000000000         1.999278545543645E-104
   26.1250000000000         3.112583971311202E-104
   26.3150000000000         4.759035196887104E-104
   26.5050000000000         7.140471416464204E-104
   26.6950000000000         1.050075503236641E-103
   26.8850000000000         1.510855249181220E-103
   27.0750000000000         2.121240059247296E-103
   27.2650000000000         2.894738558725100E-103
   27.4550000000000         3.816153943088543E-103
   27.6450000000000         4.811425640627377E-103
   27.8350000000000         5.697747603803586E-103
   28.0250000000000         6.104196710943850E-103
   28.2150000000000         5.349508474431647E-103
   28.4050000000000         2.259310471269416E-103
   28.5950000000000        -5.099726719353190E-103
   28.7850000000000        -1.979621342769901E-102
   28.9750000000000        -4.655205127165197E-102
   29.1650000000000        -9.243430365491582E-102
   29.3550000000000        -1.677482110327284E-101
   29.5450000000000        -2.871432330570932E-101
   29.7350000000000        -4.709111231281978E-101
   29.9250000000000        -7.463946785878337E-101
   30.1150000000000        -1.149324060084977E-100
   30.3050000000000        -1.724735811160036E-100
   30.4950000000000        -2.526883931736285E-100
   30.6850000000000        -3.617193016909767E-100
   30.8750000000000        -5.058796259683761E-100
   31.0650000000000        -6.905509457856767E-100
   31.2550000000000        -9.182182448137009E-100
   31.4450000000000        -1.185222039693273E-099
   31.6350000000000        -1.476668583913148E-099
   31.8250000000000        -1.758783704331336E-099
   32.0150000000000        -1.967837547218102E-099
   32.2050000000000        -1.994634853401063E-099
   32.3950000000000        -1.663507202795700E-099
   32.5850000000000        -7.048379821755952E-100
   32.7750000000000         1.279484568810364E-099
   32.9650000000000         4.857486245834324E-099
   33.1550000000000         1.081371866563492E-098
   33.3450000000000         2.019692120816128E-098
   33.5350000000000         3.436074960222052E-098
   33.7250000000000         5.498389913547707E-098
   33.9150000000000         8.404788732842588E-098
   34.1050000000000         1.237397911227604E-097
   34.2950000000000         1.762329149390565E-097
   34.4850000000000         2.432805030683131E-097
   34.6750000000000         3.255364964241497E-097
   34.8650000000000         4.214941042856879E-097
   35.0550000000000         5.259100799305216E-097
   35.2450000000000         6.275644947776529E-097
   35.4350000000000         7.061997343796154E-097
   35.6250000000000         7.284994089453534E-097
   35.8150000000000         6.430237946442979E-097
   36.0050000000000         3.741352586649838E-097
   36.1950000000000        -1.848461116419322E-097
   36.3850000000000        -1.178683089028772E-096
   36.5750000000000        -2.796380495042609E-096
   36.7650000000000        -5.274661079138379E-096
   36.9550000000000        -8.895960480058231E-096
   37.1450000000000        -1.397683192901055E-095
   37.3350000000000        -2.084099833092399E-095
   37.5250000000000        -2.976930937392882E-095
   37.7150000000000        -4.091663782358711E-095
   37.9050000000000        -5.418347611305552E-095
   38.0950000000000        -6.902803169307232E-095
   38.2850000000000        -8.420356454021651E-095
   38.4750000000000        -9.740648422256280E-095
   38.6650000000000        -1.048246728702952E-094
   38.8550000000000        -1.005845001134793E-094
   39.0450000000000        -7.611154826041538E-095
   39.2350000000000        -1.944735886894741E-095
   39.4250000000000         8.539359593364386E-095
   39.6150000000000         2.588816470375963E-094
   39.8050000000000         5.260149407030501E-094
   39.9950000000000         9.156065266884676E-094
   40.1850000000000         1.458332984883820E-093
   40.3750000000000         2.182892714279420E-093
   40.5650000000000         3.109432691344671E-093
   40.7550000000000         4.239211607140321E-093
   40.9450000000000         5.539308779384385E-093
   41.1350000000000         6.921118241508195E-093
   41.3250000000000         8.211472144838494E-093
   41.5150000000000         9.115642131347025E-093
   41.7050000000000         9.172344196721939E-093
   41.8950000000000         7.702448486935509E-093
   42.0850000000000         3.755652978114688E-093
   42.2750000000000        -3.936750716461162E-093
   42.4650000000000        -1.698935693216812E-092
   42.6550000000000        -3.734918394141723E-092
   42.8450000000000        -6.721036014444714E-092
   43.0350000000000        -1.088141771791517E-091
   43.2250000000000        -1.640782321387808E-091
   43.4150000000000        -2.339845518745000E-091
   43.6050000000000        -3.176448906422121E-091
   43.7950000000000        -4.109559420390441E-091
   43.9850000000000        -5.047643700053831E-091
   44.1750000000000        -5.824905408818954E-091
   44.3650000000000        -6.172231739697670E-091
   44.5550000000000        -5.684109434768180E-091
   44.7450000000000        -3.784607187400396E-091
   44.9350000000000         3.017311522496621E-092
   45.1250000000000         7.564376831563353E-091
   45.3150000000000         1.919186775553003E-090
   45.5050000000000         3.650622997580206E-090
   45.6950000000000         6.081822255248949E-090
   45.8850000000000         9.316721534322894E-090
   46.0750000000000         1.339029165204353E-089
   46.2650000000000         1.820628583001045E-089
   46.4550000000000         2.345029190229554E-089
   46.6450000000000         2.847529987120697E-089
   46.8350000000000         3.216025951355831E-089
   47.0250000000000         3.274792123288794E-089
   47.2150000000000         2.767750117452169E-089
   47.4050000000000         1.344125441250924E-089
   47.5950000000000        -1.448745369928429E-089
   47.7850000000000        -6.158334514748381E-089
   47.9750000000000        -1.339564373659535E-088
   48.1650000000000        -2.376678520657954E-088
   48.3550000000000        -3.775170137148307E-088
   48.5450000000000        -5.551250789435844E-088
   48.7350000000000        -7.661426836915473E-088
   48.9250000000000        -9.964503445891382E-088
   49.1150000000000        -1.217317586835584E-087
   49.3050000000000        -1.379666636446427E-087
   49.4950000000000        -1.407875012974682E-087
   49.6850000000000        -1.193973674814584E-087
   49.8750000000000        -5.936706943913283E-088
   50.0650000000000         5.736452793820758E-088
   50.2550000000000         2.517922380092051E-087
   50.4450000000000         5.460594670428925E-087
   50.6350000000000         9.601181300379420E-087
   50.8250000000000         1.506318411822745E-086
   51.0150000000000         2.181431308140078E-086
   51.2050000000000         2.955733907013050E-086
   51.3950000000000         3.759077708841822E-086
   51.5850000000000         4.464375783309790E-086
   51.7750000000000         4.869747911785927E-086
   51.9650000000000         4.681706153967804E-086
   52.1550000000000         3.503270610872705E-086
   52.3450000000000         8.327485630002476E-087
   52.5350000000000        -3.919021197435288E-086
   52.7250000000000        -1.138309308808557E-085
   52.9150000000000        -2.214697108051302E-085
   53.1050000000000        -3.661706005062264E-085
   53.2950000000000        -5.481784458645519E-085
   53.4850000000000        -7.612047445601129E-085
   53.6750000000000        -9.890124099885734E-085
   53.8650000000000        -1.201434418460539E-084
   54.0550000000000        -1.350154896193916E-084
   54.2450000000000        -1.364845673584343E-084
   54.4350000000000        -1.150586276951358E-084
   54.6250000000000        -5.878874233103354E-085
   54.8150000000000         4.629448791818827E-085
   55.0050000000000         2.150983106242751E-084
   55.1950000000000         4.615005547811858E-084
   55.3850000000000         7.952576497211260E-084
   55.5750000000000         1.217587013207058E-083
   55.7650000000000         1.715322148459211E-083
   55.9550000000000         2.253719260787281E-083
   56.1450000000000         2.768276271555176E-083
   56.3350000000000         3.156324459791883E-083
   56.5250000000000         3.269675003079407E-083
   56.7150000000000         2.910235278418761E-083
   56.9050000000000         1.831214543882000E-083
   57.0950000000000        -2.527585732210482E-084
   57.2850000000000        -3.642702604675495E-083
   57.4750000000000        -8.615340191773011E-083
   57.6650000000000        -1.536218103947984E-082
   57.8550000000000        -2.390469078393708E-082
   58.0450000000000        -3.398473624543780E-082
   58.2350000000000        -4.493304919812061E-082
   58.4250000000000        -5.552369281004189E-082
   58.6150000000000        -6.382960025316073E-082
   58.8050000000000        -6.710312747540953E-082
   58.9950000000000        -6.171584387025189E-082
   59.1850000000000        -4.320265052656745E-082
   59.3750000000000        -6.465368297660165E-083
   59.5650000000000         5.380189828918695E-082
   59.7550000000000         1.424018502911384E-081
   59.9450000000000         2.625815165644447E-081
   60.1350000000000         4.146032236718212E-081
   60.3250000000000         5.939426374630668E-081
   60.5150000000000         7.891776465384087E-081
   60.7050000000000         9.797163724462841E-081
   60.8950000000000         1.133622101471883E-080
   61.0850000000000         1.205924537526934E-080
   61.2750000000000         1.137952542599696E-080
   61.4650000000000         8.583689468350882E-081
   61.6550000000000         2.867106002530017E-081
   61.8450000000000        -6.596947352203976E-081
   62.0350000000000        -2.054589019107297E-080
   62.2250000000000        -3.946744602847467E-080
   62.4150000000000        -6.338709921885098E-080
   62.6050000000000        -9.160632884593951E-080
   62.7950000000000        -1.224034874506791E-079
   62.9850000000000        -1.527211981889558E-079
   63.1750000000000        -1.778790593175827E-079
   63.3650000000000        -1.913675932702921E-079
   63.5550000000000        -1.847973862479585E-079
   63.7450000000000        -1.480940033186907E-079
   63.9350000000000        -7.004133162484272E-080
   64.1250000000000         6.072069999531018E-080
   64.3150000000000         2.541486391158405E-079
   64.5050000000000         5.166329643263794E-079
   64.6950000000000         8.482104648103947E-079
   64.8850000000000         1.239226875563826E-078
   65.0750000000000         1.666643333388699E-078
   65.2650000000000         2.090330705466032E-078
   65.4550000000000         2.449872763084157E-078
   65.6450000000000         2.662589758565888E-078
   65.8350000000000         2.623676887283578E-078
   66.0250000000000         2.209496402480378E-078
   66.2150000000000         1.285127035414492E-078
   66.4050000000000        -2.827893494539989E-079
   66.5950000000000        -2.607110536156645E-078
   66.7850000000000        -5.754855736490002E-078
   66.9750000000000        -9.715918813705555E-078
   67.1650000000000        -1.436735049169097E-077
   67.3550000000000        -1.943608075082853E-077
   67.5450000000000        -2.446452950995223E-077
   67.7350000000000        -2.878522140831283E-077
   67.9250000000000        -3.151206738225981E-077
   68.1150000000000        -3.155710585196207E-077
   68.3050000000000        -2.768183614315241E-077
   68.4950000000000        -1.859139847665508E-077
   68.6850000000000        -3.077321310944154E-078
   68.8750000000000         1.979000865061048E-077
   69.0650000000000         5.042481642204871E-077
   69.2550000000000         8.846002814446287E-077
   69.4450000000000         1.324774165801284E-076
   69.6350000000000         1.797707465338373E-076
   69.8250000000000         2.261895026730225E-076
   70.0150000000000         2.661182732120585E-076
   70.2050000000000         2.926483410258223E-076
   70.3950000000000         2.979902730728934E-076
   70.5850000000000         2.741561314984709E-076
   70.7750000000000         2.139048848398932E-076
   70.9650000000000         1.118937645961160E-076
   71.1550000000000        -3.408661495302571E-077
   71.3450000000000        -2.219891498149172E-076
   71.5350000000000        -4.447669870109786E-076
   71.7250000000000        -6.903327952324796E-076
   71.9150000000000        -9.425597112487938E-076
   72.1050000000000        -1.183615566863773E-075
   72.2950000000000        -1.397782927790547E-075
   72.4850000000000        -1.576661840116364E-075
   72.6750000000000        -1.725263948841227E-075
   72.8650000000000        -1.867987340109779E-075
   73.0550000000000        -2.052840265572044E-075
   73.2450000000000        -2.351626418652055E-075
   73.4350000000000        -2.853230127333455E-075
   73.6250000000000        -3.646815883050618E-075
   73.8150000000000        -4.791904738636265E-075
   74.0050000000000        -6.273172508631001E-075
   74.1950000000000        -7.939707348280378E-075
   74.3850000000000        -9.431611739402091E-075
   74.5750000000000        -1.010138385016732E-074
   74.7650000000000        -8.943431129940823E-075
   74.9550000000000        -4.552037528656793E-075
   75.1450000000000         4.864581074815621E-075
   75.3350000000000         2.138002994870258E-074
   75.5250000000000         4.711730133446817E-074
   75.7150000000000         8.385110882225777E-074
   75.9050000000000         1.324164370837094E-073
   76.0950000000000         1.919136596373789E-073
   76.2850000000000         2.587325335000237E-073
   76.4750000000000         3.254641692956418E-073
   76.6650000000000         3.798318283839977E-073
   76.8550000000000         4.038456397476859E-073
   77.0450000000000         3.734669643882684E-073
   77.2350000000000         2.591445178513306E-073
   77.4250000000000         2.764065354381528E-074
   77.6150000000000        -3.544187001090498E-073
   77.8050000000000        -9.148886510732301E-073
   77.9950000000000        -1.668109235994280E-072
   78.1850000000000        -2.604601686911314E-072
   78.3750000000000        -3.678901087681916E-072
   78.5650000000000        -4.796530463832872E-072
   78.7550000000000        -5.801818527120292E-072
   78.9450000000000        -6.469052124451272E-072
   79.1350000000000        -6.500251297751374E-072
   79.3250000000000        -5.533530570139289E-072
   79.5150000000000        -3.166387832638573E-072
   79.7050000000000         1.001877522873349E-072
   79.8950000000000         7.305320468812909E-072
   80.0850000000000         1.592270249395704E-071
   80.2750000000000         2.676680508357980E-071
   80.4650000000000         3.935795119697948E-071
   80.6550000000000         5.269375557407927E-071
   80.8450000000000         6.513390930214866E-071
   81.0350000000000         7.432600866387986E-071
   81.2250000000000         7.720510600406117E-071
   81.4150000000000         7.010444121099052E-071
   81.6050000000000         4.901598796081992E-071
   81.7950000000000         1.003502953639043E-071
   81.9850000000000        -4.998910607527434E-071
   82.1750000000000        -1.325956285570212E-070
   82.3650000000000        -2.366800228607347E-070
   82.5550000000000        -3.573620012795704E-070
   82.7450000000000        -4.848812220044628E-070
   82.9350000000000        -6.037062368337042E-070
   83.1250000000000        -6.920988636346427E-070
   83.3150000000000        -7.224221306973764E-070
   83.5050000000000        -6.625025902031089E-070
   83.6950000000000        -4.783423157857532E-070
   83.8850000000000        -1.384064105125051E-070
   84.0750000000000         3.804265197409170E-070
   84.2650000000000         1.085381751038359E-069
   84.4550000000000         1.959206271406848E-069
   84.6450000000000         2.951296914007715E-069
   84.8350000000000         3.969777684685003E-069
   85.0250000000000         4.876202773988680E-069
   85.2150000000000         5.484942929791023E-069
   85.4050000000000         5.569550916184203E-069
   85.5950000000000         4.878391729222167E-069
   85.7850000000000         3.161449894456431E-069
   85.9750000000000         2.093775233221132E-070
   86.1650000000000        -4.095566848062348E-069
   86.3550000000000        -9.719060142365472E-069
   86.5450000000000        -1.640970573357744E-068
   86.7350000000000        -2.363747629291249E-068
   86.9250000000000        -3.054681248927212E-068
   87.1150000000000        -3.593852719243837E-068
   87.3050000000000        -3.829677600301997E-068
   87.4950000000000        -3.587791429122064E-068
   87.6850000000000        -2.687626019314686E-068
   87.8750000000000        -9.676806414972070E-069
   88.0650000000000         1.680392930509080E-068
   88.2550000000000         5.270087892894864E-068
   88.4450000000000         9.673659847707123E-068
   88.6350000000000         1.457609645971196E-067
   88.8250000000000         1.943676086890702E-067
   89.0150000000000         2.346825199973511E-067
   89.2050000000000         2.564380705534384E-067
   89.3950000000000         2.474543945079162E-067
   89.5850000000000         1.946440687925512E-067
   89.7750000000000         8.562957532431794E-068
   89.9650000000000        -8.898928674370478E-068
   90.1550000000000        -3.327629291499096E-067
   90.3450000000000        -6.400723386034092E-067
   90.5350000000000        -9.926612276233375E-067
   90.7250000000000        -1.356479634681430E-066
   90.9150000000000        -1.679463902727177E-066
   91.1050000000000        -1.891025219601510E-066
   91.2950000000000        -1.904118119541208E-066
   91.4850000000000        -1.620775135313136E-066
   91.6750000000000        -9.418839185776202E-067
   91.8650000000000         2.182913078242842E-067
   92.0550000000000         1.912814799634775E-066
   92.2450000000000         4.138672398247985E-066
   92.4350000000000         6.810819954084163E-066
   92.6250000000000         9.736339607715014E-066
   92.8150000000000         1.259254452022793E-065
   93.0050000000000         1.491403818990824E-065
   93.1950000000000         1.609470058126943E-065
   93.3850000000000         1.541111398792959E-065
   93.5750000000000         1.207379266695447E-065
   93.7650000000000         5.311460054298777E-066
   93.9550000000000        -5.508741634061303E-066
   94.1450000000000        -2.072603204717926E-065
   94.3350000000000        -4.020204015315086E-065
   94.5250000000000        -6.312122085834324E-065
   94.7150000000000        -8.779673042291789E-065
   94.9050000000000        -1.115113957236014E-064
   95.0950000000000        -1.304315785372285E-064
   95.2850000000000        -1.396382384078358E-064
   95.4750000000000        -1.333227336468893E-064
   95.6650000000000        -1.051930323482234E-064
   95.8550000000000        -4.912711195967407E-065
   96.0450000000000         3.990737682030227E-065
   96.2350000000000         1.646759673932181E-064
   96.4250000000000         3.242901155903040E-064
   96.6150000000000         5.127058226463013E-064
   96.8050000000000         7.172606112052817E-064
   96.9950000000000         9.174613896150062E-064
   97.1850000000000         1.084292967341904E-063
   97.3750000000000         1.180362643295676E-063
   97.5650000000000         1.161219568760658E-063
   97.7550000000000         9.781761565706006E-064
   97.9450000000000         5.828997999798618E-064
   98.1350000000000        -6.607537940299713E-065
   98.3250000000000        -9.949542519446805E-064
   98.5150000000000        -2.204701257887115E-063
   98.7050000000000        -3.660102088772229E-063
   98.8950000000000        -5.278876492973216E-063
   99.0850000000000        -6.922264185077642E-063
   99.2750000000000        -8.388904888027349E-063
   99.4650000000000        -9.414163699155086E-063
   99.6550000000000        -9.677244536413256E-063
   99.8450000000000        -8.818407274460083E-063
   100.035000000000        -6.468273745147919E-063
   100.225000000000        -2.290493847774159E-063
   100.415000000000         3.962118495031847E-063
   100.605000000000         1.237951252103696E-062
   100.795000000000         2.281803489713322E-062
   100.985000000000         3.482191797413056E-062
   101.175000000000         4.755150903782710E-062
   101.365000000000         5.972985980425701E-062
   101.555000000000         6.962167959040388E-062
   101.745000000000         7.506026116576951E-062
   101.935000000000         7.353831203558512E-062
   102.125000000000         6.237712335755304E-062
   102.315000000000         3.898465320297929E-062
   102.505000000000         1.206440842173360E-063
   102.695000000000        -5.223647847096259E-062
   102.885000000000        -1.212413402697242E-061
   103.075000000000        -2.037833847975477E-061
   103.265000000000        -2.953933785315862E-061
   103.455000000000        -3.887228408103108E-061
   103.645000000000        -4.732835905321863E-061
   103.835000000000        -5.354609815548448E-061
   104.025000000000        -5.589059628247035E-061
   104.215000000000        -5.254065154557398E-061
   104.405000000000        -4.163206771986562E-061
   104.595000000000        -2.146182077704093E-061
   104.785000000000         9.247623478148884E-062
   104.975000000000         5.103195293712034E-061
   105.165000000000         1.033339789970652E-060
   105.355000000000         1.641460090930854E-060
   105.545000000000         2.296851522090064E-060
   105.735000000000         2.941522120537450E-060
   105.925000000000         3.496341841343571E-060
   106.115000000000         3.862162113818636E-060
   106.305000000000         3.923691677398424E-060
   106.495000000000         3.556717359626217E-060
   106.685000000000         2.639089484440715E-060
   106.875000000000         1.065610851207670E-060
   107.065000000000        -1.233432895357436E-060
   107.255000000000        -4.270882888874776E-060
   107.445000000000        -7.979858446107386E-060
   107.635000000000        -1.219153880771663E-059
   107.825000000000        -1.661636165273802E-059
   108.015000000000        -2.083205718471788E-059
   108.205000000000        -2.428240656333656E-059
   108.395000000000        -2.629080790271544E-059
   108.585000000000        -2.609252979594820E-059
   108.775000000000        -2.288881102543975E-059
   108.965000000000        -1.592462185927130E-059
   109.155000000000        -4.589867438652252E-060
   109.345000000000         1.145892799440739E-059
   109.535000000000         3.216280559861175E-059
   109.725000000000         5.692065398994857E-059
   109.915000000000         8.445992111922588E-059
   110.105000000000         1.127360293939151E-058