  -1.42500000000000         0.000000000000000E+000
  -1.23500000000000         0.000000000000000E+000
  -1.04500000000000         0.000000000000000E+000
 -0.855000000000000         0.000000000000000E+000
 -0.665000000000000         0.000000000000000E+000
 -0.475000000000000         0.000000000000000E+000
 -0.285000000000000         0.000000000000000E+000
 -9.499999999999975E-002    0.000000000000000E+000
  9.500000000000020E-002    0.000000000000000E+000
  0.285000000000000         0.000000000000000E+000
  0.475000000000000         0.000000000000000E+000
  0.665000000000000         0.000000000000000E+000
  0.855000000000000         0.000000000000000E+000
   1.04500000000000         0.000000000000000E+000
   1.23500000000000         0.000000000000000E+000
   1.42500000000000         0.000000000000000E+000
   1.61500000000000         0.000000000000000E+000
   1.80500000000000         0.000000000000000E+000
   1.99500000000000         0.000000000000000E+000
   2.18500000000000         0.000000000000000E+000
   2.37500000000000         0.000000000000000E+000
   2.56500000000000         0.000000000000000E+000
   2.75500000000000         0.000000000000000E+000
   2.94500000000000         0.000000000000000E+000
   3.13500000000000         0.000000000000000E+000
   3.32500000000000         0.000000000000000E+000
   3.51500000000000         0.000000000000000E+000
   3.70500000000000         0.000000000000000E+000
   3.89500000000000         0.000000000000000E+000
   4.08500000000000         0.000000000000000E+000
   4.27500000000000         0.000000000000000E+000
   4.46500000000000         0.000000000000000E+000
   4.65500000000000         0.000000000000000E+000
   4.84500000000000         0.000000000000000E+000
   5.03500000000000         0.000000000000000E+000
   5.22500000000000         0.000000000000000E+000
   5.41500000000000         0.000000000000000E+000
   5.60500000000000         0.000000000000000E+000
   5.79500000000000         0.000000000000000E+000
   5.98500000000000         0.000000000000000E+000
   6.17500000000000         0.000000000000000E+000
   6.36500000000000         0.000000000000000E+000
   6.55500000000000         0.000000000000000E+000
   6.74500000000000        -7.448009283362896E-178
   6.93500000000000        -6.214589540627789E-170
   7.12500000000000        -1.183112712153620E-166
   7.31500000000000        -2.190146195737466E-164
   7.50500000000000        -1.552698372707344E-162
   7.69500000000000        -6.473376394583826E-161
   7.88500000000000        -1.876707263210756E-159
   8.07500000000000        -4.129812158527915E-158
   8.26500000000000        -7.274551906657208E-157
   8.45500000000000        -1.062292576052691E-155
   8.64500000000000        -1.317409832975995E-154
   8.83500000000000        -1.410781546040239E-153
   9.02500000000000         5.311364861897162E-152
   9.21500000000000         6.959348155717469E-150
   9.40500000000000         3.649595998014968E-148
   9.59500000000000         1.237672288037667E-146
   9.78500000000000         3.105129076648344E-145
   9.97500000000000         6.182182610089109E-144
   10.1650000000000         1.020888564826289E-142
   10.3550000000000         1.441644350826412E-141
   10.5450000000000         1.780397906656522E-140
   10.7350000000000         1.956143372319646E-139
   10.9250000000000         1.938115112070920E-138
   11.1150000000000         1.750616802955873E-137
   11.3050000000000         1.454544484588029E-136
   11.4950000000000         1.120028678862479E-135
   11.6850000000000         8.043177064231759E-135
   11.8750000000000         5.415541090678923E-134
   12.0650000000000         3.434444267916429E-133
   12.2550000000000         2.059587274787266E-132
   12.4450000000000         1.171904956908528E-131
   12.6350000000000         6.345716327279006E-131
   12.8250000000000         3.278473413272939E-130
   13.0150000000000         1.619782455443914E-129
   13.2050000000000         7.668542325934306E-129
   13.3950000000000         3.485143823225252E-128
   13.5850000000000         1.522927986356270E-127
   13.7750000000000         6.407941288927001E-127
   13.9650000000000         2.599613824589702E-126
   14.1550000000000         1.018053044270574E-125
   14.3450000000000         3.852829307919358E-125
   14.5350000000000         1.410508365445829E-124
   14.7250000000000         4.999928278346554E-124
   14.9150000000000         1.717594212664125E-123
   15.1050000000000         5.722640507946479E-123
   15.2950000000000         1.850624769085506E-122
   15.4850000000000         5.812884789707944E-122
   15.6750000000000         1.774606436053053E-121
   15.8650000000000         5.268855317979417E-121
   16.0550000000000         1.522241211560707E-120
   16.2450000000000         4.281889908996053E-120
   16.4350000000000         1.173240694435753E-119
   16.6250000000000         3.132823393736709E-119
   16.8150000000000         8.155708752016879E-119
   17.0050000000000         2.070740051030850E-118
   17.1950000000000         5.129420584006262E-118
   17.3850000000000         1.239961160742319E-117
   17.5750000000000         2.925750696210850E-117
   17.7650000000000         6.739353295161103E-117
   17.9550000000000         1.515572326482180E-116
   18.1450000000000         3.327312917343147E-116
   18.3350000000000         7.130062651293102E-116
   18.5250000000000         1.490823082348728E-115
   18.7150000000000         3.039790714278181E-115
   18.9050000000000         6.038962405527049E-115
   19.0950000000000         1.167363124985868E-114
   19.2850000000000         2.191367726676086E-114
   19.4750000000000         3.982855838633920E-114
   19.6650000000000         6.976515245089381E-114
   19.8550000000000         1.168966834402358E-113
   20.0450000000000         1.849519798688393E-113
   20.2350000000000         2.694842887627959E-113
   20.4250000000000         3.411599016654002E-113
   20.6150000000000         3.080305557542370E-113
   20.8050000000000        -6.449956443269037E-114
   20.9950000000000        -1.315849740549105E-112
   21.1850000000000        -4.607144855312732E-112
   21.3750000000000        -1.232174455426936E-111
   21.5650000000000        -2.917322589152620E-111
   21.7550000000000        -6.420048746818646E-111
   21.9450000000000        -1.342793862913203E-110
   22.1350000000000        -2.701697687300443E-110
   22.3250000000000        -5.267057481135816E-110
   22.5150000000000        -9.995961888993066E-110
   22.7050000000000        -1.852499794600420E-109
   22.8950000000000        -3.359607856021000E-109
   23.0850000000000        -5.970834830664885E-109
   23.2750000000000        -1.040856666812535E-108
   23.4650000000000        -1.780593671923852E-108
   23.6550000000000        -2.989503054154110E-108
   23.8450000000000        -4.924578551255749E-108
   24.0350000000000        -7.953614917571528E-108
   24.2250000000000        -1.257896188890840E-107
   24.4150000000000        -1.944272481784281E-107
   24.6050000000000        -2.928128626998156E-107
   24.7950000000000        -4.276644344078424E-107
   24.9850000000000        -6.011652699121254E-107
   25.1750000000000        -8.026790296953131E-107
   25.3650000000000        -9.923988823537465E-107
   25.5550000000000        -1.070636185919222E-106
   25.7450000000000        -8.221294223709688E-107
   25.9350000000000         1.822964727602181E-107
   26.1250000000000         2.755779629156508E-106
   26.3150000000000         8.384485084798951E-106
   26.5050000000000         1.971199532176752E-105
   26.6950000000000         4.134111531432017E-105
   26.8850000000000         8.114689829554684E-105
   27.0750000000000         1.524062539585514E-104
   27.2650000000000         2.772217495780604E-104
   27.4550000000000         4.919811632112374E-104
   27.6450000000000         8.559956074411146E-104
   27.8350000000000         1.465063907071271E-103
   28.0250000000000         2.472614416006634E-103
   28.2150000000000         4.122411576803792E-103
   28.4050000000000         6.798768305276084E-103
   28.5950000000000         1.110302561117100E-102
   28.7850000000000         1.796907074199304E-102
   28.9750000000000         2.883626269397614E-102
   29.1650000000000         4.590577141320695E-102
   29.3550000000000         7.251645485893927E-102
   29.5450000000000         1.136892757197673E-101
   29.7350000000000         1.769047207795672E-101
   29.9250000000000         2.731945638062505E-101
   30.1150000000000         4.186445335493150E-101
   30.3050000000000         6.364115369867843E-101
   30.4950000000000         9.593458344349401E-101
   30.6850000000000         1.433253526493019E-100
   30.8750000000000         2.120702203272115E-100
   31.0650000000000         3.105005816830687E-100
   31.2550000000000         4.493536956030971E-100
   31.4450000000000         6.418678232119436E-100
   31.6350000000000         9.033359771060180E-100
   31.8250000000000         1.249599513877745E-099
   32.0150000000000         1.693641579264366E-099
   32.2050000000000         2.238975091144596E-099
   32.3950000000000         2.867872226590024E-099
   32.5850000000000         3.521620144596349E-099
   32.7750000000000         4.068900214053007E-099
   32.9650000000000         4.257111857941216E-099
   33.1550000000000         3.640121797380826E-099
   33.3450000000000         1.474788064219680E-099
   33.5350000000000        -3.421807596251514E-099
   33.7250000000000        -1.286133196619257E-098
   33.9150000000000        -2.952222727626841E-098
   34.1050000000000        -5.723068218924565E-098
   34.2950000000000        -1.012617823170192E-097
   34.4850000000000        -1.686100047202390E-097
   34.6750000000000        -2.681340670288609E-097
   34.8650000000000        -4.104154975201949E-097
   35.0550000000000        -6.070775770951615E-097
   35.2450000000000        -8.691869173899406E-097
   35.4350000000000        -1.204202276462212E-096
   35.6250000000000        -1.610748874781633E-096
   35.8150000000000        -2.070297029271077E-096
   36.0050000000000        -2.534644559341154E-096
   36.1950000000000        -2.908002665475622E-096
   36.3850000000000        -3.022561393681681E-096
   36.5750000000000        -2.606808933165923E-096
   36.7650000000000        -1.246805088758542E-096
   36.9550000000000         1.657661287146850E-096
   37.1450000000000         6.937223353171508E-096
   37.3350000000000         1.568816250550698E-095
   37.5250000000000         2.928308868808697E-095
   37.7150000000000         4.933275511445338E-095
   37.9050000000000         7.756352958139455E-095
   38.0950000000000         1.155616870485969E-094
   38.2850000000000         1.643211008338842E-094
   38.4750000000000         2.235171758472081E-094
   38.6650000000000         2.904206915899395E-094
   38.8550000000000         3.583665191653778E-094
   39.0450000000000         4.147126730370901E-094
   39.2350000000000         4.382768980289986E-094
   39.4250000000000         3.963365337067361E-094
   39.6150000000000         2.414414128685013E-094
   39.8050000000000        -9.146060405844800E-095
   39.9950000000000        -6.867311326529486E-094
   40.1850000000000        -1.647255356523275E-093
   40.3750000000000        -3.089248896066583E-093
   40.5650000000000        -5.130069615690377E-093
   40.7550000000000        -7.865756529161659E-093
   40.9450000000000        -1.133444430030691E-092
   41.1350000000000        -1.546156064013801E-092
   41.3250000000000        -1.998312732730793E-092
   41.5150000000000        -2.434499926383541E-092
   41.7050000000000        -2.757906409633689E-092
   41.8950000000000        -2.816297178028003E-092
   42.0850000000000        -2.387860672784313E-092
   42.2750000000000        -1.169693250652735E-092
   42.4650000000000         1.226654281191647E-092
   42.6550000000000         5.266072653897714E-092
   42.8450000000000         1.145836332958068E-091
   43.0350000000000         2.029298595183535E-091
   43.2250000000000         3.212677121791209E-091
   43.4150000000000         4.701040971385769E-091
   43.6050000000000         6.444085971909416E-091
   43.7950000000000         8.303179765709435E-091
   43.9850000000000         1.001046625294660E-090
   44.1750000000000         1.112207839447070E-090
   44.3650000000000         1.097026393346008E-090
   44.5550000000000         8.623121264835298E-091
   44.7450000000000         2.865749898085850E-091
   44.9350000000000        -7.777167841354339E-091
   45.1250000000000        -2.495043437857195E-090
   45.3150000000000        -5.027540326795451E-090
   45.5050000000000        -8.501630465026949E-090
   45.6950000000000        -1.295658736599566E-089
   45.8850000000000        -1.827160895610853E-089
   46.0750000000000        -2.406965853895631E-089
   46.2650000000000        -2.959957996231954E-089
   46.4550000000000        -3.360333631241499E-089
   46.6450000000000        -3.418313395963595E-089
   46.8350000000000        -2.869400123593699E-089
   47.0250000000000        -1.370109002869161E-089
   47.2150000000000         1.494300448330511E-089
   47.4050000000000         6.182866693016170E-089
   47.5950000000000         1.314399119993459E-088
   47.7850000000000         2.272282212508372E-088
   47.9750000000000         3.502146074090339E-088
   48.1650000000000         4.970463793825380E-088
   48.3550000000000         6.574853449967343E-088
   48.5450000000000         8.113939163824015E-088
   48.7350000000000         9.254253659457800E-088
   48.9250000000000         9.498228757562694E-088
   49.1150000000000         8.159926005437384E-088
   49.3050000000000         4.358333018662723E-088
   49.4950000000000        -2.958402289339518E-088
   49.6850000000000        -1.494089998973400E-087
   49.8750000000000        -3.269888156342464E-087
   50.0650000000000        -5.707292431102967E-087
   50.2550000000000        -8.829836027728162E-087
   50.4450000000000        -1.255483215357499E-086
   50.6350000000000        -1.663556766698070E-086
   50.8250000000000        -2.059347946037129E-086
   51.0150000000000        -2.364554935192895E-086
   51.2050000000000        -2.463643239048485E-086
   51.3950000000000        -2.199023859686338E-086
   51.5850000000000        -1.370320624633378E-086
   51.7750000000000         2.594769606549638E-087
   51.9650000000000         2.947555072414798E-086
   52.1550000000000         6.940652877513879E-086
   52.3450000000000         1.242635676220256E-085
   52.5350000000000         1.946295535337844E-085
   52.7250000000000         2.788597961088295E-085
   52.9150000000000         3.719227108421887E-085
   53.1050000000000         4.640668950441955E-085
   53.2950000000000         5.394263126210172E-085
   53.4850000000000         5.747547714244990E-085
   53.6750000000000         5.385776132633196E-085
   53.8650000000000         3.911571533605614E-085
   54.0550000000000         8.577834796111802E-086
   54.2450000000000        -4.280446308440466E-085
   54.4350000000000        -1.198786431809481E-084
   54.6250000000000        -2.263918017952835E-084
   54.8150000000000        -3.637201191107426E-084
   55.0050000000000        -5.292059627521877E-084
   55.1950000000000        -7.141314157708206E-084
   55.3850000000000        -9.014316505451787E-084
   55.5750000000000        -1.063353730012315E-083
   55.7650000000000        -1.159395988143340E-083
   55.9550000000000        -1.135015638491987E-083
   56.1450000000000        -9.217569969604259E-084
   56.3350000000000        -4.396109034814654E-084
   56.5250000000000         3.974609977758316E-084
   56.7150000000000         1.671855067465518E-083
   56.9050000000000         3.447602472579035E-083
   57.0950000000000         5.749951446346677E-083
   57.2850000000000         8.539126623565981E-083
   57.4750000000000         1.167896751677485E-082
   57.6650000000000         1.490234753403169E-082
   57.8550000000000         1.777686835897666E-082
   58.0450000000000         1.967628988990844E-082
   58.2350000000000         1.976539955462023E-082
   58.4250000000000         1.700835400670387E-082
   58.6150000000000         1.021262124064988E-082
   58.8050000000000        -1.877959542090437E-083
   58.9950000000000        -2.042743842349900E-082
   59.1850000000000        -4.627787843739305E-082
   59.3750000000000        -7.963907939996612E-082
   59.5650000000000        -1.197009275548668E-081
   59.7550000000000        -1.641857238477936E-081
   59.9450000000000        -2.088778965556596E-081
   60.1350000000000        -2.471944355325827E-081
   60.3250000000000        -2.698904481164015E-081
   60.5150000000000        -2.650283339729805E-081
   60.7050000000000        -2.183722525244615E-081
   60.8950000000000        -1.143954794384982E-081
   61.0850000000000         6.190223359222379E-082
   61.2750000000000         3.221892697788205E-081
   61.4650000000000         6.708934785069462E-081
   61.6550000000000         1.100198587499612E-080
   61.8450000000000         1.584155960450883E-080
   62.0350000000000         2.072416903608180E-080
   62.2250000000000         2.484486114667511E-080
   62.4150000000000         2.705886376701604E-080
   62.6050000000000         2.588179878761923E-080
   62.7950000000000         1.955352408337581E-080
   62.9850000000000         6.195305525420101E-081
   63.1750000000000        -1.590785659748571E-080
   63.3650000000000        -4.787044586350704E-080
   63.5550000000000        -8.959577006216734E-080
   63.7450000000000        -1.389923963927188E-079
   63.9350000000000        -1.910528829310910E-079
   64.1250000000000        -2.368809974894353E-079
   64.3150000000000        -2.628230604938763E-079
   64.5050000000000        -2.499462173806246E-079
   64.6950000000000        -1.742066287458495E-079
   64.8850000000000        -7.753229328287333E-081
   65.0750000000000         2.781004931126610E-079
   65.2650000000000         7.076612881428212E-079
   65.4550000000000         1.292861776444192E-078
   65.6450000000000         2.022123052009477E-078
   65.8350000000000         2.846072338141333E-078
   66.0250000000000         3.660726700834835E-078
   66.2150000000000         4.289671582256948E-078
   66.4050000000000         4.468017187660036E-078
   66.5950000000000         3.832494700761391E-078
   66.7850000000000         1.923875275466504E-078
   66.9750000000000        -1.790227693540789E-078
   67.1650000000000        -7.862500337122447E-078
   67.3550000000000        -1.677248308157737E-077
   67.5450000000000        -2.878257590403088E-077
   67.7350000000000        -4.373637930189448E-077
   67.9250000000000        -6.079837197214418E-077
   68.1150000000000        -7.814433804083214E-077
   68.3050000000000        -9.262756351889620E-077
   68.4950000000000        -9.946713907639209E-077
   68.6850000000000        -9.203151889308685E-077
   68.8750000000000        -6.182141105649456E-077
   69.0650000000000         1.211934739124179E-078
   69.2550000000000         1.078491465469196E-076
   69.4450000000000         2.681061258194603E-076
   69.6350000000000         4.888855185158544E-076
   69.8250000000000         7.706462094305731E-076
   70.0150000000000         1.103054950532229E-075
   70.2050000000000         1.459745386158845E-075
   70.3950000000000         1.792551321167792E-075
   70.5850000000000         2.025910467708330E-075
   70.7750000000000         2.052548292597865E-075
   70.9650000000000         1.732027711345946E-075
   71.1550000000000         8.942435426841637E-076
   71.3450000000000        -6.496261719275818E-076
   71.5350000000000        -3.085940522487656E-075
   71.7250000000000        -6.564483773397244E-075
   71.9150000000000        -1.114930033211625E-074
   72.1050000000000        -1.675366815880086E-074
   72.2950000000000        -2.306065846752350E-074
   72.4850000000000        -2.943411008945423E-074
   72.6750000000000        -3.482944462008937E-074
   72.8650000000000        -3.771950147151364E-074
   73.0550000000000        -3.605718206724629E-074
   73.2450000000000        -2.730353747781458E-074
   73.4350000000000        -8.555984130862172E-075
   73.6250000000000         2.318491139045382E-074
   73.8150000000000         7.057216152749548E-074
   74.0050000000000         1.352619071668156E-073
   74.1950000000000         2.170417064863648E-073
   74.3850000000000         3.127521497784528E-073
   74.5750000000000         4.150592843068577E-073
   74.7650000000000         5.111935040183253E-073
   74.9550000000000         5.818430962584171E-073
   75.1450000000000         6.004737338480992E-073
   75.3350000000000         5.334311462434875E-073
   75.5250000000000         3.412604743122462E-073
   75.7150000000000        -1.827555068009942E-074
   75.9050000000000        -5.849999294749225E-073
   76.0950000000000        -1.388548292661321E-072
   76.2850000000000        -2.437813368805823E-072
   76.4750000000000        -3.707733172552923E-072
   76.6650000000000        -5.124045355318565E-072
   76.8550000000000        -6.547301120299096E-072
   77.0450000000000        -7.758265928357443E-072
   77.2350000000000        -8.447786615544732E-072
   77.4250000000000        -8.215188321602897E-072
   77.6150000000000        -6.580140648861548E-072
   77.8050000000000        -3.013504035273790E-072
   77.9950000000000         3.007319221517884E-072
   78.1850000000000         1.191385018544230E-071
   78.3750000000000         2.393016487763960E-071
   78.5650000000000         3.892556682745079E-071
   78.7550000000000         5.624243639342599E-071
   78.9450000000000         7.451248843075261E-071
   79.1350000000000         9.148346423728145E-071
   79.3250000000000         1.038883073034986E-070
   79.5150000000000         1.073992232911793E-070
   79.7050000000000         9.671828546591822E-071
   79.8950000000000         6.586243900379833E-071
   80.0850000000000         8.701359012626280E-072
   80.2750000000000        -8.020132861860543E-071
   80.4650000000000        -2.044126071629806E-070
   80.6550000000000        -3.641238993780745E-070
   80.8450000000000        -5.543689707851989E-070
   81.0350000000000        -7.630898512331440E-070
   81.2250000000000        -9.692603126919950E-070
   81.4150000000000        -1.141373956798508E-069
   81.6050000000000        -1.236704853270145E-069
   81.7950000000000        -1.201839649891416E-069
   81.9850000000000        -9.750427925858160E-070
   82.1750000000000        -4.910277635323263E-070
   82.3650000000000         3.113598808085182E-070
   82.5550000000000         1.478215976153925E-069
   82.7450000000000         3.026383845095317E-069
   82.9350000000000         4.926430901376542E-069
   83.1250000000000         7.083856887324871E-069
   83.3150000000000         9.320367345521587E-069
   83.5050000000000         1.135792795727855E-068
   83.6950000000000         1.280923259089010E-068
   83.8850000000000         1.317905556038549E-068
   84.0750000000000         1.188155910747846E-068
   84.2650000000000         8.278792504947741E-069
   84.4550000000000         1.745120465307502E-069
   84.6450000000000        -8.239086088643217E-069
   84.8350000000000        -2.196370069017423E-068
   85.0250000000000        -3.933807798651166E-068
   85.2150000000000        -5.972153330144472E-068
   85.4050000000000        -8.174981254428927E-068
   85.5950000000000        -1.031797535332756E-067
   85.7850000000000        -1.207821629467075E-067
   85.9750000000000        -1.303202100299564E-067
   86.1650000000000        -1.266561124615871E-067
   86.3550000000000        -1.040309847892094E-067
   86.5450000000000        -5.655961252068282E-068
   86.7350000000000         2.102832370601305E-068
   86.9250000000000         1.323882371653247E-067
   87.1150000000000         2.783190459539494E-067
   87.3050000000000         4.553377439813288E-067
   87.4950000000000         6.541787985573429E-067
   87.6850000000000         8.583861173822486E-067
   87.8750000000000         1.043228210504525E-066
   88.0650000000000         1.175227101589026E-066
   88.2550000000000         1.212639193165632E-066
   88.4450000000000         1.107249909755459E-066
   88.6350000000000         8.078298683495984E-067
   88.8250000000000         2.655339794027373E-067
   89.0150000000000        -5.586076910321719E-067
   89.2050000000000        -1.684168485227572E-066
   89.3950000000000        -3.100127632885493E-066
   89.5850000000000        -4.752725124727095E-066
   89.7750000000000        -6.533537873535559E-066
   89.9650000000000        -8.269423892766051E-066
   90.1550000000000        -9.716450319435654E-066
   90.3450000000000        -1.056031692415873E-065
   90.5350000000000        -1.042602703548155E-065
   90.7250000000000        -8.899545821807778E-066
   90.9150000000000        -5.563816825478729E-066
   91.1050000000000        -5.067877802257688E-068
   91.2950000000000         7.891150670740462E-066
   91.4850000000000         1.831383260391369E-065
   91.6750000000000         3.097828730329247E-065
   91.8650000000000         4.525967258394036E-065
   92.0550000000000         6.006137360070819E-065
   92.2450000000000         7.375191011306241E-065
   92.4350000000000         8.414229642862961E-065
   92.6250000000000         8.852361374060579E-065
   92.8150000000000         8.378522551992718E-065
   93.0050000000000         6.663246571878399E-065
   93.1950000000000         3.391803044150679E-065
   93.3850000000000        -1.690694102132010E-065
   93.5750000000000        -8.722845718610926E-065
   93.7650000000000        -1.766148823937864E-064
   93.9550000000000        -2.821151924035206E-064
   94.1450000000000        -3.975771482414477E-064
   94.3350000000000        -5.130769665414199E-064
   94.5250000000000        -6.145755265646658E-064
   94.7150000000000        -6.839350122827912E-064
   94.9050000000000        -6.994400151690246E-064
   95.0950000000000        -6.369638224799971E-064
   95.2850000000000        -4.718989651482959E-064
   95.4750000000000        -1.819264596037933E-064
   95.6650000000000         2.493731388513100E-064
   95.8550000000000         8.281636695167204E-064
   96.0450000000000         1.545476841479514E-063
   96.2350000000000         2.372191014071037E-063
   96.4250000000000         3.254406810791516E-063
   96.6150000000000         4.109927332490267E-063
   96.8050000000000         4.826697855175419E-063
   96.9950000000000         5.264163010474149E-063
   97.1850000000000         5.258529283704861E-063
   97.3750000000000         4.632845363184515E-063
   97.5650000000000         3.212600749763686E-063
   97.7550000000000         8.471663823224220E-064
   97.9450000000000        -2.563159098565809E-063
   98.1350000000000        -7.035482087560829E-063
   98.3250000000000        -1.246993115380748E-062
   98.5150000000000        -1.861551550826660E-062
   98.7050000000000        -2.504029116612081E-062
   98.8950000000000        -3.111096135384378E-062
   99.0850000000000        -3.598790668850562E-062
   99.2750000000000        -3.864214515863634E-062
   99.4650000000000        -3.790066573499397E-062
   99.6550000000000        -3.252575750920039E-062
   99.8450000000000        -2.133217521263154E-062
   100.035000000000        -3.343086748401353E-063
   100.225000000000         2.201834560537675E-062
   100.415000000000         5.471016958117770E-062
   100.605000000000         9.384033489514586E-062
   100.795000000000         1.374445268931623E-061
   100.985000000000         1.823018713939274E-061
   101.175000000000         2.238236770942130E-061
   101.365000000000         2.560552100164213E-061
   101.555000000000         2.718325700077408E-061
   101.745000000000         2.631348115383390E-061
   101.935000000000         2.216642658901615E-061
   102.125000000000         1.396744632111026E-061
   102.315000000000         1.104431980848139E-062
   102.505000000000        -1.674309322788218E-061
   102.695000000000        -3.945967802020494E-061
   102.885000000000        -6.634498999501745E-061
   103.075000000000        -9.597513174314595E-061
   103.265000000000        -1.260934507859890E-060
   103.455000000000        -1.535537769312097E-060
   103.645000000000        -1.743415117846485E-060
   103.835000000000        -1.836985524579820E-060
   104.025000000000        -1.763758991840311E-060
   104.215000000000        -1.470322496988212E-060
   104.405000000000        -9.078731986013730E-061
   104.595000000000        -3.924681578764409E-062
   104.785000000000         1.152794357663496E-060
   104.975000000000         2.656472034256392E-060
   105.165000000000         4.421810541574408E-060
   105.355000000000         6.352334953914410E-060
   105.545000000000         8.298868134751493E-060
   105.735000000000         1.005684759722493E-059
   105.925000000000         1.136869992319845E-059
   106.115000000000         1.193280031993784E-059
   106.305000000000         1.142036470845812E-059
   106.495000000000         9.501232259806160E-060
   106.685000000000         5.878867609047877E-060
   106.875000000000         3.340299893233790E-061
   107.065000000000        -7.224570098293242E-060
   107.255000000000        -1.670563913037549E-059
   107.445000000000        -2.778117210165773E-059
   107.635000000000        -3.983879162153271E-059
   107.825000000000        -5.194787143450829E-059
   108.015000000000        -6.284779007388344E-059
   108.205000000000        -7.096714579232274E-059
   108.395000000000        -7.448247110491746E-059
   108.585000000000        -7.142368440730413E-059
   108.775000000000        -5.983100870691997E-059
   108.965000000000        -3.796423797264749E-059
   109.155000000000        -4.560002518110266E-060
   109.345000000000         4.087382700818128E-059
   109.535000000000         9.774498743559080E-059
   109.725000000000         1.640714022670320E-058
   109.915000000000         2.362179524583507E-058
   110.105000000000         3.087168975884262E-058