  -1.42500000000000         0.000000000000000E+000
  -1.23500000000000         0.000000000000000E+000
  -1.04500000000000         0.000000000000000E+000
 -0.855000000000000         0.000000000000000E+000
 -0.665000000000000         0.000000000000000E+000
 -0.475000000000000         0.000000000000000E+000
 -0.285000000000000         0.000000000000000E+000
 -9.499999999999975E-002    0.000000000000000E+000
  9.500000000000020E-002    0.000000000000000E+000
  0.285000000000000         0.000000000000000E+000
  0.475000000000000         0.000000000000000E+000
  0.665000000000000         0.000000000000000E+000
  0.855000000000000         0.000000000000000E+000
   1.04500000000000         0.000000000000000E+000
   1.23500000000000         0.000000000000000E+000
   1.42500000000000         0.000000000000000E+000
   1.61500000000000         0.000000000000000E+000
   1.80500000000000         0.000000000000000E+000
   1.99500000000000         0.000000000000000E+000
   2.18500000000000         0.000000000000000E+000
   2.37500000000000         0.000000000000000E+000
   2.56500000000000         0.000000000000000E+000
   2.75500000000000         0.000000000000000E+000
   2.94500000000000         0.000000000000000E+000
   3.13500000000000         0.000000000000000E+000
   3.32500000000000         0.000000000000000E+000
   3.51500000000000         0.000000000000000E+000
   3.70500000000000         0.000000000000000E+000
   3.89500000000000         0.000000000000000E+000
   4.08500000000000         0.000000000000000E+000
   4.27500000000000         0.000000000000000E+000
   4.46500000000000         0.000000000000000E+000
   4.65500000000000         0.000000000000000E+000
   4.84500000000000         0.000000000000000E+000
   5.03500000000000         0.000000000000000E+000
   5.22500000000000         0.000000000000000E+000
   5.41500000000000         0.000000000000000E+000
   5.60500000000000         0.000000000000000E+000
   5.79500000000000         0.000000000000000E+000
   5.98500000000000         0.000000000000000E+000
   6.17500000000000         0.000000000000000E+000
   6.36500000000000         0.000000000000000E+000
   6.55500000000000         0.000000000000000E+000
   6.74500000000000        -7.840009771960974E-177
   6.93500000000000        -6.541673043860624E-169
   7.12500000000000        -1.244073467642516E-165
   7.31500000000000        -2.280522495445606E-163
   7.50500000000000        -1.588559944256038E-161
   7.69500000000000        -6.491782486956599E-160
   7.88500000000000        -1.842422700672452E-158
   8.07500000000000        -3.965380290150481E-157
   8.26500000000000        -6.826167961305389E-156
   8.45500000000000        -9.733668014249657E-155
   8.64500000000000        -1.177590241300373E-153
   8.83500000000000        -1.228599462967478E-152
   9.02500000000000         5.862273647876943E-151
   9.21500000000000         7.211097797309124E-149
   9.40500000000000         3.696312723561428E-147
   9.59500000000000         1.227433007561772E-145
   9.78500000000000         3.015532328553904E-144
   9.97500000000000         5.879151717064899E-143
   10.1650000000000         9.507524183297705E-142
   10.3550000000000         1.314983173265741E-140
   10.5450000000000         1.590852705382774E-139
   10.7350000000000         1.712602710150138E-138
   10.9250000000000         1.662951070920728E-137
   11.1150000000000         1.472447305275065E-136
   11.3050000000000         1.199579273990853E-135
   11.4950000000000         9.059096835521530E-135
   11.6850000000000         6.381614932626037E-134
   11.8750000000000         4.215757858585552E-133
   12.0650000000000         2.623571749771483E-132
   12.2550000000000         1.544108980807717E-131
   12.4450000000000         8.623746065821771E-131
   12.6350000000000         4.583742625386747E-130
   12.8250000000000         2.324680243298207E-129
   13.0150000000000         1.127463674740306E-128
   13.2050000000000         5.239651978407473E-128
   13.3950000000000         2.337392265982224E-127
   13.5850000000000         1.002485619753088E-126
   13.7750000000000         4.139633646110839E-126
   13.9650000000000         1.647952104543655E-125
   14.1550000000000         6.331960125052168E-125
   14.3450000000000         2.350779001861925E-124
   14.5350000000000         8.441067678705373E-124
   14.7250000000000         2.934229982551278E-123
   14.9150000000000         9.882626699864194E-123
   15.1050000000000         3.227575535573953E-122
   15.2950000000000         1.022885307801403E-121
   15.4850000000000         3.147914713906428E-121
   15.6750000000000         9.413326939591030E-121
   15.8650000000000         2.736824023858122E-120
   16.0550000000000         7.740604184170987E-120
   16.2450000000000         2.130832947304318E-119
   16.4350000000000         5.711816563602496E-119
   16.6250000000000         1.491536974482862E-118
   16.8150000000000         3.795710771075211E-118
   17.0050000000000         9.416596342915965E-118
   17.1950000000000         2.278004084629890E-117
   17.3850000000000         5.374828571598453E-117
   17.5750000000000         1.237032443333346E-116
   17.7650000000000         2.777286081877447E-116
   17.9550000000000         6.082050728291702E-116
   18.1450000000000         1.298890285971848E-115
   18.3350000000000         2.704004170817577E-115
   18.5250000000000         5.483541273597344E-115
   18.7150000000000         1.082138116776531E-114
   18.9050000000000         2.074884716117014E-114
   19.0950000000000         3.856345646337335E-114
   19.2850000000000         6.922650160928121E-114
   19.4750000000000         1.193511943862803E-113
   19.6650000000000         1.957708483985052E-113
   19.8550000000000         3.003505304366736E-113
   20.0450000000000         4.160210109170464E-113
   20.2350000000000         4.737927669140758E-113
   20.4250000000000         2.806873689028110E-113
   20.6150000000000        -6.294173258624222E-113
   20.8050000000000        -3.291952360315763E-112
   20.9950000000000        -9.880154756699138E-112
   21.1850000000000        -2.476505697765480E-111
   21.3750000000000        -5.644125564294129E-111
   21.5650000000000        -1.209427584334465E-110
   21.7550000000000        -2.477652581629774E-110
   21.9450000000000        -4.899073610279055E-110
   22.1350000000000        -9.405177172744530E-110
   22.3250000000000        -1.759861013078570E-109
   22.5150000000000        -3.217933100455380E-109
   22.7050000000000        -5.759999591135283E-109
   22.8950000000000        -1.010429579223925E-108
   23.0850000000000        -1.738230394085425E-108
   23.2750000000000        -2.933066276925595E-108
   23.4650000000000        -4.853639040035635E-108
   23.6550000000000        -7.871722878177604E-108
   23.8450000000000        -1.249749288078702E-107
   24.0350000000000        -1.938710044885275E-107
   24.2250000000000        -2.930076240732479E-107
   24.4150000000000        -4.294937368672164E-107
   24.6050000000000        -6.061443107263370E-107
   24.7950000000000        -8.133459177792103E-107
   24.9850000000000        -1.012978666476398E-106
   25.1750000000000        -1.108218804925579E-106
   25.3650000000000        -8.888322756895068E-107
   25.5550000000000         6.528171184241845E-108
   25.7450000000000         2.550578957086591E-106
   25.9350000000000         8.022325202189045E-106
   26.1250000000000         1.906697118092984E-105
   26.3150000000000         4.018255993109574E-105
   26.5050000000000         7.905438993173130E-105
   26.6950000000000         1.486205573582966E-104
   26.8850000000000         2.703876845493521E-104
   27.0750000000000         4.797107961138530E-104
   27.2650000000000         8.341365261967678E-104
   27.4550000000000         1.426488880468255E-103
   27.6450000000000         2.405242111425189E-103
   27.8350000000000         4.006003147839613E-103
   28.0250000000000         6.599791683058945E-103
   28.2150000000000         1.076649422006904E-102
   28.4050000000000         1.740568186911297E-102
   28.5950000000000         2.790228977188615E-102
   28.7850000000000         4.437186949992479E-102
   28.9750000000000         7.001962473147621E-102
   29.1650000000000         1.096594144183217E-101
   29.3550000000000         1.704530429051762E-101
   29.5450000000000         2.629450714193295E-101
   29.7350000000000         4.024806660522486E-101
   29.9250000000000         6.110966289654697E-101
   30.1150000000000         9.199556841194196E-101
   30.3050000000000         1.372328562590783E-100
   30.4950000000000         2.026979831600331E-100
   30.6850000000000         2.961522190063657E-100
   30.8750000000000         4.274779670768930E-100
   31.0650000000000         6.086310998268672E-100
   31.2550000000000         8.529806256471172E-100
   31.4450000000000         1.173483875498633E-099
   31.6350000000000         1.578812481281096E-099
   31.8250000000000         2.066066853158134E-099
   32.0150000000000         2.608060150911557E-099
   32.2050000000000         3.132292605722450E-099
   32.3950000000000         3.487677241071527E-099
   32.5850000000000         3.393879790574017E-099
   32.7750000000000         2.366963045811845E-099
   32.9650000000000        -3.857878469885838E-100
   33.1550000000000        -6.108844369436575E-099
   33.3450000000000        -1.668414229541757E-098
   33.5350000000000        -3.485896992006868E-098
   33.7250000000000        -6.450444450036349E-098
   33.9150000000000        -1.108734008688560E-097
   34.1050000000000        -1.807945455835359E-097
   34.2950000000000        -2.826907189193444E-097
   34.4850000000000        -4.262379379566535E-097
   34.6750000000000        -6.213837705551549E-097
   34.8650000000000        -8.763154977746778E-097
   35.0550000000000        -1.193811655646022E-096
   35.2450000000000        -1.565234031667444E-096
   35.4350000000000        -1.961243432251201E-096
   35.6250000000000        -2.318194444795330E-096
   35.8150000000000        -2.519154549830395E-096
   36.0050000000000        -2.368714187749365E-096
   36.1950000000000        -1.561371139981875E-096
   36.3850000000000         3.554897904444052E-097
   36.5750000000000         4.020851899195149E-096
   36.7650000000000         1.029497804193518E-095
   36.9550000000000         2.027835223075316E-095
   37.1450000000000         3.529598530634848E-095
   37.3350000000000         5.681916366560392E-095
   37.5250000000000         8.628532246681703E-095
   37.7150000000000         1.247637978107241E-094
   37.9050000000000         1.724022492097091E-094
   38.0950000000000         2.275783557082107E-094
   38.2850000000000         2.856786315053397E-094
   38.4750000000000         3.374379475822800E-094
   38.6650000000000         3.668095865517359E-094
   38.8550000000000         3.484096510844547E-094
   39.0450000000000         2.447077580914663E-094
   39.2350000000000         3.336715507569573E-096
   39.4250000000000        -4.448142346892792E-094
   39.6150000000000        -1.185660721502666E-093
   39.8050000000000        -2.318571035623117E-093
   39.9950000000000        -3.947434528529521E-093
   40.1850000000000        -6.163346775368661E-093
   40.3750000000000        -9.015532588245103E-093
   40.5650000000000        -1.246679077621589E-092
   40.7550000000000        -1.632991357611339E-092
   40.9450000000000        -2.018258927804720E-092
   41.1350000000000        -2.326074061491170E-092
   41.3250000000000        -2.433469819740325E-092
   41.5150000000000        -2.157974323972810E-092
   41.7050000000000        -1.246304447081376E-092
   41.8950000000000         6.316647797728026E-093
   42.0850000000000         3.878193170160780E-092
   42.2750000000000         8.944621799645304E-092
   42.4650000000000         1.628008906187450E-091
   42.6550000000000         2.624010433503147E-091
   42.8450000000000         3.894190277742080E-091
   43.0350000000000         5.405412482525984E-091
   43.2250000000000         7.051203587028481E-091
   43.4150000000000         8.615784303440571E-091
   43.6050000000000         9.732057807334652E-091
   43.7950000000000         9.837350548455009E-091
   43.9850000000000         8.134086159304600E-091
   44.1750000000000         3.567094277791243E-091
   44.3650000000000        -5.165141235797770E-091
   44.5550000000000        -1.954162369709466E-090
   44.7450000000000        -4.106228542658374E-090
   44.9350000000000        -7.096842762015507E-090
   45.1250000000000        -1.098027990873987E-089
   45.3150000000000        -1.567758208008389E-089
   45.5050000000000        -2.089178779603717E-089
   45.6950000000000        -2.600249537205454E-089
   45.8850000000000        -2.994510031334414E-089
   46.0750000000000        -3.108700055873768E-089
   46.2650000000000        -2.712269863455957E-089
   46.4550000000000        -1.502210505065548E-089
   46.6450000000000         8.918971922013705E-090
   46.8350000000000         4.886137253797535E-089
   47.0250000000000         1.089587454330285E-088
   47.2150000000000         1.925580389037793E-088
   47.4050000000000         3.009752500105006E-088
   47.5950000000000         4.317746980861748E-088
   47.7850000000000         5.765232940347875E-088
   47.9750000000000         7.180702444725461E-088
   48.1650000000000         8.275273552485497E-088
   48.3550000000000         8.613038617429920E-088
   48.5450000000000         7.587863633692951E-088
   48.7350000000000         4.415446846662671E-088
   48.9250000000000        -1.847287919242732E-088
   49.1150000000000        -1.224010947155004E-087
   49.3050000000000        -2.777665881028849E-087
   49.4950000000000        -4.924160758973511E-087
   49.6850000000000        -7.688994715125938E-087
   49.8750000000000        -1.100361746770632E-086
   50.0650000000000        -1.465326963503582E-086
   50.2550000000000        -1.821561032943991E-086
   50.4450000000000        -2.099487520578988E-086
   50.6350000000000        -2.196023546163863E-086
   50.8250000000000        -1.970199394247286E-086
   51.0150000000000        -1.242505754760789E-086
   51.2050000000000         1.994709773335390E-087
   51.3950000000000         2.585996173846946E-086
   51.5850000000000         6.137195774078955E-086
   51.7750000000000         1.101856828158780E-085
   51.9650000000000         1.727699078956835E-085
   52.1550000000000         2.475561768515880E-085
   52.3450000000000         3.298863373261678E-085
   52.5350000000000         4.108082512186620E-085
   52.7250000000000         4.758258811502347E-085
   52.9150000000000         5.037837476219666E-085
   53.1050000000000         4.661550334517922E-085
   53.2950000000000         3.271019936726472E-085
   53.4850000000000         4.477652004820942E-086
   53.6750000000000        -4.255887112185169E-085
   53.8650000000000        -1.126205603547359E-084
   54.0550000000000        -2.088308137499414E-084
   54.2450000000000        -3.320354797291793E-084
   54.4350000000000        -4.792716791818045E-084
   54.6250000000000        -6.419194641269900E-084
   54.8150000000000        -8.036417707725788E-084
   55.0050000000000        -9.383144780847397E-084
   55.1950000000000        -1.008269237900869E-083
   55.3850000000000        -9.633121807765831E-084
   55.5750000000000        -7.411307609827490E-084
   55.7650000000000        -2.698403772385697E-084
   55.9550000000000         5.264756367264984E-084
   56.1450000000000         1.718352168868884E-083
   56.3350000000000         3.356869867751754E-083
   56.5250000000000         5.454413303377688E-083
   56.7150000000000         7.960261114408482E-083
   56.9050000000000         1.073181683415486E-082
   57.0950000000000         1.350343552129400E-082
   57.2850000000000         1.585630318627761E-082
   57.4750000000000         1.719465358434208E-082
   57.6650000000000         1.673566238678257E-082
   57.8550000000000         1.352245156000652E-082
   58.0450000000000         6.471459291906955E-083
   58.2350000000000        -5.533462821256594E-083
   58.4250000000000        -2.348806926207350E-082
   58.6150000000000        -4.804595985428434E-082
   58.8050000000000        -7.922331154298213E-082
   58.9950000000000        -1.160343608928975E-081
   59.1850000000000        -1.560755339901977E-081
   59.3750000000000        -1.950950024579400E-081
   59.5650000000000        -2.266086623304887E-081
   59.7550000000000        -2.416523512792671E-081
   59.9450000000000        -2.287915719614278E-081
   60.1350000000000        -1.745404172693414E-081
   60.3250000000000        -6.436497834980338E-082
   60.5150000000000         1.155451272279190E-081
   60.7050000000000         3.755715195985963E-081
   60.8950000000000         7.189208286747021E-081
   61.0850000000000         1.136844571648688E-080
   61.2750000000000         1.603018967157593E-080
   61.4650000000000         2.067551651033202E-080
   61.6550000000000         2.451449496258018E-080
   61.8450000000000         2.642838640071155E-080
   62.0350000000000         2.496750235268805E-080
   62.2250000000000         1.840820407460996E-080
   62.4150000000000         4.897086665820923E-081
   62.6050000000000        -1.728724434368209E-080
   62.7950000000000        -4.932617359572239E-080
   62.9850000000000        -9.128665333012710E-080
   63.1750000000000        -1.413782111215131E-079
   63.3650000000000        -1.950700969418690E-079
   63.5550000000000        -2.441438419913972E-079
   63.7450000000000        -2.758206456986178E-079
   63.9350000000000        -2.721844757579321E-079
   64.1250000000000        -2.102167301193754E-079
   64.3150000000000        -6.285761729579302E-080
   64.5050000000000         1.984033342773878E-079
   64.6950000000000         5.988554934570876E-079
   64.8850000000000         1.153285553043566E-078
   65.0750000000000         1.855700998966416E-078
   65.2650000000000         2.665991580298431E-078
   65.4550000000000         3.494013559715994E-078
   65.6450000000000         4.182420919918594E-078
   65.8350000000000         4.490729460416719E-078
   66.0250000000000         4.084579620567515E-078
   66.2150000000000         2.535892815454731E-078
   66.4050000000000        -6.585706533169588E-079
   66.5950000000000        -6.031139735089831E-078
   66.7850000000000        -1.405959105748793E-077
   66.9750000000000        -2.503622966890463E-077
   67.1650000000000        -3.888242973721806E-077
   67.3550000000000        -5.490686230967579E-077
   67.5450000000000        -7.151516740036119E-077
   67.7350000000000        -8.589328941925563E-077
   67.9250000000000        -9.370663342547802E-077
   68.1150000000000        -8.888248308702697E-077
   68.3050000000000        -6.357252194522608E-077
   68.4950000000000        -8.423010238941210E-078
   68.6850000000000         8.669269637899635E-077
   68.8750000000000         2.313084387430276E-076
   69.0650000000000         4.322004643687486E-076
   69.2550000000000         6.902965020290979E-076
   69.4450000000000         9.966190692608042E-076
   69.6350000000000         1.327374538069659E-075
   69.8250000000000         1.638527471558961E-075
   70.0150000000000         1.860511908458466E-075
   70.2050000000000         1.894124256032232E-075
   70.3950000000000         1.609096112482998E-075
   70.5850000000000         8.473159563647631E-076
   70.7750000000000        -5.669177996328083E-076
   70.9650000000000        -2.806983055650547E-075
   71.1550000000000        -6.011797667105055E-075
   71.3450000000000        -1.023946248670279E-074
   71.5350000000000        -1.540595172971905E-074
   71.7250000000000        -2.121029301669765E-074
   71.9150000000000        -2.705093391718659E-074
   72.1050000000000        -3.194241162686196E-074
   72.2950000000000        -3.444696004390269E-074
   72.4850000000000        -3.264200439747339E-074
   72.6750000000000        -2.415099066184393E-074
   72.8650000000000        -6.270660405779994E-075
   73.0550000000000         2.376875939806788E-074
   73.2450000000000         6.837486785910807E-074
   73.4350000000000         1.289677989509173E-073
   73.6250000000000         2.051468907471458E-073
   73.8150000000000         2.936662685901348E-073
   74.0050000000000         3.872784223500769E-073
   74.1950000000000         4.735615704872832E-073
   74.3850000000000         5.339167799557496E-073
   74.5750000000000         5.430004256064067E-073
   74.7650000000000         4.689387292511459E-073
   74.9550000000000         2.747411890656112E-073
   75.1450000000000        -7.862921443737729E-074
   75.3350000000000        -6.270822340322215E-073
   75.5250000000000        -1.395766944191372E-072
   75.7150000000000        -2.388822792570160E-072
   75.9050000000000        -3.576696984217450E-072
   76.0950000000000        -4.881706838797275E-072
   76.2850000000000        -6.163188699565905E-072
   76.4750000000000        -7.204388181982508E-072
   76.6650000000000        -7.704161110287407E-072
   76.8550000000000        -7.277478521086616E-072
   77.0450000000000        -5.469519458474915E-072
   77.2350000000000        -1.788593038233395E-072
   77.4250000000000         4.236996132357972E-072
   77.6150000000000         1.297403200176149E-071
   77.8050000000000         2.456951129916227E-071
   77.9950000000000         3.880757561443432E-071
   78.1850000000000         5.494538190055952E-071
   78.3750000000000         7.154214117520148E-071
   78.5650000000000         8.630419513860055E-071
   78.7550000000000         9.597864239798057E-071
   78.9450000000000         9.633769483703629E-071
   79.1350000000000         8.230415575800428E-071
   79.3250000000000         4.827313967586061E-071
   79.5150000000000        -1.131612927922159E-071
   79.7050000000000        -1.011147951972108E-070
   79.8950000000000        -2.236835886145777E-070
   80.0850000000000        -3.780119902398647E-070
   80.2750000000000        -5.578057742994160E-070
   80.4650000000000        -7.496813682729542E-070
   80.6550000000000        -9.314901287280352E-070
   80.8450000000000        -1.071089570294328E-069
   81.0350000000000        -1.125972329157725E-069
   81.2250000000000        -1.044243054619657E-069
   81.4150000000000        -7.674795149225876E-070
   81.6050000000000        -2.360036058314831E-070
   81.7950000000000         6.030057466602169E-070
   81.9850000000000         1.784329593398724E-069
   82.1750000000000         3.310565449269589E-069
   82.3650000000000         5.135620280634037E-069
   82.5550000000000         7.147075459843931E-069
   82.7450000000000         9.149428423749661E-069
   82.9350000000000         1.085106690552637E-068
   83.1250000000000         1.185868031498239E-068
   83.3150000000000         1.168353503445670E-068
   83.5050000000000         9.764471405090345E-069
   83.6950000000000         5.512419475031190E-069
   83.8850000000000        -1.619546111921791E-069
   84.0750000000000        -1.203831128709967E-068
   84.2650000000000        -2.588554768690786E-068
   84.4550000000000        -4.288994746719992E-068
   84.6450000000000        -6.220696362701821E-068
   84.8350000000000        -8.226266375751890E-068
   85.0250000000000        -1.006255183091908E-067
   85.2150000000000        -1.139371692164203E-067
   85.4050000000000        -1.179394543924697E-067
   85.5950000000000        -1.076388718073860E-067
   85.7850000000000        -7.764964833400277E-068
   85.9750000000000        -2.275084727914370E-068
   86.1650000000000         6.132029536724120E-068
   86.3550000000000         1.768389432893667E-067
   86.5450000000000         3.228597121688075E-067
   86.7350000000000         4.938554060069384E-067
   86.9250000000000         6.783542093542362E-067
   87.1150000000000         8.577595673681301E-067
   87.3050000000000         1.005595148709546E-066
   87.4950000000000         1.087468583669551E-066
   87.6850000000000         1.062082140803139E-066
   87.8750000000000         8.836241025892397E-067
   88.0650000000000         5.058379088265670E-067
   88.2550000000000        -1.120264185465076E-067
   88.4450000000000        -9.973344594553100E-067
   88.6350000000000        -2.154455450080066E-066
   88.8250000000000        -3.553922328307944E-066
   89.0150000000000        -5.121253149954261E-066
   89.2050000000000        -6.726755209997313E-066
   89.3950000000000        -8.178077923243966E-066
   89.5850000000000        -9.217685148772892E-066
   89.7750000000000        -9.527712207105678E-066
   89.9650000000000        -8.744772205846873E-066
   90.1550000000000        -6.487084916991039E-066
   90.3450000000000        -2.395721448514965E-066
   90.5350000000000         3.809299224064151E-066
   90.7250000000000         1.225892407776507E-065
   90.9150000000000         2.285401272569858E-065
   91.1050000000000         3.517901935278723E-065
   91.2950000000000         4.841918537103422E-065
   91.4850000000000         6.129325603078919E-065
   91.6750000000000         7.201679343635594E-065
   91.8650000000000         7.831357793888491E-065
   92.0550000000000         7.749380118498708E-065
   92.2450000000000         6.661710947137320E-065
   92.4350000000000         4.275537806091292E-065
   92.6250000000000         3.363751538836421E-066
   92.8150000000000        -5.324152228282168E-065
   93.0050000000000        -1.273138440450014E-064
   93.1950000000000        -2.170486325579164E-064
   93.3850000000000        -3.179510670507877E-064
   93.5750000000000        -4.222754188943611E-064
   93.7650000000000        -5.186343201338195E-064
   93.9550000000000        -5.918952589160147E-064
   94.1450000000000        -6.234937499042704E-064
   94.3350000000000        -5.922938111480691E-064
   94.5250000000000        -4.761120838334674E-064
   94.7150000000000        -2.539877658310084E-064
   94.9050000000000         9.077720913381457E-065
   95.0950000000000         5.668669244348957E-064
   95.2850000000000         1.170657889583011E-063
   95.4750000000000         1.881684274043333E-063
   95.6650000000000         2.658311499168280E-063
   95.8550000000000         3.434220402572878E-063
   96.0450000000000         4.116444565456527E-063
   96.2350000000000         4.585809882875297E-063
   96.4250000000000         4.700672187866584E-063
   96.6150000000000         4.304806987909739E-063
   96.8050000000000         3.240145882460277E-063
   96.9950000000000         1.364750489105311E-063
   97.1850000000000        -1.424052876150464E-063
   97.3750000000000        -5.162093655642659E-063
   97.5650000000000        -9.787849643523959E-063
   97.7550000000000        -1.511145948743671E-062
   97.9450000000000        -2.078670346928152E-062
   98.1350000000000        -2.629038062540290E-062
   98.3250000000000        -3.091434638771979E-062
   98.5150000000000        -3.377601523816563E-062
   98.7050000000000        -3.385320221293134E-062
   98.8950000000000        -3.004858923678414E-062
   99.0850000000000        -2.128767744386680E-062
   99.2750000000000        -6.651674873298675E-063
   99.4650000000000         1.445672143795515E-062
   99.6550000000000         4.212125988618791E-062
   99.8450000000000         7.570592218295782E-062
   100.035000000000         1.136529037563072E-061
   100.225000000000         1.533095420729359E-061
   100.415000000000         1.908149208302322E-061
   100.605000000000         2.210815561589064E-061
   100.795000000000         2.379099385570555E-061
   100.985000000000         2.342726351352096E-061
   101.175000000000         2.027990038151651E-061
   101.365000000000         1.364802901028170E-061
   101.555000000000         2.959718349001978E-062
   101.745000000000        -1.211525357995125E-061
   101.935000000000        -3.153795236549871E-061
   102.125000000000        -5.476710308614231E-061
   102.315000000000        -8.063304786398521E-061
   102.505000000000        -1.072356385437024E-060
   102.695000000000        -1.318863066386425E-060
   102.885000000000        -1.511169773067523E-060
   103.075000000000        -1.607792516209162E-060
   103.265000000000        -1.562556856721682E-060
   103.455000000000        -1.328003790143659E-060
   103.645000000000        -8.601788260078012E-061
   103.835000000000        -1.247728238167667E-061
   104.025000000000         8.955784316010683E-061
   104.215000000000         2.193226777368395E-060
   104.405000000000         3.727292153019383E-060
   104.595000000000         5.416143455546182E-060
   104.785000000000         7.131658370255290E-060
   104.975000000000         8.696527699143618E-060
   105.165000000000         9.885982904203930E-060
   105.355000000000         1.043532669937505E-059
   105.545000000000         1.005449625680475E-059
   105.735000000000         8.450550716599811E-060
   105.925000000000         5.358421135753032E-060
   106.115000000000         5.794777772931756E-061
   106.305000000000        -5.973536845500729E-060
   106.495000000000        -1.422785735083569E-059
   106.685000000000        -2.390229686767254E-059
   106.875000000000        -3.446441491890114E-059
   107.065000000000        -4.509979652969486E-059
   107.255000000000        -5.470093012380242E-059
   107.445000000000        -6.188362746864225E-059
   107.635000000000        -6.503868326688395E-059
   107.825000000000        -6.242531476443779E-059
   108.015000000000        -5.231067091319534E-059
   108.205000000000        -3.315623138616581E-059
   108.395000000000        -3.847192956936344E-060
   108.585000000000         3.604494766865552E-059
   108.775000000000         8.598321759854623E-059
   108.965000000000         1.441933164464272E-058
   109.155000000000         2.074302146539647E-058
   109.345000000000         2.708206224648936E-058
   109.535000000000         3.278231715078381E-058
   109.725000000000         3.703496161915432E-058
   109.915000000000         3.890877542433898E-058
   110.105000000000         3.740590365995103E-058