  -1.42500000000000         0.000000000000000E+000
  -1.23500000000000         0.000000000000000E+000
  -1.04500000000000         0.000000000000000E+000
 -0.855000000000000         0.000000000000000E+000
 -0.665000000000000         0.000000000000000E+000
 -0.475000000000000         0.000000000000000E+000
 -0.285000000000000         0.000000000000000E+000
 -9.499999999999975E-002    0.000000000000000E+000
  9.500000000000020E-002    0.000000000000000E+000
  0.285000000000000         0.000000000000000E+000
  0.475000000000000         0.000000000000000E+000
  0.665000000000000         0.000000000000000E+000
  0.855000000000000         0.000000000000000E+000
   1.04500000000000         0.000000000000000E+000
   1.23500000000000         0.000000000000000E+000
   1.42500000000000         0.000000000000000E+000
   1.61500000000000         0.000000000000000E+000
   1.80500000000000         0.000000000000000E+000
   1.99500000000000         0.000000000000000E+000
   2.18500000000000         0.000000000000000E+000
   2.37500000000000         0.000000000000000E+000
   2.56500000000000         0.000000000000000E+000
   2.75500000000000         0.000000000000000E+000
   2.94500000000000         0.000000000000000E+000
   3.13500000000000         0.000000000000000E+000
   3.32500000000000         0.000000000000000E+000
   3.51500000000000         0.000000000000000E+000
   3.70500000000000         0.000000000000000E+000
   3.89500000000000         0.000000000000000E+000
   4.08500000000000         0.000000000000000E+000
   4.27500000000000         0.000000000000000E+000
   4.46500000000000         0.000000000000000E+000
   4.65500000000000         0.000000000000000E+000
   4.84500000000000         0.000000000000000E+000
   5.03500000000000         0.000000000000000E+000
   5.22500000000000         0.000000000000000E+000
   5.41500000000000         0.000000000000000E+000
   5.60500000000000         0.000000000000000E+000
   5.79500000000000         0.000000000000000E+000
   5.98500000000000         0.000000000000000E+000
   6.17500000000000         0.000000000000000E+000
   6.36500000000000         0.000000000000000E+000
   6.55500000000000         0.000000000000000E+000
   6.74500000000000        -1.027343460979351E-180
   6.93500000000000         1.485202031788065E-172
   7.12500000000000        -9.719413511420216E-169
   7.31500000000000        -5.942280053484087E-167
   7.50500000000000        -1.704801451261893E-165
   7.69500000000000        -3.102192765684274E-164
   7.88500000000000        -4.159647409578919E-163
   8.07500000000000        -4.663678876824181E-162
   8.26500000000000        -4.745668032821143E-161
   8.45500000000000        -3.919320550081198E-160
   8.64500000000000        -7.124458056924824E-160
   8.83500000000000         6.197848298651732E-158
   9.02500000000000         2.695997288743936E-156
   9.21500000000000        -3.220430985295002E-155
   9.40500000000000        -8.425173184548514E-153
   9.59500000000000        -4.193588771935111E-151
   9.78500000000000        -1.260121016193574E-149
   9.97500000000000        -2.751516043038268E-148
   10.1650000000000        -4.733082804530096E-147
   10.3550000000000        -6.716129529539408E-146
   10.5450000000000        -8.097877539153208E-145
   10.7350000000000        -8.466549041526385E-144
   10.9250000000000        -7.784860253494025E-143
   11.1150000000000        -6.354756689560649E-142
   11.3050000000000        -4.629262962713372E-141
   11.4950000000000        -3.010770055560611E-140
   11.6850000000000        -1.736757912839601E-139
   11.8750000000000        -8.709062140917432E-139
   12.0650000000000        -3.591973898398520E-138
   12.2550000000000        -9.938418422019365E-138
   12.4450000000000         8.535561110153999E-138
   12.6350000000000         3.887131869813502E-136
   12.8250000000000         3.705463038285054E-135
   13.0150000000000         2.625343324363668E-134
   13.2050000000000         1.595375727312442E-133
   13.3950000000000         8.735201470412875E-133
   13.5850000000000         4.412088527875609E-132
   13.7750000000000         2.083654039762727E-131
   13.9650000000000         9.280452978654278E-131
   14.1550000000000         3.921753299220765E-130
   14.3450000000000         1.579327802434508E-129
   14.5350000000000         6.081444689862573E-129
   14.7250000000000         2.245067904955070E-128
   14.9150000000000         7.962529326678155E-128
   15.1050000000000         2.717661790700915E-127
   15.2950000000000         8.937745973998992E-127
   15.4850000000000         2.835106090011846E-126
   15.6750000000000         8.679530342751406E-126
   15.8650000000000         2.565258357530921E-125
   16.0550000000000         7.318394278096029E-125
   16.2450000000000         2.014021295787108E-124
   16.4350000000000         5.339241334375453E-124
   16.6250000000000         1.360233270476816E-123
   16.8150000000000         3.316699144239482E-123
   17.0050000000000         7.687528729927742E-123
   17.1950000000000         1.673397315040478E-122
   17.3850000000000         3.341445114468794E-122
   17.5750000000000         5.798323102982229E-122
   17.7650000000000         7.326218308777696E-122
   17.9550000000000        -5.605046639245665E-123
   18.1450000000000        -4.835054939089720E-121
   18.3350000000000        -2.313891495740895E-120
   18.5250000000000        -8.239910732653736E-120
   18.7150000000000        -2.570389125813737E-119
   18.9050000000000        -7.400001055305291E-119
   19.0950000000000        -2.013079955668261E-118
   19.2850000000000        -5.241162117136792E-118
   19.4750000000000        -1.316105060985764E-117
   19.6650000000000        -3.203711124404644E-117
   19.8550000000000        -7.586608191390401E-117
   20.0450000000000        -1.752211157625518E-116
   20.2350000000000        -3.954639561557124E-116
   20.4250000000000        -8.734867295854598E-116
   20.6150000000000        -1.890366593266285E-115
   20.8050000000000        -4.012240384436959E-115
   20.9950000000000        -8.358209481532678E-115
   21.1850000000000        -1.710011010554354E-114
   21.3750000000000        -3.437708317080668E-114
   21.5650000000000        -6.793722421721435E-114
   21.7550000000000        -1.320273307694231E-113
   21.9450000000000        -2.523791919017595E-113
   22.1350000000000        -4.746382677554119E-113
   22.3250000000000        -8.783082242038025E-113
   22.5150000000000        -1.599300182047705E-112
   22.7050000000000        -2.865504902611246E-112
   22.8950000000000        -5.051384136386921E-112
   23.0850000000000        -8.759132093847410E-112
   23.2750000000000        -1.493480412504534E-111
   23.4650000000000        -2.502649427324625E-111
   23.6550000000000        -4.118536382585534E-111
   23.8450000000000        -6.649400659390453E-111
   24.0350000000000        -1.051715390583025E-110
   24.2250000000000        -1.626364608752912E-110
   24.4150000000000        -2.451837076892169E-110
   24.6050000000000        -3.588160694943961E-110
   24.7950000000000        -5.064101447705586E-110
   24.9850000000000        -6.818197443957153E-110
   25.1750000000000        -8.586271593847634E-110
   25.3650000000000        -9.699240594314779E-110
   25.5550000000000        -8.736074641688497E-110
   25.7450000000000        -2.951034030071014E-110
   25.9350000000000         1.263833422827894E-109
   26.1250000000000         4.665337985574994E-109
   26.3150000000000         1.134330872631860E-108
   26.5050000000000         2.359939300925721E-108
   26.6950000000000         4.500466224827711E-108
   26.8850000000000         8.091168366924084E-108
   27.0750000000000         1.390499998887403E-107
   27.2650000000000         2.301135801541051E-107
   27.4550000000000         3.681307726981587E-107
   27.6450000000000         5.702061420619735E-107
   27.8350000000000         8.548999834186649E-107
   28.0250000000000         1.238016806769782E-106
   28.2150000000000         1.723855492875285E-106
   28.4050000000000         2.288984285406322E-106
   28.5950000000000         2.854324659354926E-106
   28.7850000000000         3.239807190614332E-106
   28.9750000000000         3.094275239272566E-106
   29.1650000000000         1.792052485615146E-106
   29.3550000000000        -1.712603366565329E-106
   29.5450000000000        -9.079821354329720E-106
   29.7350000000000        -2.282750651750921E-105
   29.9250000000000        -4.661065553290334E-105
   30.1150000000000        -8.549911762258797E-105
   30.3050000000000        -1.461762486164139E-104
   30.4950000000000        -2.369195916972209E-104
   30.6850000000000        -3.671367892577220E-104
   30.8750000000000        -5.461117646274319E-104
   31.0650000000000        -7.804686735159334E-104
   31.2550000000000        -1.069693783567838E-103
   31.4450000000000        -1.398892593143339E-103
   31.6350000000000        -1.727848115992760E-103
   31.8250000000000        -1.975465606653741E-103
   32.0150000000000        -1.998961071823478E-103
   32.2050000000000        -1.567849729655681E-103
   32.3950000000000        -3.341471102637182E-104
   32.5850000000000         2.197506958724776E-103
   32.7750000000000         6.692538393497840E-103
   32.9650000000000         1.398957401260347E-102
   33.1550000000000         2.506479801294721E-102
   33.3450000000000         4.092974190745663E-102
   33.5350000000000         6.242491709109917E-102
   33.7250000000000         8.986181788879003E-102
   33.9150000000000         1.224580357553855E-101
   34.1050000000000         1.575080791673569E-101
   34.2950000000000         1.892412688537021E-101
   34.4850000000000         2.073450650960608E-101
   34.6750000000000         1.951867611702242E-101
   34.8650000000000         1.278598216790761E-101
   35.0550000000000        -2.967463497350568E-102
   35.2450000000000        -3.238742733706851E-101
   35.4350000000000        -8.125765370284905E-101
   35.6250000000000        -1.562534406847264E-100
   35.8150000000000        -2.643024125338499E-100
   36.0050000000000        -4.113596811324197E-100
   36.1950000000000        -6.003662275428317E-100
   36.3850000000000        -8.281354789721733E-100
   36.5750000000000        -1.080918973175975E-099
   36.7650000000000        -1.328458718892144E-099
   36.9550000000000        -1.516468627942433E-099
   37.1450000000000        -1.557733469678128E-099
   37.3350000000000        -1.322409145082063E-099
   37.5250000000000        -6.286924594449387E-100
   37.7150000000000         7.641616114349426E-100
   37.9050000000000         3.157437099175163E-099
   38.0950000000000         6.904819270867236E-099
   38.2850000000000         1.238865001002992E-098
   38.4750000000000         1.997307548280403E-098
   38.6650000000000         2.992504979491811E-098
   38.8550000000000         4.229305012465950E-098
   39.0450000000000         5.673319039632111E-098
   39.2350000000000         7.227393270318875E-098
   39.4250000000000         8.701480376039699E-098
   39.6150000000000         9.776274849513563E-098
   39.8050000000000         9.962361480041640E-098
   39.9950000000000         8.558760690746501E-098
   40.1850000000000         4.617824709606246E-098
   40.3750000000000        -3.072401080492466E-098
   40.5650000000000        -1.597192759701459E-097
   40.7550000000000        -3.571592940816081E-097
   40.9450000000000        -6.395556105036650E-097
   41.1350000000000        -1.020763178767476E-096
   41.3250000000000        -1.507532928629655E-096
   41.5150000000000        -2.093028031740927E-096
   41.7050000000000        -2.747982807775623E-096
   41.8950000000000        -3.409399400371591E-096
   42.0850000000000        -3.967085457156661E-096
   42.2750000000000        -4.249002275526548E-096
   42.4650000000000        -4.007379718303841E-096
   42.6550000000000        -2.908903193356795E-096
   42.8450000000000        -5.339833978131591E-097
   43.0350000000000         3.607908026847595E-096
   43.2250000000000         1.003783319718075E-095
   43.4150000000000         1.923124103924343E-095
   43.6050000000000         3.149472344736218E-095
   43.7950000000000         4.678552264475016E-095
   43.9850000000000         6.446790075537134E-095
   44.1750000000000         8.300919184091214E-095
   44.3650000000000         9.963296191308907E-095
   44.5550000000000         1.099684370197392E-094
   44.7450000000000         1.077648008079230E-094
   44.9350000000000         8.477541473940344E-095
   45.1250000000000         3.095772148615603E-095
   45.3150000000000        -6.482615263485767E-095
   45.5050000000000        -2.133948136710020E-094
   45.6950000000000        -4.229024828654589E-094
   45.8850000000000        -6.953870971655251E-094
   46.0750000000000        -1.022141518123661E-093
   46.2650000000000        -1.378033349632785E-093
   46.4550000000000        -1.715204681430578E-093
   46.6450000000000        -1.957010376140676E-093
   46.8350000000000        -1.993595192346085E-093
   47.0250000000000        -1.681129764953557E-093
   47.2150000000000        -8.473462774556539E-094
   47.4050000000000         6.934907982038352E-094
   47.5950000000000         3.112857525936142E-093
   47.7850000000000         6.524520026789380E-093
   47.9750000000000         1.092355027517376E-092
   48.1650000000000         1.610820746105440E-092
   48.3550000000000         2.158852718322974E-092
   48.5450000000000         2.649016590282748E-092
   48.7350000000000         2.946780653015742E-092
   48.9250000000000         2.864872544684089E-092
   49.1150000000000         2.163310892639170E-092
   49.3050000000000         5.582306388122505E-093
   49.4950000000000        -2.257165329870875E-092
   49.6850000000000        -6.576288546855190E-092
   49.8750000000000        -1.262458800463705E-091
   50.0650000000000        -2.048417040427950E-091
   50.2550000000000        -2.999490404699163E-091
   50.4450000000000        -4.062777555512247E-091
   50.6350000000000        -5.132235660088469E-091
   50.8250000000000        -6.027295471855432E-091
   51.0150000000000        -6.463708033530786E-091
   51.2050000000000        -6.012672379891307E-091
   51.3950000000000        -4.043239833681642E-091
   51.5850000000000         3.567826795910655E-092
   51.7750000000000         8.482907463798761E-091
   51.9650000000000         2.213136131335356E-090
   52.1550000000000         4.370539617323330E-090
   52.3450000000000         7.625122679190075E-090
   52.5350000000000         1.233128525775119E-089
   52.7250000000000         1.884223442471339E-089
   52.9150000000000         2.739502731636545E-089
   53.1050000000000         3.789407348017407E-089
   53.2950000000000         4.954723204942794E-089
   53.4850000000000         6.030669860470282E-089
   53.6750000000000         6.607869725832184E-089
   53.8650000000000         5.970206638078512E-089
   54.0550000000000         2.976947487648133E-089
   54.2450000000000        -4.050902784368494E-089
   54.4350000000000        -1.740091852672059E-088
   54.6250000000000        -3.993094877236480E-088
   54.8150000000000        -7.482468998074854E-088
   55.0050000000000        -1.250092971818580E-087
   55.1950000000000        -1.920748329897811E-087
   55.3850000000000        -2.745267676757801E-087
   55.5750000000000        -3.652344881347357E-087
   55.7650000000000        -4.480381657142471E-087
   55.9550000000000        -4.936754394832639E-087
   56.1450000000000        -4.555197988386945E-087
   56.3350000000000        -2.661057675402711E-087
   56.5250000000000         1.639518250829243E-087
   56.7150000000000         9.423060591771408E-087
   56.9050000000000         2.183446607956691E-086
   57.0950000000000         3.985974766545537E-086
   57.2850000000000         6.395180608328297E-086
   57.4750000000000         9.348657633520164E-086
   57.6650000000000         1.260539468992776E-085
   57.8550000000000         1.566358157688724E-085
   58.0450000000000         1.767960602610608E-085
   58.2350000000000         1.741032274605134E-085
   58.4250000000000         1.321176602912635E-085
   58.6150000000000         3.137966599562602E-086
   58.8050000000000        -1.481030672460056E-085
   58.9950000000000        -4.224088169538032E-085
   59.1850000000000        -7.970491302460351E-085
   59.3750000000000        -1.258338144578620E-084
   59.5650000000000        -1.763829709455331E-084
   59.7550000000000        -2.234073386307727E-084
   59.9450000000000        -2.549493867914400E-084
   60.1350000000000        -2.557911743258013E-084
   60.3250000000000        -2.099682351763294E-084
   60.5150000000000        -1.057915279409920E-084
   60.7050000000000         5.603272169296326E-085
   60.8950000000000         2.510998868634164E-084
   61.0850000000000         4.177539626870704E-084
   61.2750000000000         4.439115477445657E-084
   61.4650000000000         1.593564282800247E-084
   61.6550000000000        -6.582093175933314E-084
   61.8450000000000        -2.251468846882738E-083
   62.0350000000000        -4.810976218532957E-083
   62.2250000000000        -8.344992404058370E-083
   62.4150000000000        -1.247682087023288E-082
   62.6050000000000        -1.616319269501048E-082
   62.7950000000000        -1.734549663964756E-082
   62.9850000000000        -1.257740885810104E-082
   63.1750000000000         3.279154432113382E-083
   63.3650000000000         3.713170159106528E-082
   63.5550000000000         9.726926456283032E-082
   63.7450000000000         1.921829982664849E-081
   63.9350000000000         3.281960081932884E-081
   64.1250000000000         5.054750642777548E-081
   64.3150000000000         7.120610933276784E-081
   64.5050000000000         9.157744457755314E-081
   64.6950000000000         1.054299600454716E-080
   64.8850000000000         1.024509710451728E-080
   65.0750000000000         6.732168882349403E-081
   65.2650000000000        -2.069509146797843E-081
   65.4550000000000        -1.871004421810663E-080
   65.6450000000000        -4.596867031286704E-080
   65.8350000000000        -8.633248043984977E-080
   66.0250000000000        -1.411008859462630E-079
   66.2150000000000        -2.090258158194056E-079
   66.4050000000000        -2.844385483051631E-079
   66.5950000000000        -3.549000827656955E-079
   66.7850000000000        -3.985581967429509E-079
   66.9750000000000        -3.816132479051462E-079
   67.1650000000000        -2.565912188189644E-079
   67.3550000000000         3.751326785507354E-080
   67.5450000000000         5.717623370468230E-079
   67.7350000000000         1.418639949424208E-078
   67.9250000000000         2.636202311156672E-078
   68.1150000000000         4.243034626869317E-078
   68.3050000000000         6.182622230391281E-078
   68.4950000000000         8.277093919600892E-078
   68.6850000000000         1.017267284212597E-077
   68.8750000000000         1.128280486790886E-077
   69.0650000000000         1.073994271865982E-077
   69.2550000000000         7.373242910590949E-078
   69.4450000000000        -2.634767509143437E-079
   69.6350000000000        -1.378223594208565E-077
   69.8250000000000        -3.473340968138176E-077
   70.0150000000000        -6.422285392530419E-077
   70.2050000000000        -1.023426290030226E-076
   70.3950000000000        -1.474019530101622E-076
   70.5850000000000        -1.949780739229823E-076
   70.7750000000000        -2.368590306989380E-076
   70.9650000000000        -2.600241703852280E-076
   71.1550000000000        -2.459032953920028E-076
   71.3450000000000        -1.702661650265423E-076
   71.5350000000000        -4.208605607385685E-078
   71.7250000000000         2.832014943022799E-076
   71.9150000000000         7.200074153705751E-076
   72.1050000000000         1.323610201444388E-075
   72.2950000000000         2.089803653977873E-075
   72.4850000000000         2.978618607195420E-075
   72.6750000000000         3.897654906995822E-075
   72.8650000000000         4.684540283710678E-075
   73.0550000000000         5.091427339456031E-075
   73.2450000000000         4.775974408771933E-075
   73.4350000000000         3.304920587563830E-075
   73.6250000000000         1.779159237507980E-076
   73.8150000000000        -5.119673683614290E-075
   74.0050000000000        -1.302622508889323E-074
   74.1950000000000        -2.376845238876588E-074
   74.3850000000000        -3.717807371598302E-074
   74.5750000000000        -5.246474035397905E-074
   74.7650000000000        -6.796048489708736E-074
   74.9550000000000        -8.086610838653604E-074
   75.1450000000000        -8.704886491205207E-074
   75.3350000000000        -8.096227948676443E-074
   75.5250000000000        -5.578047233936011E-074
   75.7150000000000        -3.856948989220152E-075
   75.9050000000000         8.237427036246038E-074
   76.0950000000000         2.089464613333373E-073
   76.2850000000000         3.782831443057970E-073
   76.4750000000000         5.864922303570538E-073
   76.6650000000000         8.201404620291226E-073
   76.8550000000000         1.052778700508641E-072
   77.0450000000000         1.241697978987301E-072
   77.2350000000000         1.325644009523169E-072
   77.4250000000000         1.224481917715151E-072
   77.6150000000000         8.420454104963001E-073
   77.8050000000000         7.356910035148767E-074
   77.9950000000000        -1.180885698708640E-072
   78.1850000000000        -2.995833884750093E-072
   78.3750000000000        -5.391997308137766E-072
   78.5650000000000        -8.300580836923244E-072
   78.7550000000000        -1.152214573364895E-071
   78.9450000000000        -1.468410950225327E-071
   79.1350000000000        -1.720346802536639E-071
   79.3250000000000        -1.826422358745768E-071
   79.5150000000000        -1.682189270657137E-071
   79.7050000000000        -1.164986350464919E-071
   79.8950000000000        -1.443584933752972E-072
   80.0850000000000         1.500226818824476E-071
   80.2750000000000         3.853239640662006E-071
   80.4650000000000         6.928194546000966E-071
   80.6550000000000         1.062496803099783E-070
   80.8450000000000         1.468213554042581E-070
   81.0350000000000         1.862952741508653E-070
   81.2250000000000         2.174903443227565E-070
   81.4150000000000         2.305473407640340E-070
   81.6050000000000         2.130626694289255E-070
   81.7950000000000         1.507149878066806E-070
   81.9850000000000         2.855108601860849E-071
   82.1750000000000        -1.669205221466815E-070
   82.3650000000000        -4.447316196163446E-070
   82.5550000000000        -8.055502855171193E-070
   82.7450000000000        -1.237014956651905E-069
   82.9350000000000        -1.708650082642365E-069
   83.1250000000000        -2.166956104804990E-069
   83.3150000000000        -2.531551429996719E-069
   83.5050000000000        -2.693537843531661E-069
   83.6950000000000        -2.517521310358483E-069
   83.8850000000000        -1.848889035163515E-069
   84.0750000000000        -5.279474712094382E-070
   84.2650000000000         1.587720132516204E-069
   84.4550000000000         4.591902583181072E-069
   84.6450000000000         8.489645140847656E-069
   84.8350000000000         1.315007595635211E-068
   85.0250000000000         1.825584238003228E-068
   85.2150000000000         2.325521052805103E-068
   85.4050000000000         2.732553692407827E-068
   85.5950000000000         2.935947472367285E-068
   85.7850000000000         2.798752428225544E-068
   85.9750000000000         2.165183757984593E-068
   86.1650000000000         8.745876501859078E-069
   86.3550000000000        -1.216813501441961E-068
   86.5450000000000        -4.205778333730541E-068
   86.7350000000000        -8.103838355532659E-068
   86.9250000000000        -1.279272141557727E-067
   87.1150000000000        -1.797688113623254E-067
   87.3050000000000        -2.313873253723800E-067
   87.4950000000000        -2.750452307767314E-067
   87.6850000000000        -3.003105638404660E-067
   87.8750000000000        -2.942537959616318E-067
   88.0650000000000        -2.421058198355523E-067
   88.2550000000000        -1.285047650772578E-067
   88.4450000000000         6.056464948190613E-068
   88.6350000000000         3.350858514755139E-067
   88.8250000000000         6.976076504642305E-067
   89.0150000000000         1.139268659358057E-066
   89.2050000000000         1.635543888185075E-066
   89.3950000000000         2.142187336136754E-066
   89.5850000000000         2.592039755306243E-066
   89.7750000000000         2.893562747509321E-066
   89.9650000000000         2.932120498650119E-066
   90.1550000000000         2.575121711555515E-066
   90.3450000000000         1.682112340592931E-066
   90.5350000000000         1.207257868486129E-067
   90.7250000000000        -2.210997221526171E-066
   90.9150000000000        -5.356053219853818E-066
   91.1050000000000        -9.264743139078673E-066
   91.2950000000000        -1.375802063893363E-065
   91.4850000000000        -1.849161857968716E-065
   91.6750000000000        -2.292623774043554E-065
   91.8650000000000        -2.631066920688532E-065
   92.0550000000000        -2.768609405840757E-065
   92.2450000000000        -2.592067879269206E-065
   92.4350000000000        -1.978362119823467E-065
   92.6250000000000        -8.066618761800781E-066
   92.8150000000000         1.024205594393013E-065
   93.0050000000000         3.573042411403954E-065
   93.1950000000000         6.828908402405094E-065
   93.3850000000000         1.068065303359295E-064
   93.5750000000000         1.488602888356067E-064
   93.7650000000000         1.904432192126426E-064
   93.9550000000000         2.257772875682343E-064
   94.1450000000000         2.472788883035433E-064
   94.3350000000000         2.457483282415143E-064
   94.5250000000000         2.108588157382535E-064
   94.7150000000000         1.320143042228301E-064
   94.9050000000000        -3.722336044297941E-067
   95.0950000000000        -1.931609307565149E-064
   95.2850000000000        -4.483576059785020E-064
   95.4750000000000        -7.606738452100642E-064
   95.6650000000000        -1.114955422696039E-063
   95.8550000000000        -1.483756915580561E-063
   96.0450000000000        -1.825443741347257E-063
   96.2350000000000        -2.083301896046448E-063
   96.4250000000000        -2.186215611935248E-063
   96.6150000000000        -2.051515255369325E-063
   96.8050000000000        -1.590580090930221E-063
   96.9950000000000        -7.176793140765367E-064
   97.1850000000000         6.376731870210892E-064
   97.3750000000000         2.514908938444931E-063
   97.5650000000000         4.903670081252609E-063
   97.7550000000000         7.723287670976658E-063
   97.9450000000000         1.080233536610229E-062
   98.1350000000000         1.386091839932009E-062
   98.3250000000000         1.649915739431514E-062
   98.5150000000000         1.819602618161562E-062
   98.7050000000000         1.832316922349107E-062
   98.8950000000000         1.617839759388257E-062
   99.0850000000000         1.104306493704557E-062
   99.2750000000000         2.266276352279405E-063
   99.4650000000000        -1.062327648325227E-062
   99.6550000000000        -2.778024263329498E-062
   99.8450000000000        -4.888692177281358E-062
   100.035000000000        -7.299076149151133E-062
   100.225000000000        -9.835272613378587E-062
   100.415000000000        -1.223303380074170E-061
   100.605000000000        -1.413248665385407E-061
   100.795000000000        -1.508264656026867E-061
   100.985000000000        -1.455929179229685E-061
   101.175000000000        -1.199957706288512E-061
   101.365000000000        -6.856071779328978E-062
   101.555000000000         1.328412181444204E-062
   101.745000000000         1.282588068067899E-061
   101.935000000000         2.761158775442047E-061
   102.125000000000         4.524284682656748E-061
   102.315000000000         6.473933882928944E-061
   102.505000000000         8.448043715862351E-061
   102.695000000000         1.021393407584391E-060
   102.885000000000         1.146773561728665E-060
   103.075000000000         1.184237590574590E-060
   103.265000000000         1.092664415194928E-060
   103.455000000000         8.297510480505840E-061
   103.645000000000         3.567121512569433E-061
   103.835000000000        -3.555340759124951E-061
   104.025000000000        -1.318850502823806E-060
   104.215000000000        -2.519419648737512E-060
   104.405000000000        -3.908989921696947E-060
   104.595000000000        -5.396780941827499E-060
   104.785000000000        -6.843298952052291E-060
   104.975000000000        -8.057578667690362E-060
   105.165000000000        -8.799553038414440E-060
   105.355000000000        -8.789303146492765E-060
   105.545000000000        -7.724798041815188E-060
   105.735000000000        -5.309340661932083E-060
   105.925000000000        -1.289241181769011E-060
   106.115000000000         4.498789395117609E-060
   106.305000000000         1.207239948481927E-059
   106.495000000000         2.124405580605893E-059
   106.685000000000         3.156263580989392E-059
   106.875000000000         4.226355508689789E-059
   107.065000000000         5.223666762637403E-059
   107.255000000000         6.002261414160508E-059
   107.445000000000         6.384900911262311E-059
   107.635000000000         6.171749265912564E-059
   107.825000000000         5.155086504407616E-059
   108.015000000000         3.140594114482933E-059
   108.205000000000        -2.478312872398905E-061
   108.395000000000        -4.419164498037371E-059
   108.585000000000        -1.000798374113459E-058
   108.775000000000        -1.660502350867939E-058
   108.965000000000        -2.383630714259344E-058
   109.155000000000        -3.111210919474618E-058
   109.345000000000        -3.761336240110584E-058
   109.535000000000        -4.229940264209301E-058
   109.725000000000        -4.394409896570605E-058
   109.915000000000        -4.120674740083714E-058
   110.105000000000        -3.274246082757885E-058