  -1.42500000000000         0.000000000000000E+000
  -1.23500000000000         0.000000000000000E+000
  -1.04500000000000         0.000000000000000E+000
 -0.855000000000000         0.000000000000000E+000
 -0.665000000000000         0.000000000000000E+000
 -0.475000000000000         0.000000000000000E+000
 -0.285000000000000         0.000000000000000E+000
 -9.499999999999975E-002    0.000000000000000E+000
  9.500000000000020E-002    0.000000000000000E+000
  0.285000000000000         0.000000000000000E+000
  0.475000000000000         0.000000000000000E+000
  0.665000000000000         0.000000000000000E+000
  0.855000000000000         0.000000000000000E+000
   1.04500000000000         0.000000000000000E+000
   1.23500000000000         0.000000000000000E+000
   1.42500000000000         0.000000000000000E+000
   1.61500000000000         0.000000000000000E+000
   1.80500000000000         0.000000000000000E+000
   1.99500000000000         0.000000000000000E+000
   2.18500000000000         0.000000000000000E+000
   2.37500000000000         0.000000000000000E+000
   2.56500000000000         0.000000000000000E+000
   2.75500000000000         0.000000000000000E+000
   2.94500000000000         0.000000000000000E+000
   3.13500000000000         0.000000000000000E+000
   3.32500000000000         0.000000000000000E+000
   3.51500000000000         0.000000000000000E+000
   3.70500000000000         0.000000000000000E+000
   3.89500000000000         0.000000000000000E+000
   4.08500000000000         0.000000000000000E+000
   4.27500000000000         0.000000000000000E+000
   4.46500000000000         0.000000000000000E+000
   4.65500000000000         0.000000000000000E+000
   4.84500000000000         0.000000000000000E+000
   5.03500000000000         0.000000000000000E+000
   5.22500000000000         0.000000000000000E+000
   5.41500000000000         0.000000000000000E+000
   5.60500000000000         0.000000000000000E+000
   5.79500000000000         0.000000000000000E+000
   5.98500000000000         0.000000000000000E+000
   6.17500000000000         0.000000000000000E+000
   6.36500000000000         0.000000000000000E+000
   6.55500000000000         0.000000000000000E+000
   6.74500000000000        -9.759762879303832E-182
   6.93500000000000         1.410941910679136E-173
   7.12500000000000        -9.230620952008327E-170
   7.31500000000000        -5.829806688688457E-168
   7.50500000000000        -1.734311106093782E-166
   7.69500000000000        -3.282470375879318E-165
   7.88500000000000        -4.574620389427911E-164
   8.07500000000000        -5.283123475835763E-163
   8.26500000000000        -5.479746472061961E-162
   8.45500000000000        -4.722167632901342E-161
   8.64500000000000        -1.521375730955703E-160
   8.83500000000000         5.668135959082788E-159
   9.02500000000000         2.676758342734759E-157
   9.21500000000000        -2.535613859326103E-156
   9.40500000000000        -8.059864758274651E-154
   9.59500000000000        -4.144547126174313E-152
   9.78500000000000        -1.278399529979022E-150
   9.97500000000000        -2.861491690422647E-149
   10.1650000000000        -5.043971857434492E-148
   10.3550000000000        -7.334363105236247E-147
   10.5450000000000        -9.064452278025415E-146
   10.7350000000000        -9.718965183472160E-145
   10.9250000000000        -9.171835918111544E-144
   11.1150000000000        -7.693764170975706E-143
   11.3050000000000        -5.770878117183535E-142
   11.4950000000000        -3.877099345958705E-141
   11.6850000000000        -2.323653107071750E-140
   11.8750000000000        -1.224718215814094E-139
   12.0650000000000        -5.464454322679842E-139
   12.2550000000000        -1.831832702707684E-138
   12.4450000000000        -1.965104147334893E-138
   12.6350000000000         3.577352692135802E-137
   12.8250000000000         4.247202683216663E-136
   13.0150000000000         3.270815415104231E-135
   13.2050000000000         2.092096098271791E-134
   13.3950000000000         1.190614443611084E-133
   13.5850000000000         6.211942684782136E-133
   13.7750000000000         3.019814016400987E-132
   13.9650000000000         1.381571568389714E-131
   14.1550000000000         5.988880235621596E-131
   14.3450000000000         2.471815999300914E-130
   14.5350000000000         9.749549866983139E-130
   14.7250000000000         3.685506741942574E-129
   14.9150000000000         1.338272411199414E-128
   15.1050000000000         4.676491398399709E-128
   15.2950000000000         1.574912877486462E-127
   15.4850000000000         5.117349530527620E-127
   15.6750000000000         1.605625414165271E-126
   15.8650000000000         4.867176236381029E-126
   16.0550000000000         1.425664624022663E-125
   16.2450000000000         4.034232311439539E-125
   16.4350000000000         1.101983181009397E-124
   16.6250000000000         2.901432714728040E-124
   16.8150000000000         7.344518508708523E-124
   17.0050000000000         1.779853498916738E-123
   17.1950000000000         4.099896177548329E-123
   17.3850000000000         8.863996485582139E-123
   17.5750000000000         1.754677629216061E-122
   17.7650000000000         3.001509063333254E-122
   17.9550000000000         3.644251859594300E-122
   18.1450000000000        -1.002298275613767E-122
   18.3350000000000        -2.757756967728751E-121
   18.5250000000000        -1.278386908470365E-120
   18.7150000000000        -4.503048097595520E-120
   18.9050000000000        -1.397491876965859E-119
   19.0950000000000        -4.012917935104711E-119
   19.2850000000000        -1.090444790426951E-118
   19.4750000000000        -2.838654999491422E-118
   19.6650000000000        -7.132480375612309E-118
   19.8550000000000        -1.738328372561760E-117
   20.0450000000000        -4.123656750488090E-117
   20.2350000000000        -9.545164933711600E-117
   20.4250000000000        -2.160019644825273E-116
   20.6150000000000        -4.785680301534432E-116
   20.8050000000000        -1.039315693035251E-115
   20.9950000000000        -2.214508430302367E-115
   21.1850000000000        -4.633048791074608E-115
   21.3750000000000        -9.523382152327882E-115
   21.5650000000000        -1.924324135418988E-114
   21.7550000000000        -3.823987407792045E-114
   21.9450000000000        -7.475849373168281E-114
   22.1350000000000        -1.438251523991141E-113
   22.3250000000000        -2.723550691352395E-113
   22.5150000000000        -5.077278677291326E-113
   22.7050000000000        -9.318843507717328E-113
   22.8950000000000        -1.683988809476559E-112
   23.0850000000000        -2.995987851348820E-112
   23.2750000000000        -5.246911792143632E-112
   23.4650000000000        -9.043235139981334E-112
   23.6550000000000        -1.533336165939598E-111
   23.8450000000000        -2.556290184927317E-111
   24.0350000000000        -4.187112868623283E-111
   24.2250000000000        -6.731288867992423E-111
   24.4150000000000        -1.060558046935525E-110
   24.6050000000000        -1.634357835259957E-110
   24.7950000000000        -2.456322738811665E-110
   24.9850000000000        -3.585141133519624E-110
   25.1750000000000        -5.048565692111078E-110
   25.3650000000000        -6.785689349986508E-110
   25.5550000000000        -8.537044297406816E-110
   25.7450000000000        -9.647319621223973E-110
   25.9350000000000        -8.727026102394224E-110
   26.1250000000000        -3.094313264411474E-110
   26.3150000000000         1.211390111188743E-109
   26.5050000000000         4.530946776068444E-109
   26.6950000000000         1.104833202553421E-108
   26.8850000000000         2.301038488769841E-108
   27.0750000000000         4.390674482570662E-108
   27.2650000000000         7.897728492977695E-108
   27.4550000000000         1.358104984507420E-107
   27.6450000000000         2.249525053529545E-107
   27.8350000000000         3.603375872736151E-107
   28.0250000000000         5.591646823415176E-107
   28.2150000000000         8.405425508077990E-107
   28.4050000000000         1.221762329744552E-106
   28.5950000000000         1.710376679496870E-106
   28.7850000000000         2.289319205243950E-106
   28.9750000000000         2.891057036083205E-106
   29.1650000000000         3.355258169947537E-106
   29.3550000000000         3.362805836257271E-106
   29.5450000000000         2.337525487772241E-106
   29.7350000000000        -6.936706600524577E-107
   29.9250000000000        -7.290296054841649E-106
   30.1150000000000        -1.984072450461333E-105
   30.3050000000000        -4.184988429731851E-105
   30.4950000000000        -7.824398912711383E-105
   30.6850000000000        -1.356293453178334E-104
   30.8750000000000        -2.223879579369230E-104
   31.0650000000000        -3.484130995605428E-104
   31.2550000000000        -5.241785329835011E-104
   31.4450000000000        -7.586942387710625E-104
   31.6350000000000        -1.055734606138992E-103
   31.8250000000000        -1.407549409790410E-103
   32.0150000000000        -1.785119944245746E-103
   32.2050000000000        -2.123966970386265E-103
   32.3950000000000        -2.304656670178608E-103
   32.5850000000000        -2.127637484574808E-103
   32.7750000000000        -1.283083176113659E-103
   32.9650000000000         6.817175024659645E-104
   33.1550000000000         4.391882844893278E-103
   33.3450000000000         1.066136413733164E-102
   33.5350000000000         2.048005674219445E-102
   33.7250000000000         3.494729656528393E-102
   33.9150000000000         5.511768266148060E-102
   34.1050000000000         8.171446357914112E-102
   34.2950000000000         1.146556516411417E-101
   34.4850000000000         1.523313533663691E-101
   34.6750000000000         1.905718768616661E-101
   34.8650000000000         2.212613022323498E-101
   35.0550000000000         2.305888949693790E-101
   35.2450000000000         1.970017486766809E-101
   35.4350000000000         8.903892168875919E-102
   35.6250000000000        -1.365966179794374E-101
   35.8150000000000        -5.361246785370848E-101
   36.0050000000000        -1.178003667520041E-100
   36.1950000000000        -2.139143280761530E-100
   36.3850000000000        -3.496219901950785E-100
   36.5750000000000        -5.309821631491526E-100
   36.7650000000000        -7.598730438956238E-100
   36.9550000000000        -1.030141141844909E-099
   37.1450000000000        -1.322190341118862E-099
   37.3350000000000        -1.595803889521080E-099
   37.5250000000000        -1.781158541951144E-099
   37.7150000000000        -1.768288972512094E-099
   37.9050000000000        -1.395737095004134E-099
   38.0950000000000        -4.398227398501075E-100
   38.2850000000000         1.393056841835123E-099
   38.4750000000000         4.467420763654349E-099
   38.6650000000000         9.207742665037956E-099
   38.8550000000000         1.606846215739783E-098
   39.0450000000000         2.547595500689098E-098
   39.2350000000000         3.773163170134441E-098
   39.4250000000000         5.286406166538506E-098
   39.6150000000000         7.041792912966069E-098
   39.8050000000000         8.916963364273814E-098
   39.9950000000000         1.067646997049869E-097
   40.1850000000000         1.192824558353220E-097
   40.3750000000000         1.207506082829800E-097
   40.5650000000000         1.026584960393484E-097
   40.7550000000000         5.355503188443182E-098
   40.9450000000000        -4.113288405116927E-098
   41.1350000000000        -1.988631690319278E-097
   41.3250000000000        -4.390512992346552E-097
   41.5150000000000        -7.811045904698606E-097
   41.7050000000000        -1.241000620223933E-096
   41.8950000000000        -1.825951929997919E-096
   42.0850000000000        -2.526717991463103E-096
   42.2750000000000        -3.307246326068008E-096
   42.4650000000000        -4.091602615481894E-096
   42.6550000000000        -4.748649492089654E-096
   42.8450000000000        -5.075723718250796E-096
   43.0350000000000        -4.783700878492521E-096
   43.2250000000000        -3.487355462209832E-096
   43.4150000000000        -7.067934097495417E-097
   43.6050000000000         4.112173216478000E-096
   43.7950000000000         1.154879659522867E-095
   43.9850000000000         2.211787181824021E-095
   44.1750000000000         3.612819561488713E-095
   44.3650000000000         5.347920022151728E-095
   44.5550000000000         7.339133312013595E-095
   44.7450000000000         9.407599071376391E-095
   44.9350000000000         1.123673111907600E-094
   45.1250000000000         1.233619591321882E-094
   45.3150000000000         1.201444581730615E-094
   45.5050000000000         9.371346637400486E-095
   45.6950000000000         3.326522320304117E-095
   45.8850000000000        -7.297228689990200E-095
   46.0750000000000        -2.361375053523749E-094
   46.2650000000000        -4.641541177892371E-094
   46.4550000000000        -7.580117307402558E-094
   46.6450000000000        -1.106872161209525E-093
   46.8350000000000        -1.482179690215767E-093
   47.0250000000000        -1.831278561159233E-093
   47.2150000000000        -2.071483785188106E-093
   47.4050000000000        -2.086100055717031E-093
   47.5950000000000        -1.724496964923734E-093
   47.7850000000000        -8.089460974148107E-094
   47.9750000000000         8.486205812716865E-094
   48.1650000000000         3.416637566213362E-093
   48.3550000000000         6.997827357420363E-093
   48.5450000000000         1.156530320059580E-092
   48.7350000000000         1.688131058172936E-092
   48.9250000000000         2.240238111954421E-092
   49.1150000000000         2.717915538500130E-092
   49.3050000000000         2.976461983988016E-092
   49.4950000000000         2.815063188337451E-092
   49.6850000000000         1.975885070048480E-092
   49.8750000000000         1.518017976567190E-093
   50.0650000000000        -2.993530251190357E-092
   50.2550000000000        -7.789042324061121E-092
   50.4450000000000        -1.449819688626195E-091
   50.6350000000000        -2.323345944108263E-091
   50.8250000000000        -3.383501401642932E-091
   51.0150000000000        -4.570146734654624E-091
   51.2050000000000        -5.755402873929722E-091
   51.3950000000000        -6.710714534219154E-091
   51.5850000000000        -7.060927963857757E-091
   51.7750000000000        -6.221157400235729E-091
   51.9650000000000        -3.312801866406248E-091
   52.1550000000000         2.941690094819498E-091
   52.3450000000000         1.433756927650724E-090
   52.5350000000000         3.329615681660141E-090
   52.7250000000000         6.291100051494278E-090
   52.9150000000000         1.068363991689677E-089
   53.1050000000000         1.688610449256802E-089
   53.2950000000000         2.519302851788022E-089
   53.4850000000000         3.562915193002263E-089
   53.6750000000000         4.763576453700998E-089
   53.8650000000000         5.958493708272516E-089
   54.0550000000000         6.808473350216546E-089
   54.2450000000000         6.706447597028112E-089
   54.4350000000000         4.668524572474648E-089
   54.6250000000000        -7.780028209384651E-090
   54.8150000000000        -1.167978850248424E-088
   55.0050000000000        -3.066401728293185E-088
   55.1950000000000        -6.078700964923758E-088
   55.3850000000000        -1.051141617124659E-087
   55.5750000000000        -1.658914810144649E-087
   55.7650000000000        -2.431523831301183E-087
   55.9550000000000        -3.326151756238818E-087
   56.1450000000000        -4.227887232644679E-087
   56.3350000000000        -4.913431520704697E-087
   56.5250000000000        -5.010477766039175E-087
   56.7150000000000        -3.959532775992113E-087
   56.9050000000000        -9.900677422149729E-088
   57.0950000000000         4.870882563562145E-087
   57.2850000000000         1.473298016969228E-086
   57.4750000000000         2.968962649944833E-086
   57.6650000000000         5.054597620672385E-086
   57.8550000000000         7.740150366019810E-086
   58.0450000000000         1.090775318830417E-085
   58.2350000000000         1.424129642165913E-085
   58.4250000000000         1.715039485530101E-085
   58.6150000000000         1.870361945502646E-085
   58.8050000000000         1.759474714314786E-085
   58.9950000000000         1.217488424324967E-085
   59.1850000000000         5.900337448512014E-087
   59.3750000000000        -1.893614536598302E-085
   59.5650000000000        -4.764673997930557E-085
   59.7550000000000        -8.562681938905460E-085
   59.9450000000000        -1.310707083041648E-084
   60.1350000000000        -1.795910616103026E-084
   60.3250000000000        -2.238382055130051E-084
   60.5150000000000        -2.538353830091505E-084
   60.7050000000000        -2.585624696027133E-084
   60.8950000000000        -2.293848717898573E-084
   61.0850000000000        -1.658437560825610E-084
   61.2750000000000        -8.398553259155560E-085
   61.4650000000000        -2.667507486921950E-085
   61.6550000000000        -7.406609935398367E-085
   61.8450000000000        -3.504855249792102E-084
   62.0350000000000        -1.021417806193701E-083
   62.2250000000000        -2.271234825339877E-083
   62.4150000000000        -4.249307086397545E-083
   62.6050000000000        -6.970108375095665E-083
   62.7950000000000        -1.015343386188818E-082
   62.9850000000000        -1.299610988417429E-082
   63.1750000000000        -1.387944405464313E-082
   63.3650000000000        -1.004041273244115E-082
   63.5550000000000         2.727679052178932E-083
   63.7450000000000         3.022564402096388E-082
   63.9350000000000         7.966164963464234E-082
   64.1250000000000         1.588604015193915E-081
   64.3150000000000         2.745263364919077E-081
   64.5050000000000         4.291707127067125E-081
   64.6950000000000         6.163277470985860E-081
   64.8850000000000         8.138146316346981E-081
   65.0750000000000         9.750986585099316E-081
   65.2650000000000         1.019393925997672E-080
   65.4550000000000         8.219881690310790E-081
   65.6450000000000         2.075403809868292E-081
   65.8350000000000        -1.049320551163980E-080
   66.0250000000000        -3.209937531832051E-080
   66.2150000000000        -6.536141198605901E-080
   66.4050000000000        -1.122405265778930E-079
   66.5950000000000        -1.729776965296246E-079
   66.7850000000000        -2.445562330829460E-079
   66.9750000000000        -3.186725203245153E-079
   67.1650000000000        -3.793019446633057E-079
   67.3550000000000        -4.001143500048754E-079
   67.5450000000000        -3.422331675391952E-079
   67.7350000000000        -1.531449503244473E-079
   67.9250000000000         2.320650644307363E-079
   68.1150000000000         8.855925735432052E-079
   68.3050000000000         1.876029974982962E-078
   68.4950000000000         3.249703009232219E-078
   68.6850000000000         5.002430851596270E-078
   68.8750000000000         7.040701234049578E-078
   69.0650000000000         9.132862254773604E-078
   69.2550000000000         1.085361488955243E-077
   69.4450000000000         1.152904267472170E-077
   69.6350000000000         1.019469996888671E-077
   69.8250000000000         5.585713634657300E-078
   70.0150000000000        -3.815131407977864E-078
   70.2050000000000        -1.963885228616890E-077
   70.3950000000000        -4.336458757742144E-077
   70.5850000000000        -7.589069013607016E-077
   70.7750000000000        -1.169152150751526E-076
   70.9650000000000        -1.641191191781484E-076
   71.1550000000000        -2.121822284269853E-076
   71.3450000000000        -2.517183271667471E-076
   71.5350000000000        -2.682934303769703E-076
   71.7250000000000        -2.417891059509552E-076
   71.9150000000000        -1.464842595320340E-076
   72.1050000000000         4.765941406538748E-077
   72.2950000000000         3.719337303305023E-076
   72.4850000000000         8.534338451419652E-076
   72.6750000000000         1.506679828990133E-075
   72.8650000000000         2.321988372107251E-075
   73.0550000000000         3.250705296308088E-075
   73.2450000000000         4.188108462389746E-075
   73.4350000000000         4.955793487041641E-075
   73.6250000000000         5.286662955616531E-075
   73.8150000000000         4.817195968429500E-075
   74.0050000000000         3.093335585041285E-075
   74.1950000000000        -4.021587753363300E-076
   74.3850000000000        -6.192078755287475E-075
   74.5750000000000        -1.470814609193388E-074
   74.7650000000000        -2.614854249078518E-074
   74.9550000000000        -4.028706885272941E-074
   75.1450000000000        -5.623899131609526E-074
   75.3350000000000        -7.220005003398286E-074
   75.5250000000000        -8.519061145746466E-074
   75.7150000000000        -9.085616648367980E-074
   75.9050000000000        -8.339702095322199E-074
   76.0950000000000        -5.572155144212121E-074
   76.2850000000000         6.526109359654816E-077
   76.4750000000000         9.171892168656736E-074
   76.6650000000000         2.253490274632541E-073
   76.8550000000000         4.032763479043416E-073
   77.0450000000000         6.212516324564560E-073
   77.2350000000000         8.651491213649504E-073
   77.4250000000000         1.107411084452591E-072
   77.6150000000000         1.303731180632678E-072
   77.8050000000000         1.390714559163218E-072
   77.9950000000000         1.285519482319289E-072
   78.1850000000000         8.887311218907095E-073
   78.3750000000000         9.188715856636295E-074
   78.5650000000000        -1.208907765214433E-072
   78.7550000000000        -3.092066789418791E-072
   78.9450000000000        -5.581661036829501E-072
   79.1350000000000        -8.610980901953369E-072
   79.3250000000000        -1.198041160517165E-071
   79.5150000000000        -1.531359265310441E-071
   79.7050000000000        -1.801840949317037E-071
   79.8950000000000        -1.926228709481857E-071
   80.0850000000000        -1.797421218564185E-071
   80.2750000000000        -1.288841904912970E-071
   80.4650000000000        -2.646056571799877E-072
   80.6550000000000         1.402944787634899E-071
   80.8450000000000         3.807119626920144E-071
   81.0350000000000         6.971727607693818E-071
   81.2250000000000         1.080769098319322E-070
   81.4150000000000         1.506404899151773E-070
   81.6050000000000         1.927834408835085E-070
   81.7950000000000         2.273423183208911E-070
   81.9850000000000         2.443725953342935E-070
   82.1750000000000         2.312274989021266E-070
   82.3650000000000         1.731205454346392E-070
   82.5550000000000         5.434376444696006E-071
   82.7450000000000        -1.396999335590973E-070
   82.9350000000000        -4.195381122920530E-070
   83.1250000000000        -7.877207000995516E-070
   83.3150000000000        -1.234078915905714E-069
   83.5050000000000        -1.730462396890910E-069
   83.6950000000000        -2.225513016510474E-069
   83.8850000000000        -2.640321999335064E-069
   84.0750000000000        -2.866121467440494E-069
   84.2650000000000        -2.765443064616353E-069
   84.4550000000000        -2.178378906625111E-069
   84.6450000000000        -9.356318728423816E-070
   84.8350000000000         1.120141631391595E-069
   85.0250000000000         4.103703873348113E-069
   85.2150000000000         8.047253899616026E-069
   85.4050000000000         1.285242490756831E-068
   85.5950000000000         1.823750101410467E-068
   85.7850000000000         2.368546591966785E-068
   85.9750000000000         2.840120529656748E-068
   86.1650000000000         3.128898813432947E-068
   86.3550000000000         3.096387357563621E-068
   86.5450000000000         2.581241133222233E-068
   86.7350000000000         1.411827547742229E-068
   86.9250000000000        -5.733456305132138E-069
   87.1150000000000        -3.496457872935145E-068
   87.3050000000000        -7.402441171914846E-068
   87.4950000000000        -1.221355045533141E-067
   87.6850000000000        -1.767943050419478E-067
   87.8750000000000        -2.332779192231470E-067
   88.0650000000000        -2.842320827238796E-067
   88.2550000000000        -3.194400882905964E-067
   88.4450000000000        -3.258943992721549E-067
   88.6350000000000        -2.883076016812001E-067
   88.8250000000000        -1.902017189969243E-067
   89.0150000000000        -1.569846956380702E-068
   89.2050000000000         2.479087224527905E-067
   89.3950000000000         6.067931887633641E-067
   89.5850000000000         1.056544762450449E-066
   89.7750000000000         1.577677000217927E-066
   89.9650000000000         2.131116908603074E-066
   90.1550000000000         2.654304918572609E-066
   90.3450000000000         3.058742153526711E-066
   90.5350000000000         3.230011775633657E-066
   90.7250000000000         3.031435989339290E-066
   90.9150000000000         2.312566197408191E-066
   91.1050000000000         9.235905433096040E-067
   91.2950000000000        -1.263572015601564E-066
   91.4850000000000        -4.327287741370539E-066
   91.6750000000000        -8.261984091782193E-066
   91.8650000000000        -1.293949025177768E-065
   92.0550000000000        -1.806918276198050E-065
   92.2450000000000        -2.316182618283497E-065
   92.4350000000000        -2.750373468197301E-065
   92.6250000000000        -3.014950747817638E-065
   92.8150000000000        -2.994284094587409E-065
   93.0050000000000        -2.557545534036697E-065
   93.1950000000000        -1.569360206724838E-065
   93.3850000000000         9.404812969497586E-067
   93.5750000000000         2.522882911824568E-065
   93.7650000000000         5.746266238282937E-065
   93.9550000000000         9.700361052701266E-065
   94.1450000000000         1.419439472348316E-064
   94.3350000000000         1.887815328066120E-064
   94.5250000000000         2.321592114846899E-064
   94.7150000000000         2.647321578809929E-064
   94.9050000000000         2.772381545897410E-064
   95.0950000000000         2.588525039754512E-064
   95.2850000000000         1.979082429856246E-064
   95.4750000000000         8.305025512271076E-065
   95.6650000000000        -9.513452532836905E-065
   95.8550000000000        -3.420121974646460E-064
   96.0450000000000        -6.563862598727887E-064
   96.2350000000000        -1.027717095425191E-063
   96.4250000000000        -1.433321258683452E-063
   96.6150000000000        -1.835905691077386E-063
   96.8050000000000        -2.181904748975843E-063
   96.9950000000000        -2.401189392451486E-063
   97.1850000000000        -2.408789974521753E-063
   97.3750000000000        -2.109294672602480E-063
   97.5650000000000        -1.404529665731214E-063
   97.7550000000000        -2.049686792694334E-064
   97.9450000000000         1.554965509253067E-063
   98.1350000000000         3.897974616968192E-063
   98.3250000000000         6.782181817363538E-063
   98.5150000000000         1.007822425707696E-062
   98.7050000000000         1.354754782056209E-062
   98.8950000000000         1.682519666821259E-062
   99.0850000000000         1.941123560865077E-062
   99.2750000000000         2.067562303113663E-062
   99.4650000000000         1.988170801869421E-062
   99.6550000000000         1.623337370262222E-062
   99.8450000000000         8.949993084041912E-063
   100.035000000000        -2.628386826068960E-063
   100.225000000000        -1.890601815047219E-062
   100.415000000000        -3.987090924388646E-062
   100.605000000000        -6.491815367575244E-062
   100.795000000000        -9.267253022916902E-062
   100.985000000000        -1.208323716641063E-061
   101.175000000000        -1.460632970765291E-061
   101.365000000000        -1.639761634766325E-061
   101.555000000000        -1.692274400946231E-061
   101.745000000000        -1.557808618756060E-061
   101.935000000000        -1.173652668622616E-061
   102.125000000000        -4.815355401032303E-062
   102.315000000000         5.632952236274101E-062
   102.505000000000         1.980883095512583E-061
   102.695000000000         3.753770985724678E-061
   102.885000000000         5.813529606572081E-061
   103.075000000000         8.027990201260173E-061
   103.265000000000         1.019104710674122E-060
   103.455000000000         1.201734179682445E-060
   103.645000000000         1.314448183616660E-060
   103.835000000000         1.314560100774383E-060
   104.025000000000         1.155493565794434E-060
   104.215000000000         7.908579013961087E-061
   104.405000000000         1.801589922048350E-061
   104.595000000000        -7.038892398299874E-061
   104.785000000000        -1.866696829748568E-060
   104.975000000000        -3.282280203624120E-060
   105.165000000000        -4.883707715704074E-060
   105.355000000000        -6.554649053270260E-060
   105.545000000000        -8.123488666159515E-060
   105.735000000000        -9.361731843015506E-060
   105.925000000000        -9.988597118167112E-060
   106.115000000000        -9.683690037898997E-060
   106.305000000000        -8.109427094304990E-060
   106.495000000000        -4.944363841671561E-060
   106.685000000000         7.227186184395910E-062
   106.875000000000         7.085759997039177E-060
   107.065000000000         1.606328115480001E-059
   107.255000000000         2.672791292275803E-059
   107.445000000000         3.849571713190970E-059
   107.635000000000         5.042453480022583E-059
   107.825000000000         6.118502878203000E-059
   108.015000000000         6.906592536997603E-059
   108.205000000000         7.202594580644703E-059
   108.395000000000         6.780419556102374E-059
   108.585000000000         5.409840473381039E-059
   108.775000000000         2.881604784648710E-059
   108.965000000000        -9.603216272222079E-060
   109.155000000000        -6.180421179269472E-059
   109.345000000000        -1.270934098087541E-058
   109.535000000000        -2.030105365997930E-058
   109.725000000000        -2.849418631272022E-058
   109.915000000000        -3.658351671754182E-058
   110.105000000000        -4.360869149924134E-058