  -1.42500000000000         0.000000000000000E+000
  -1.23500000000000         0.000000000000000E+000
  -1.04500000000000         0.000000000000000E+000
 -0.855000000000000         0.000000000000000E+000
 -0.665000000000000         0.000000000000000E+000
 -0.475000000000000         0.000000000000000E+000
 -0.285000000000000         0.000000000000000E+000
 -9.499999999999975E-002    0.000000000000000E+000
  9.500000000000020E-002    0.000000000000000E+000
  0.285000000000000         0.000000000000000E+000
  0.475000000000000         0.000000000000000E+000
  0.665000000000000         0.000000000000000E+000
  0.855000000000000         0.000000000000000E+000
   1.04500000000000         0.000000000000000E+000
   1.23500000000000         0.000000000000000E+000
   1.42500000000000         0.000000000000000E+000
   1.61500000000000         0.000000000000000E+000
   1.80500000000000         0.000000000000000E+000
   1.99500000000000         0.000000000000000E+000
   2.18500000000000         0.000000000000000E+000
   2.37500000000000         0.000000000000000E+000
   2.56500000000000         0.000000000000000E+000
   2.75500000000000         0.000000000000000E+000
   2.94500000000000         0.000000000000000E+000
   3.13500000000000         0.000000000000000E+000
   3.32500000000000         0.000000000000000E+000
   3.51500000000000         0.000000000000000E+000
   3.70500000000000         0.000000000000000E+000
   3.89500000000000         0.000000000000000E+000
   4.08500000000000         0.000000000000000E+000
   4.27500000000000         0.000000000000000E+000
   4.46500000000000         0.000000000000000E+000
   4.65500000000000         0.000000000000000E+000
   4.84500000000000         0.000000000000000E+000
   5.03500000000000         0.000000000000000E+000
   5.22500000000000         0.000000000000000E+000
   5.41500000000000         0.000000000000000E+000
   5.60500000000000         0.000000000000000E+000
   5.79500000000000         0.000000000000000E+000
   5.98500000000000         0.000000000000000E+000
   6.17500000000000         0.000000000000000E+000
   6.36500000000000         0.000000000000000E+000
   6.55500000000000         0.000000000000000E+000
   6.74500000000000         0.000000000000000E+000
   6.93500000000000        -3.039446609316496E-176
   7.12500000000000         3.769071745451882E-170
   7.31500000000000         1.162422665715572E-168
   7.50500000000000        -1.365344047004714E-167
   7.69500000000000        -1.418025515161061E-165
   7.88500000000000        -3.679260653220610E-164
   8.07500000000000        -5.211868649828389E-163
   8.26500000000000        -3.655187649715529E-162
   8.45500000000000         1.683149620088981E-161
   8.64500000000000         8.800852484248884E-160
   8.83500000000000         1.449827228871612E-158
   9.02500000000000         1.680993960903333E-157
   9.21500000000000         1.398234307481779E-156
   9.40500000000000        -2.329096971550680E-156
   9.59500000000000        -5.057940061999353E-154
   9.78500000000000        -1.452248298596092E-152
   9.97500000000000        -2.696528105969050E-151
   10.1650000000000        -3.653412812597958E-150
   10.3550000000000        -3.590973767935433E-149
   10.5450000000000        -2.126165039433012E-148
   10.7350000000000         4.635366109056869E-148
   10.9250000000000         3.364866027534590E-146
   11.1150000000000         5.672282743448408E-145
   11.3050000000000         6.818125027195859E-144
   11.4950000000000         6.740265158005697E-143
   11.6850000000000         5.769578871554975E-142
   11.8750000000000         4.385246594694055E-141
   12.0650000000000         3.000990335177460E-140
   12.2550000000000         1.862941427499516E-139
   12.4450000000000         1.051661615091881E-138
   12.6350000000000         5.382626332142259E-138
   12.8250000000000         2.469217118427794E-137
   13.0150000000000         9.857315688041348E-137
   13.2050000000000         3.151189943422702E-136
   13.3950000000000         5.463599598447988E-136
   13.5850000000000        -2.399108186090447E-135
   13.7750000000000        -3.433884412729141E-134
   13.9650000000000        -2.554391768094350E-133
   14.1550000000000        -1.529753293451265E-132
   14.3450000000000        -8.097158659263479E-132
   14.5350000000000        -3.929890860906861E-131
   14.7250000000000        -1.781936947337690E-130
   14.9150000000000        -7.632833236025241E-130
   15.1050000000000        -3.111168376691681E-129
   15.2950000000000        -1.212943552335800E-128
   15.4850000000000        -4.540529046194094E-128
   15.6750000000000        -1.636901935067432E-127
   15.8650000000000        -5.696900572979395E-127
   16.0550000000000        -1.917889273465272E-126
   16.2450000000000        -6.256231130126654E-126
   16.4350000000000        -1.980339231991902E-125
   16.6250000000000        -6.090552886321163E-125
   16.8150000000000        -1.822015583080417E-124
   17.0050000000000        -5.307134159247430E-124
   17.1950000000000        -1.506502205054998E-123
   17.3850000000000        -4.170913340196288E-123
   17.5750000000000        -1.127092354611610E-122
   17.7650000000000        -2.974667655600575E-122
   17.9550000000000        -7.672238914621549E-122
   18.1450000000000        -1.934800149096735E-121
   18.3350000000000        -4.772848755969168E-121
   18.5250000000000        -1.152165510023346E-120
   18.7150000000000        -2.722605923764514E-120
   18.9050000000000        -6.299273799878225E-120
   19.0950000000000        -1.427238457069344E-119
   19.2850000000000        -3.166814344173060E-119
   19.4750000000000        -6.880728372119515E-119
   19.6650000000000        -1.463629330698744E-118
   19.8550000000000        -3.046682193881809E-118
   20.0450000000000        -6.201920390575288E-118
   20.2350000000000        -1.233337422923715E-117
   20.4250000000000        -2.392422658446426E-117
   20.6150000000000        -4.516800585768999E-117
   20.8050000000000        -8.272318751795314E-117
   20.9950000000000        -1.462271096068285E-116
   21.1850000000000        -2.474517969987870E-116
   21.3750000000000        -3.952432302069559E-116
   21.5650000000000        -5.796107142318906E-116
   21.7550000000000        -7.305326557739039E-116
   21.9450000000000        -6.215474675159880E-116
   22.1350000000000         3.415595542838801E-116
   22.3250000000000         3.562054744312799E-115
   22.5150000000000         1.213873671191529E-114
   22.7050000000000         3.258857243077519E-114
   22.8950000000000         7.809607908592890E-114
   23.0850000000000         1.744749474511804E-113
   23.2750000000000         3.708168320889637E-113
   23.4650000000000         7.580108748041352E-113
   23.6550000000000         1.500074714654598E-112
   23.8450000000000         2.885614886882327E-112
   24.0350000000000         5.409596654897102E-112
   24.2250000000000         9.898294629987763E-112
   24.4150000000000         1.769101884014105E-111
   24.6050000000000         3.088686451097166E-111
   24.7950000000000         5.264481850612965E-111
   24.9850000000000         8.747453927294792E-111
   25.1750000000000         1.413423343282996E-110
   25.3650000000000         2.211875157990702E-110
   25.5550000000000         3.330038539672236E-110
   25.7450000000000         4.768310222126996E-110
   25.9350000000000         6.355648695466366E-110
   26.1250000000000         7.520289614217161E-110
   26.3150000000000         6.846383596746481E-110
   26.5050000000000         1.253299085049972E-110
   26.6950000000000        -1.547027459589357E-109
   26.8850000000000        -5.520451236562357E-109
   27.0750000000000        -1.397698385716726E-108
   27.2650000000000        -3.079214753403560E-108
   27.4550000000000        -6.264956243412749E-108
   27.6450000000000        -1.207676788078718E-107
   27.8350000000000        -2.234943400194182E-107
   28.0250000000000        -4.000729536481486E-107
   28.2150000000000        -6.958881595121458E-107
   28.4050000000000        -1.179395153408884E-106
   28.5950000000000        -1.950611467643857E-106
   28.7850000000000        -3.150311737366709E-106
   28.9750000000000        -4.967608481395251E-106
   29.1650000000000        -7.640956120243036E-106
   29.3550000000000        -1.144309411581844E-105
   29.5450000000000        -1.663308779184398E-105
   29.7350000000000        -2.334716078985490E-105
   29.9250000000000        -3.138287066778297E-105
   30.1150000000000        -3.980660293737436E-105
   30.3050000000000        -4.628070680089774E-105
   30.4950000000000        -4.596294560325304E-105
   30.6850000000000        -2.977816288554590E-105
   30.8750000000000         1.819538852685988E-105
   31.0650000000000         1.245340349731604E-104
   31.2550000000000         3.318045035928159E-104
   31.4450000000000         7.057224205169619E-104
   31.6350000000000         1.344267978428462E-103
   31.8250000000000         2.388522789417227E-103
   32.0150000000000         4.034284892154804E-103
   32.2050000000000         6.542304474094153E-103
   32.3950000000000         1.024304452845617E-102
   32.5850000000000         1.552895466906321E-102
   32.7750000000000         2.282308799561482E-102
   32.9650000000000         3.250726858137987E-102
   33.1550000000000         4.478584683621558E-102
   33.3450000000000         5.945256538561906E-102
   33.5350000000000         7.551891094413538E-102
   33.7250000000000         9.065406957522615E-102
   33.9150000000000         1.003819503993338E-101
   34.1050000000000         9.698406000276148E-102
   34.2950000000000         6.807477945269165E-102
   34.4850000000000        -5.143180197035056E-103
   34.6750000000000        -1.498589969590304E-101
   34.8650000000000        -4.036598743705245E-101
   35.0550000000000        -8.161630817674434E-101
   35.2450000000000        -1.449604560937271E-100
   35.4350000000000        -2.377356952619005E-100
   35.6250000000000        -3.678905443683276E-100
   35.8150000000000        -5.429300778001336E-100
   36.0050000000000        -7.680589157403209E-100
   36.1950000000000        -1.043228901938998E-099
   36.3850000000000        -1.358780745188355E-099
   36.5750000000000        -1.689400397964719E-099
   36.7650000000000        -1.986224314849872E-099
   36.9550000000000        -2.167164151904544E-099
   37.1450000000000        -2.105928473922428E-099
   37.3350000000000        -1.620845232331835E-099
   37.5250000000000        -4.654741000979531E-100
   37.7150000000000         1.675842036604346E-099
   37.9050000000000         5.182932840023214E-099
   38.0950000000000         1.047916869416530E-098
   38.2850000000000         1.798768784832484E-098
   38.4750000000000         2.805592494155806E-098
   38.6650000000000         4.083989471486555E-098
   38.8550000000000         5.614148632674874E-098
   39.0450000000000         7.319659989804015E-098
   39.2350000000000         9.042044887633223E-098
   39.4250000000000         1.051299291224180E-097
   39.6150000000000         1.132825827339720E-097
   39.8050000000000         1.092977522886138E-097
   39.9950000000000         8.605731996358780E-098
   40.1850000000000         3.521845564484488E-098
   40.3750000000000        -5.199606239959879E-098
   40.5650000000000        -1.833417799191839E-097
   40.7550000000000        -3.632434729411911E-097
   40.9450000000000        -5.894879810363600E-097
   41.1350000000000        -8.488800475950066E-097
   41.3250000000000        -1.112018330942671E-096
   41.5150000000000        -1.327661494442575E-096
   41.7050000000000        -1.417605916490564E-096
   41.8950000000000        -1.273596880346439E-096
   42.0850000000000        -7.585302598129493E-097
   42.2750000000000         2.849803305759924E-097
   42.4650000000000         2.014802746025035E-096
   42.6550000000000         4.553796867242858E-096
   42.8450000000000         7.934073739958552E-096
   43.0350000000000         1.201718678474309E-095
   43.2250000000000         1.638851466933500E-095
   43.4150000000000         2.022805655182042E-095
   43.6050000000000         2.216628904777836E-095
   43.7950000000000         2.014314758840828E-095
   43.9850000000000         1.130090113432050E-095
   44.1750000000000        -8.042413138026099E-096
   44.3650000000000        -4.227401087131012E-095
   44.5550000000000        -9.613786572979043E-095
   44.7450000000000        -1.740561360968240E-094
   44.9350000000000        -2.790104573061048E-094
   45.1250000000000        -4.108772269278148E-094
   45.3150000000000        -5.641373997218735E-094
   45.5050000000000        -7.249401731341410E-094
   45.6950000000000        -8.676026696705836E-094
   45.8850000000000        -9.507856276576873E-094
   46.0750000000000        -9.138075617507191E-094
   46.2650000000000        -6.738515498985942E-094
   46.4550000000000        -1.251761636954179E-094
   46.6450000000000         8.581513228585607E-094
   46.8350000000000         2.414060082075977E-093
   47.0250000000000         4.676503047579941E-093
   47.2150000000000         7.749147727076657E-093
   47.4050000000000         1.166619119481105E-092
   47.5950000000000         1.633821212441087E-092
   47.7850000000000         2.148207665497628E-092
   47.9750000000000         2.653593860129470E-092
   48.1650000000000         3.056363037826666E-092
   48.3550000000000         3.215757031094483E-092
   48.5450000000000         2.935605147485795E-092
   48.7350000000000         1.959969561322413E-092
   48.9250000000000        -2.369566966447657E-094
   49.1150000000000        -3.368956069941155E-092
   49.3050000000000        -8.436034864662594E-092
   49.4950000000000        -1.553099254756948E-091
   49.6850000000000        -2.480986458983772E-091
   49.8750000000000        -3.613930796109177E-091
   50.0650000000000        -4.890737493492019E-091
   50.2550000000000        -6.178332496346018E-091
   50.4450000000000        -7.243562425919944E-091
   50.6350000000000        -7.723458087141354E-091
   50.8250000000000        -7.099272466124284E-091
   51.0150000000000        -4.683409889148847E-091
   51.2050000000000         3.666016257518575E-092
   51.3950000000000         8.986841012703933E-091
   51.5850000000000         2.207162898769248E-090
   51.7750000000000         4.023164115850675E-090
   51.9650000000000         6.341079968052701E-090
   52.1550000000000         9.033218410086626E-090
   52.3450000000000         1.177609184518100E-089
   52.5350000000000         1.396097887095083E-089
   52.7250000000000         1.459798374116258E-089
   52.9150000000000         1.223320574604258E-089
   53.1050000000000         4.913386875232671E-090
   53.2950000000000        -9.748488293765985E-090
   53.4850000000000        -3.433099438784434E-089
   53.6750000000000        -7.108795907868662E-089
   53.8650000000000        -1.210454553207808E-088
   54.0550000000000        -1.826018097147182E-088
   54.2450000000000        -2.495556451595106E-088
   54.4350000000000        -3.085760109091431E-088
   54.6250000000000        -3.362961759640077E-088
   54.8150000000000        -2.964840892887070E-088
   55.0050000000000        -1.381373246048826E-088
   55.1950000000000         2.041288524032976E-088
   55.3850000000000         8.054151381088538E-088
   55.5750000000000         1.738980689909473E-087
   55.7650000000000         3.054706458487342E-087
   55.9550000000000         4.744437127187871E-087
   56.1450000000000         6.691817458503841E-087
   56.3350000000000         8.606323766424560E-087
   56.5250000000000         9.945207202735579E-087
   56.7150000000000         9.833617609805109E-087
   56.9050000000000         7.002704081211769E-087
   57.0950000000000        -2.220020135065698E-088
   57.2850000000000        -1.383492838659275E-086
   57.4750000000000        -3.590576881801961E-086
   57.6650000000000        -6.810309281052296E-086
   57.8550000000000        -1.109128393533522E-085
   58.0450000000000        -1.624966015898335E-085
   58.2350000000000        -2.171834176968252E-085
   58.4250000000000        -2.636809420045805E-085
   58.6150000000000        -2.832394441946988E-085
   58.8050000000000        -2.482123545313243E-085
   58.9950000000000        -1.217264762005336E-085
   59.1850000000000         1.405191289315079E-085
   59.3750000000000         5.850159624412020E-085
   59.5650000000000         1.250277070810188E-084
   59.7550000000000         2.150305110564370E-084
   59.9450000000000         3.250766133840989E-084
   60.1350000000000         4.438107911856531E-084
   60.3250000000000         5.483950318223985E-084
   60.5150000000000         6.010290679533888E-084
   60.7050000000000         5.465487514296018E-084
   60.8950000000000         3.126430476610131E-084
   61.0850000000000        -1.851837037070148E-084
   61.2750000000000        -1.031273569259654E-083
   61.4650000000000        -2.287252395328449E-083
   61.6550000000000        -3.956761589642243E-083
   61.8450000000000        -5.936347138406998E-083
   62.0350000000000        -7.954147242764603E-083
   62.2250000000000        -9.502690303819689E-083
   62.4150000000000        -9.779012499052183E-083
   62.6050000000000        -7.654453398175896E-083
   62.7950000000000        -1.707339990684665E-083
   62.9850000000000         9.637126425029565E-083
   63.1750000000000         2.780682398039546E-082
   63.3650000000000         5.356767632058102E-082
   63.5550000000000         8.624979302608136E-082
   63.7450000000000         1.227025612004093E-081
   63.9350000000000         1.560275103807957E-081
   64.1250000000000         1.742367048333391E-081
   64.3150000000000         1.591269246743973E-081
   64.5050000000000         8.584525381164046E-082
   64.6950000000000        -7.616218639436992E-082
   64.8850000000000        -3.599092130379457E-081
   65.0750000000000        -7.942618096999102E-081
   65.2650000000000        -1.392858958373149E-080
   65.4550000000000        -2.137678066713961E-080
   65.6450000000000        -2.956978321740892E-080
   65.8350000000000        -3.698533660212163E-080
   66.0250000000000        -4.100964067361733E-080
   66.2150000000000        -3.768697787422595E-080
   66.4050000000000        -2.159642781017635E-080
   66.5950000000000         1.401190194819829E-080
   66.7850000000000         7.664594017042519E-080
   66.9750000000000         1.733561276776221E-079
   67.1650000000000         3.086531179000934E-079
   67.3550000000000         4.813666086431173E-079
   67.5450000000000         6.803510520673895E-079
   67.7350000000000         8.791384859301390E-079
   67.9250000000000         1.029958432992787E-078
   68.1150000000000         1.058011235650474E-078
   68.3050000000000         8.574988136943650E-079
   68.4950000000000         2.916596915300023E-079
   68.6850000000000        -8.001495433954584E-079
   68.8750000000000        -2.584573839161746E-078
   69.0650000000000        -5.201420927388825E-078
   69.2550000000000        -8.711911407235106E-078
   69.4450000000000        -1.302528463072227E-077
   69.6350000000000        -1.780372720090008E-077
   69.8250000000000        -2.235025233612396E-077
   70.0150000000000        -2.549118534086803E-077
   70.2050000000000        -2.547448962691490E-077
   70.3950000000000        -1.991707824151532E-077
   70.5850000000000        -5.847633632532560E-078
   70.7750000000000         2.009546628483646E-077
   70.9650000000000         6.124167346295760E-077
   71.1550000000000         1.201694644709612E-076
   71.3450000000000         1.976302409340182E-076
   71.5350000000000         2.910847588864705E-076
   71.7250000000000         3.928800281058015E-076
   71.9150000000000         4.881868659924772E-076
   72.1050000000000         5.529491436633730E-076
   72.2950000000000         5.522649713610996E-076
   72.4850000000000         4.398195755228640E-076
   72.6750000000000         1.592000315410405E-076
   72.8650000000000        -3.518909534502994E-076
   73.0550000000000        -1.153393499467820E-075
   73.2450000000000        -2.289527887456773E-075
   73.4350000000000        -3.769488634959532E-075
   73.6250000000000        -5.541981156891380E-075
   73.8150000000000        -7.464432358609917E-075
   74.0050000000000        -9.269270919556336E-075
   74.1950000000000        -1.053179055924727E-074
   74.3850000000000        -1.064673116726093E-074
   74.5750000000000        -8.823663173492050E-075
   74.7650000000000        -4.114193153474052E-075
   74.9550000000000         4.513636435593709E-075
   75.1450000000000         1.803740331371037E-074
   75.3350000000000         3.716390694967258E-074
   75.5250000000000         6.202449498606534E-074
   75.7150000000000         9.178235103042907E-074
   75.9050000000000         1.241682180151690E-073
   76.0950000000000         1.549842738283650E-073
   76.2850000000000         1.776461763621359E-073
   76.4750000000000         1.828694655457155E-073
   76.6650000000000         1.586455971046372E-073
   76.8550000000000         9.068965209955782E-074
   77.0450000000000        -3.643170978288139E-074
   77.2350000000000        -2.372780006179912E-073
   77.4250000000000        -5.224332887443719E-073
   77.6150000000000        -8.942188321828116E-073
   77.8050000000000        -1.341257380182450E-072
   77.9950000000000        -1.832148511282370E-072
   78.1850000000000        -2.308821470473131E-072
   78.3750000000000        -2.680520536951385E-072
   78.5650000000000        -2.819828226283858E-072
   78.7550000000000        -2.562602012695318E-072
   78.9450000000000        -1.714122133972034E-072
   79.1350000000000        -6.402227397011117E-074
   79.3250000000000         2.587428443005044E-072
   79.5150000000000         6.389560682835489E-072
   79.7050000000000         1.138696684989037E-071
   79.8950000000000         1.745130841150507E-071
   80.0850000000000         2.420269207010833E-071
   80.2750000000000         3.092768821166985E-071
   80.4650000000000         3.650558120972758E-071
   80.6550000000000         3.935955954316308E-071
   80.8450000000000         3.745476871319736E-071
   81.0350000000000         2.836966697324587E-071
   81.2250000000000         9.469833382037040E-072
   81.4150000000000        -2.178713346235220E-071
   81.6050000000000        -6.739237021943181E-071
   81.7950000000000        -1.281609053694416E-070
   81.9850000000000        -2.029502143397410E-070
   82.1750000000000        -2.877608358173500E-070
   82.3650000000000        -3.747970979716727E-070
   82.5550000000000        -4.516140445968001E-070
   82.7450000000000        -5.005303748100573E-070
   82.9350000000000        -4.985412175116766E-070
   83.1250000000000        -4.180106245789058E-070
   83.3150000000000        -2.284505529304339E-070
   83.5050000000000         1.003132181299370E-070
   83.6950000000000         5.933434252640964E-070
   83.8850000000000         1.264038820405266E-069
   84.0750000000000         2.105906738041408E-069
   84.2650000000000         3.083035512012531E-069
   84.4550000000000         4.120030338573651E-069
   84.6450000000000         5.092647960759352E-069
   84.8350000000000         5.820891468303263E-069
   85.0250000000000         6.066855411571022E-069
   85.2150000000000         5.540066458419027E-069
   85.4050000000000         3.913342200004275E-069
   85.5950000000000         8.521618708607295E-070
   85.7850000000000        -3.939938888002471E-069
   85.9750000000000        -1.065852350037848E-068
   86.1650000000000        -1.931836358433369E-068
   86.3550000000000        -2.965957444104174E-068
   86.5450000000000        -4.104638251046263E-068
   86.7350000000000        -5.236943809613961E-068
   86.9250000000000        -6.196742745007609E-068
   87.1150000000000        -6.758867981372564E-068
   87.3050000000000        -6.641785557900026E-068
   87.4950000000000        -5.519575931426850E-068
   87.6850000000000        -3.046074944530691E-068
   87.8750000000000         1.106314312757690E-068
   88.0650000000000         7.191474201351406E-068
   88.2550000000000         1.531790541876959E-067
   88.4450000000000         2.536256176401263E-067
   88.6350000000000         3.687517585393946E-067
   88.8250000000000         4.898174107941876E-067
   89.0150000000000         6.030002676267125E-067
   89.2050000000000         6.888442478830739E-067
   89.3950000000000         7.222155345553945E-067
   89.5850000000000         6.730118410225236E-067
   89.7750000000000         5.078833102102850E-067
   89.9650000000000         1.932072941003009E-067
   90.1550000000000        -3.004968538348722E-067
   90.3450000000000        -9.926336414864528E-067
   90.5350000000000        -1.885164957581756E-066
   90.7250000000000        -2.954129072718257E-066
   90.9150000000000        -4.140656948308723E-066
   91.1050000000000        -5.342444660330315E-066
   91.2950000000000        -6.407019009793038E-066
   91.4850000000000        -7.128507484775314E-066
   91.6750000000000        -7.249942961113322E-066
   91.8650000000000        -6.473331777048698E-066
   92.0550000000000        -4.479711330838165E-066
   92.2450000000000        -9.611309746606749E-067
   92.4350000000000         4.334183511989523E-066
   92.6250000000000         1.154335870810344E-065
   92.8150000000000         2.061863264103604E-065
   93.0050000000000         3.124908324256489E-065
   93.1950000000000         4.278076690501713E-065
   93.3850000000000         5.414478497550889E-065
   93.5750000000000         6.380602229744936E-065
   93.7650000000000         6.974833330175452E-065
   93.9550000000000         6.951431815257175E-065
   94.1450000000000         6.031894386794357E-065
   94.3350000000000         3.925543430752231E-065
   94.5250000000000         3.608334825677124E-066
   94.7150000000000        -4.871827649635567E-065
   94.9050000000000        -1.186604248815184E-064
   95.0950000000000        -2.053600914121417E-064
   95.2850000000000        -3.054754261838729E-064
   95.4750000000000        -4.124970765073276E-064
   95.6650000000000        -5.161585458396419E-064
   95.8550000000000        -6.020550566579215E-064
   96.0450000000000        -6.516092155893987E-064
   96.2350000000000        -6.425387413111262E-064
   96.4250000000000        -5.499865679523063E-064
   96.6150000000000        -3.484610504779713E-064
   96.8050000000000        -1.469778339383711E-065
   96.9950000000000         4.685109225252257E-064
   97.1850000000000         1.107571983252726E-063
   97.3750000000000         1.892620887622081E-063
   97.5650000000000         2.791681745320259E-063
   97.7550000000000         3.745012881409399E-063
   97.9450000000000         4.660406351897247E-063
   98.1350000000000         5.410419914262900E-063
   98.3250000000000         5.832699711776000E-063
   98.5150000000000         5.734666543099846E-063
   98.7050000000000         4.903846867299003E-063
   98.8950000000000         3.124986189087771E-063
   99.0850000000000         2.047412929324499E-064
   99.2750000000000        -3.995831968812401E-063
   99.4650000000000        -9.521625899529400E-063
   99.6550000000000        -1.627841701834082E-062
   99.8450000000000        -2.398552265836564E-062
   100.035000000000        -3.213088146200822E-062
   100.225000000000        -3.993491751715536E-062
   100.415000000000        -4.633112527747365E-062
   100.605000000000        -4.997258999598195E-062
   100.795000000000        -4.927436168112118E-062
   100.985000000000        -4.250141269013810E-062
   101.175000000000        -2.791049165212032E-062
   101.365000000000        -3.951211412584828E-063
   101.555000000000         3.047309845390052E-062
   101.745000000000         7.569105050663137E-062
   101.935000000000         1.309104489345979E-061
   102.125000000000         1.938527701372580E-061
   102.315000000000         2.604122937374605E-061
   102.505000000000         3.243894040374913E-061
   102.695000000000         3.773587188888039E-061
   102.885000000000         4.087412000819259E-061
   103.075000000000         4.061532341433203E-061
   103.265000000000         3.561025776033988E-061
   103.455000000000         2.450886935368394E-061
   103.645000000000         6.114119042650228E-062
   103.835000000000        -2.042068839719796E-061
   104.025000000000        -5.535650756224068E-061
   104.215000000000        -9.810695271928318E-061
   104.405000000000        -1.469699416124269E-060
   104.595000000000        -1.988803193253213E-060
   104.785000000000        -2.492195260711258E-060
   104.975000000000        -2.917258099420646E-060
   105.165000000000        -3.185538574357164E-060
   105.355000000000        -3.205346385022502E-060
   105.545000000000        -2.876832278193342E-060
   105.735000000000        -2.099928520965194E-060
   105.925000000000        -7.853606669220875E-061
   106.115000000000         1.131322041971862E-060
   106.305000000000         3.673103946075369E-060
   106.495000000000         6.803094777455289E-060
   106.685000000000         1.040571386772608E-059
   106.875000000000         1.426937584133364E-059
   107.065000000000         1.807313277082737E-059
   107.255000000000         2.138020683827123E-059
   107.445000000000         2.364168338602078E-059
   107.635000000000         2.421373847634189E-059
   107.825000000000         2.239155265437000E-059
   108.015000000000         1.746241963404702E-059
   108.205000000000         8.779412856844563E-060
   108.395000000000        -4.144733410557733E-060
   108.585000000000        -2.152615700937793E-059
   108.775000000000        -4.318627105897791E-059
   108.965000000000        -6.842475672646996E-059
   109.155000000000        -9.590137318417697E-059
   109.345000000000        -1.235422825847920E-058
   109.535000000000        -1.484896420013447E-058
   109.725000000000        -1.671153856106804E-058
   109.915000000000        -1.751208717362141E-058
   110.105000000000        -1.677428243390515E-058