  -1.42500000000000         0.000000000000000E+000
  -1.23500000000000         0.000000000000000E+000
  -1.04500000000000         0.000000000000000E+000
 -0.855000000000000         0.000000000000000E+000
 -0.665000000000000         0.000000000000000E+000
 -0.475000000000000         0.000000000000000E+000
 -0.285000000000000         0.000000000000000E+000
 -9.499999999999975E-002    0.000000000000000E+000
  9.500000000000020E-002    0.000000000000000E+000
  0.285000000000000         0.000000000000000E+000
  0.475000000000000         0.000000000000000E+000
  0.665000000000000         0.000000000000000E+000
  0.855000000000000         0.000000000000000E+000
   1.04500000000000         0.000000000000000E+000
   1.23500000000000         0.000000000000000E+000
   1.42500000000000         0.000000000000000E+000
   1.61500000000000         0.000000000000000E+000
   1.80500000000000         0.000000000000000E+000
   1.99500000000000         0.000000000000000E+000
   2.18500000000000         0.000000000000000E+000
   2.37500000000000         0.000000000000000E+000
   2.56500000000000         0.000000000000000E+000
   2.75500000000000         0.000000000000000E+000
   2.94500000000000         0.000000000000000E+000
   3.13500000000000         0.000000000000000E+000
   3.32500000000000         0.000000000000000E+000
   3.51500000000000         0.000000000000000E+000
   3.70500000000000         0.000000000000000E+000
   3.89500000000000         0.000000000000000E+000
   4.08500000000000         0.000000000000000E+000
   4.27500000000000         0.000000000000000E+000
   4.46500000000000         0.000000000000000E+000
   4.65500000000000         0.000000000000000E+000
   4.84500000000000         0.000000000000000E+000
   5.03500000000000         0.000000000000000E+000
   5.22500000000000         0.000000000000000E+000
   5.41500000000000         0.000000000000000E+000
   5.60500000000000         0.000000000000000E+000
   5.79500000000000         0.000000000000000E+000
   5.98500000000000         0.000000000000000E+000
   6.17500000000000         0.000000000000000E+000
   6.36500000000000         0.000000000000000E+000
   6.55500000000000         0.000000000000000E+000
   6.74500000000000         0.000000000000000E+000
   6.93500000000000        -3.708709894135457E-182
   7.12500000000000         5.361579260580716E-174
   7.31500000000000        -3.507635961766873E-170
   7.50500000000000        -2.215321180122353E-168
   7.69500000000000        -6.593889839118137E-167
   7.88500000000000        -1.249554064014263E-165
   8.07500000000000        -1.744949637821724E-164
   8.26500000000000        -2.020082461457732E-163
   8.45500000000000        -2.099753155761761E-162
   8.64500000000000        -1.814624525117087E-161
   8.83500000000000        -5.991203093207843E-161
   9.02500000000000         2.135745419200289E-159
   9.21500000000000         1.016569049929887E-157
   9.40500000000000        -9.613975211247189E-157
   9.59500000000000        -3.061732039094437E-154
   9.78500000000000        -1.575024047698351E-152
   9.97500000000000        -4.860979945959376E-151
   10.1650000000000        -1.088941866408304E-149
   10.3550000000000        -1.921570285771067E-148
   10.5450000000000        -2.797947398653857E-147
   10.7350000000000        -3.463707568507368E-146
   10.9250000000000        -3.721186243705959E-145
   11.1150000000000        -3.519934724567461E-144
   11.3050000000000        -2.960842247407827E-143
   11.4950000000000        -2.228133031775418E-142
   11.6850000000000        -1.502906173938386E-141
   11.8750000000000        -9.052695110050190E-141
   12.0650000000000        -4.804219837487393E-140
   12.2550000000000        -2.167019593718842E-139
   12.4450000000000        -7.441386254037935E-139
   12.6350000000000        -9.634415353591439E-139
   12.8250000000000         1.284980160471225E-137
   13.0150000000000         1.604302604268741E-136
   13.2050000000000         1.255759659344320E-135
   13.3950000000000         8.110395433859681E-135
   13.5850000000000         4.649910851656552E-134
   13.7750000000000         2.441642174555808E-133
   13.9650000000000         1.194028434748941E-132
   14.1550000000000         5.494136177336494E-132
   14.3450000000000         2.395177333011100E-131
   14.5350000000000         9.942314415077123E-131
   14.7250000000000         3.944346682754703E-130
   14.9150000000000         1.499915706088950E-129
   15.1050000000000         5.479869830833244E-129
   15.2950000000000         1.927058302000784E-128
   15.4850000000000         6.532655917531878E-128
   15.6750000000000         2.137298651800574E-127
   15.8650000000000         6.754642165581217E-127
   16.0550000000000         2.063256835004848E-126
   16.2450000000000         6.092989787844242E-126
   16.4350000000000         1.739333961847509E-125
   16.6250000000000         4.796835066620133E-125
   16.8150000000000         1.276477827781406E-124
   17.0050000000000         3.270600539971252E-124
   17.1950000000000         8.039921123665013E-124
   17.3850000000000         1.885020601465490E-123
   17.5750000000000         4.172310776887713E-123
   17.7650000000000         8.552795592486521E-123
   17.9550000000000         1.557804521755407E-122
   18.1450000000000         2.240095265894486E-122
   18.3350000000000         1.176931177022176E-122
   18.5250000000000        -8.239381211474764E-122
   18.7150000000000        -4.740177134485169E-121
   18.9050000000000        -1.793552089201045E-120
   19.0950000000000        -5.784486845918782E-120
   19.2850000000000        -1.704264024259894E-119
   19.4750000000000        -4.722138888214292E-119
   19.6650000000000        -1.249115302232730E-118
   19.8550000000000        -3.182556431554106E-118
   20.0450000000000        -7.854763117967417E-118
   20.2350000000000        -1.885245208340885E-117
   20.4250000000000        -4.412638986607150E-117
   20.6150000000000        -1.009331985867692E-116
   20.8050000000000        -2.259822413243799E-116
   20.9950000000000        -4.958731619401646E-116
   21.1850000000000        -1.067495444839279E-115
   21.3750000000000        -2.256431702548516E-115
   21.5650000000000        -4.686380662723874E-115
   21.7550000000000        -9.568863417140671E-115
   21.9450000000000        -1.921753281233364E-114
   22.1350000000000        -3.797709103518014E-114
   22.3250000000000        -7.387109072399700E-114
   22.5150000000000        -1.414720173065711E-113
   22.7050000000000        -2.668076804610674E-113
   22.8950000000000        -4.955880705998297E-113
   23.0850000000000        -9.067234280621595E-113
   23.2750000000000        -1.634063454112381E-112
   23.4650000000000        -2.900549909076740E-112
   23.6550000000000        -5.070492807305288E-112
   23.8450000000000        -8.727227339647215E-112
   24.0350000000000        -1.478439551002909E-111
   24.2250000000000        -2.463825624041569E-111
   24.4150000000000        -4.036329320840030E-111
   24.6050000000000        -6.493946202396564E-111
   24.7950000000000        -1.024688909482787E-110
   24.9850000000000        -1.582797260988089E-110
   25.1750000000000        -2.387042540220244E-110
   25.3650000000000        -3.501252223990297E-110
   25.5550000000000        -4.965604493215114E-110
   25.7450000000000        -6.745329057004887E-110
   25.9350000000000        -8.631585949280224E-110
   26.1250000000000        -1.006159897591469E-109
   26.3150000000000        -9.807424989756586E-110
   26.5050000000000        -5.458316553397464E-110
   26.6950000000000         7.410172759303512E-110
   26.8850000000000         3.652534514363251E-109
   27.0750000000000         9.484963533255744E-109
   27.2650000000000         2.033709754813176E-108
   27.4550000000000         3.949633180657097E-108
   27.6450000000000         7.194508695941371E-108
   27.8350000000000         1.249782838406937E-107
   28.0250000000000         2.088733701233875E-107
   28.2150000000000         3.374608631304704E-107
   28.4050000000000         5.282795394303512E-107
   28.5950000000000         8.017305484334000E-107
   28.7850000000000         1.178222677639162E-106
   28.9750000000000         1.671671846426101E-106
   29.1650000000000         2.276824351350779E-106
   29.3550000000000         2.946669951006165E-106
   29.5450000000000         3.554690569128542E-106
   29.7350000000000         3.834929636359616E-106
   29.9250000000000         3.291095718308608E-106
   30.1150000000000         1.064617135519790E-106
   30.3050000000000        -4.248379593444456E-106
   30.4950000000000        -1.483833889746124E-105
   30.6850000000000        -3.398109546174769E-105
   30.8750000000000        -6.637749011823793E-105
   31.0650000000000        -1.184885194777784E-104
   31.2550000000000        -1.987744679512442E-104
   31.4450000000000        -3.176763620115088E-104
   31.6350000000000        -4.870782786842481E-104
   31.8250000000000        -7.188555123443258E-104
   32.0150000000000        -1.021947054404604E-103
   32.2050000000000        -1.397201091157709E-103
   32.3950000000000        -1.829054503151385E-103
   32.5850000000000        -2.272970625825580E-103
   32.7750000000000        -2.637556747289811E-103
   32.9650000000000        -2.760542232748770E-103
   33.1550000000000        -2.378504096352744E-103
   33.3450000000000        -1.091626751689325E-103
   33.5350000000000         1.672814275833278E-103
   33.7250000000000         6.690794810344560E-103
   33.9150000000000         1.495278697064117E-102
   34.1050000000000         2.763551422170719E-102
   34.2950000000000         4.600428313071480E-102
   34.4850000000000         7.120466184534103E-102
   34.6750000000000         1.038901974099351E-101
   34.8650000000000         1.436219750527742E-101
   35.0550000000000         1.879694922582280E-101
   35.2450000000000         2.312457551411382E-101
   35.4350000000000         2.628301567553667E-101
   35.6250000000000         2.650805453828667E-101
   35.8150000000000         2.109234419231805E-101
   36.0050000000000         6.135316753877446E-102
   36.1950000000000        -2.367179517344350E-101
   36.3850000000000        -7.515212791506069E-101
   36.5750000000000        -1.565281514475733E-100
   36.7650000000000        -2.769253499117386E-100
   36.9550000000000        -4.452799081279103E-100
   37.1450000000000        -6.683789838128039E-100
   37.3350000000000        -9.477122377530778E-100
   37.5250000000000        -1.274784461830814E-099
   37.7150000000000        -1.624552483694513E-099
   37.9050000000000        -1.946734271385411E-099
   38.0950000000000        -2.154932579796084E-099
   38.2850000000000        -2.113866912528450E-099
   38.4750000000000        -1.625570979898736E-099
   38.6650000000000        -4.162470223397963E-100
   38.8550000000000         1.873371232815689E-099
   39.0450000000000         5.689768597471377E-099
   39.2350000000000         1.155423413543426E-098
   39.4250000000000         2.002778864398226E-098
   39.6150000000000         3.164257756828058E-098
   39.8050000000000         4.678660171325331E-098
   39.9950000000000         6.552703835252106E-098
   40.1850000000000         8.735718760114833E-098
   40.3750000000000         1.108543715699434E-097
   40.5650000000000         1.332424187486807E-097
   40.7550000000000         1.498646000648958E-097
   40.9450000000000         1.535933308647648E-097
   41.1350000000000         1.342341041254514E-097
   41.3250000000000         7.802532663263225E-098
   41.5150000000000        -3.260538958371767E-098
   41.7050000000000        -2.187944177459150E-097
   41.8950000000000        -5.041856252688121E-097
   42.0850000000000        -9.126561511451237E-097
   42.2750000000000        -1.464338462024791E-096
   42.4650000000000        -2.169409755050967E-096
   42.6550000000000        -3.019147455907911E-096
   42.8450000000000        -3.973896562045036E-096
   43.0350000000000        -4.947922468843215E-096
   43.2250000000000        -5.791702895872197E-096
   43.4150000000000        -6.273117544482955E-096
   43.6050000000000        -6.060284391577025E-096
   43.7950000000000        -4.710491722221316E-096
   43.9850000000000        -1.671741685390127E-096
   44.1750000000000         3.694299568709967E-096
   44.3650000000000         1.205697264826698E-095
   44.5550000000000         2.401639565288651E-095
   44.7450000000000         3.994567923391861E-095
   44.9350000000000         5.976527212411680E-095
   45.1250000000000         8.264525748640739E-095
   45.3150000000000         1.066428165943483E-094
   45.5050000000000         1.283001515921708E-094
   45.6950000000000         1.422539338164701E-094
   45.8850000000000         1.409409364093265E-094
   46.0750000000000         1.145244647945072E-094
   46.2650000000000         5.120868437542395E-095
   46.4550000000000        -6.185409996540276E-095
   46.6450000000000        -2.368357733058730E-094
   46.8350000000000        -4.824655212250218E-094
   47.0250000000000        -8.000640555878649E-094
   47.2150000000000        -1.178351374465531E-093
   47.4050000000000        -1.587227893959346E-093
   47.5950000000000        -1.971069395638001E-093
   47.7850000000000        -2.242536740630361E-093
   47.9750000000000        -2.278468912655628E-093
   48.1650000000000        -1.920060919747120E-093
   48.3550000000000        -9.801466374945489E-094
   48.5450000000000         7.391134760726155E-094
   48.7350000000000         3.414668578731857E-093
   48.9250000000000         7.154011497129770E-093
   49.1150000000000         1.192757340415865E-092
   49.3050000000000         1.748209054343026E-092
   49.4950000000000         2.323812894331312E-092
   49.6850000000000         2.817933065911256E-092
   49.8750000000000         3.074649220949733E-092
   50.0650000000000         2.875617749020812E-092
   50.2550000000000         1.937107725497397E-092
   50.4450000000000        -8.421833412241577E-094
   50.6350000000000        -3.572207091282145E-092
   50.8250000000000        -8.912932921733803E-092
   51.0150000000000        -1.642951241752529E-091
   51.2050000000000        -2.627949051342138E-091
   51.3950000000000        -3.830004333845822E-091
   51.5850000000000        -5.178020574345415E-091
   51.7750000000000        -6.513156960111771E-091
   51.9650000000000        -7.542060386434994E-091
   52.1550000000000        -7.772021669346149E-091
   52.3450000000000        -6.424218150403581E-091
   52.5350000000000        -2.323745344273402E-091
   52.7250000000000         6.228321439904982E-091
   52.9150000000000         2.158243485140487E-090
   53.1050000000000         4.682615312411269E-090
   53.2950000000000         8.574963192316335E-090
   53.4850000000000         1.425596614920575E-089
   53.6750000000000         2.211404092572493E-089
   53.8650000000000         3.235755667326954E-089
   54.0550000000000         4.475631701716049E-089
   54.2450000000000         5.822975540409241E-089
   54.4350000000000         7.024081788586731E-089
   54.6250000000000         7.597014877949607E-089
   54.8150000000000         6.728440716630115E-089
   55.0050000000000         3.158695247005598E-089
   55.1950000000000        -4.923885850883990E-089
   55.3850000000000        -1.994036841970468E-088
   55.5750000000000        -4.486726730162102E-088
   55.7650000000000        -8.297913120520135E-088
   55.9550000000000        -1.372651728910660E-087
   56.1450000000000        -2.093728979422764E-087
   56.3350000000000        -2.979248877315638E-087
   56.5250000000000        -3.960832957290548E-087
   56.7150000000000        -4.883230428410523E-087
   56.9050000000000        -5.465455412167551E-087
   57.0950000000000        -5.259456170452212E-087
   57.2850000000000        -3.614520038013936E-087
   57.4750000000000         3.390762940308552E-088
   57.6650000000000         7.667538031776427E-087
   57.8550000000000         1.954654725258592E-086
   58.0450000000000         3.708010942265169E-086
   58.2350000000000         6.099600936814180E-086
   58.4250000000000         9.119703582495643E-086
   58.6150000000000         1.261675098182856E-085
   58.8050000000000         1.622707897540570E-085
   58.9950000000000         1.930275489622475E-085
   59.1850000000000         2.085353498784057E-085
   59.3750000000000         1.952696771926821E-085
   59.5650000000000         1.365779974876702E-085
   59.7550000000000         1.421206527132095E-086
   59.9450000000000        -1.888039161907373E-085
   60.1350000000000        -4.838566262845054E-085
   60.3250000000000        -8.712499503098876E-085
   60.5150000000000        -1.334441807233925E-084
   60.7050000000000        -1.835824405744660E-084
   60.8950000000000        -2.316979191724235E-084
   61.0850000000000        -2.707486918546118E-084
   61.2750000000000        -2.947185464837967E-084
   61.4650000000000        -3.026631942394028E-084
   61.6550000000000        -3.048550749341001E-084
   61.8450000000000        -3.308083119939166E-084
   62.0350000000000        -4.380395744262000E-084
   62.2250000000000        -7.189470783475231E-084
   62.4150000000000        -1.301108808055353E-083
   62.6050000000000        -2.333683771178590E-083
   62.7950000000000        -3.949749990591706E-083
   62.9850000000000        -6.191988638696096E-083
   63.1750000000000        -8.888271746577938E-083
   63.3650000000000        -1.146617737946049E-082
   63.5550000000000        -1.270362858490558E-082
   63.7450000000000        -1.042965933963249E-082
   63.9350000000000        -1.217883856939305E-083
   64.1250000000000         1.984176752153160E-082
   64.3150000000000         5.914906872042944E-082
   64.5050000000000         1.241617753884565E-081
   64.6950000000000         2.222339395489802E-081
   64.8850000000000         3.583663192859192E-081
   65.0750000000000         5.314834995701655E-081
   65.2650000000000         7.289038095196933E-081
   65.4550000000000         9.188531914492805E-081
   65.6450000000000         1.041259313751503E-080
   65.8350000000000         9.977185362242758E-081
   66.0250000000000         6.425175043091905E-081
   66.2150000000000        -2.220577258719039E-081
   66.4050000000000        -1.841216151161052E-080
   66.5950000000000        -4.487197735831839E-080
   66.7850000000000        -8.414368619286787E-080
   66.9750000000000        -1.378033459298379E-079
   67.1650000000000        -2.052392439161836E-079
   67.3550000000000        -2.819380849018940E-079
   67.5450000000000        -3.572826969180363E-079
   67.7350000000000        -4.119866885667882E-079
   67.9250000000000        -4.154777780413262E-079
   68.1150000000000        -3.238019640831084E-079
   68.3050000000000        -7.895260009490819E-080
   68.4950000000000         3.890894264104171E-079
   68.6850000000000         1.155934543413335E-078
   68.8750000000000         2.290013150017000E-078
   69.0650000000000         3.831401012352176E-078
   69.2550000000000         5.760500806830970E-078
   69.4450000000000         7.955774670382100E-078
   69.6350000000000         1.014153702322522E-077
   69.8250000000000         1.182976065855905E-077
   70.0150000000000         1.226410820439499E-077
   70.2050000000000         1.038001072352746E-077
   70.3950000000000         4.801344335650812E-078
   70.5850000000000        -6.098532555892686E-078
   70.7750000000000        -2.403711791605586E-077
   70.9650000000000        -5.052631428445067E-077
   71.1550000000000        -8.640238320375222E-077
   71.3450000000000        -1.311555610867051E-076
   71.5350000000000        -1.820553475271161E-076
   71.7250000000000        -2.331070646299538E-076
   71.9150000000000        -2.739352077884792E-076
   72.1050000000000        -2.887710832521267E-076
   72.2950000000000        -2.558246304436318E-076
   72.4850000000000        -1.474362657265359E-076
   72.6750000000000         6.848023071031482E-077
   72.8650000000000         4.251020692897148E-076
   73.0550000000000         9.508358121110704E-076
   73.2450000000000         1.660370081886789E-075
   73.4350000000000         2.542317027819173E-075
   73.6250000000000         3.543571606962613E-075
   73.8150000000000         4.551248950953456E-075
   74.0050000000000         5.374106074965821E-075
   74.1950000000000         5.726716473269143E-075
   74.3850000000000         5.221285740338016E-075
   74.5750000000000         3.373726546259903E-075
   74.7650000000000        -3.678097745968546E-076
   74.9550000000000        -6.562719600238464E-075
   75.1450000000000        -1.567689593863403E-074
   75.3350000000000        -2.793353630035467E-074
   75.5250000000000        -4.311291495154751E-074
   75.7150000000000        -6.030596865419126E-074
   75.9050000000000        -7.763825821534584E-074
   76.0950000000000        -9.199683661641560E-074
   76.2850000000000        -9.881244776335188E-074
   76.4750000000000        -9.197203740084892E-074
   76.6650000000000        -6.395925752245628E-074
   76.8550000000000        -6.339406964812352E-075
   77.0450000000000         8.928575468119349E-074
   77.2350000000000         2.297362133686409E-073
   77.4250000000000         4.180424207998748E-073
   77.6150000000000         6.505524254606254E-073
   77.8050000000000         9.134602694402925E-073
   77.9950000000000         1.179023957942649E-072
   78.1850000000000         1.401957672721622E-072
   78.3750000000000         1.516741784261118E-072
   78.5650000000000         1.436874792976840E-072
   78.7550000000000         1.057356833479634E-072
   78.9450000000000         2.618894129976997E-073
   79.1350000000000        -1.063674360515577E-072
   79.3250000000000        -3.010283329744581E-072
   79.5150000000000        -5.616230770480805E-072
   79.7050000000000        -8.829448537924258E-072
   79.8950000000000        -1.246322637788554E-071
   80.0850000000000        -1.614911763395532E-071
   80.2750000000000        -1.929342700842945E-071
   80.4650000000000        -2.104671687262460E-071
   80.6550000000000        -2.029892850571340E-071
   80.8450000000000        -1.571552667961199E-071
   81.0350000000000        -5.831873923416859E-072
   81.2250000000000         1.077703822962451E-071
   81.4150000000000         3.523735181271740E-071
   81.6050000000000         6.802042439739189E-071
   81.7950000000000         1.084950593484506E-070
   81.9850000000000         1.544105053593305E-070
   82.1750000000000         2.013566455754822E-070
   82.3650000000000         2.422769549421386E-070
   82.5550000000000         2.671424528406450E-070
   82.7450000000000         2.629275854319834E-070
   82.9350000000000         2.140564780881881E-070
   83.1250000000000         1.035031027610033E-070
   83.3150000000000        -8.527738794964156E-071
   83.5050000000000        -3.654468852831681E-070
   83.6950000000000        -7.428530987681873E-070
   83.8850000000000        -1.211141831557148E-069
   84.0750000000000        -1.746175458515511E-069
   84.2650000000000        -2.300267989184535E-069
   84.4550000000000        -2.797043823069725E-069
   84.6450000000000        -3.128051973702077E-069
   84.8350000000000        -3.152583934749831E-069
   85.0250000000000        -2.702398153773272E-069
   85.2150000000000        -1.593176462877549E-069
   85.4050000000000         3.555583280808178E-070
   85.5950000000000         3.290745001998409E-069
   85.7850000000000         7.285808713440589E-069
   85.9750000000000         1.229122205147219E-068
   86.1650000000000         1.807826672613623E-068
   86.3550000000000         2.418103754251739E-068
   86.5450000000000         2.984453868487800E-068
   86.7350000000000         3.398975384876188E-068
   86.9250000000000         3.520948336629846E-068
   87.1150000000000         3.181104045281165E-068
   87.3050000000000         2.192294344914491E-068
   87.4950000000000         3.681763999535247E-069
   87.6850000000000        -2.448854828111443E-068
   87.8750000000000        -6.350007191640491E-068
   88.0650000000000        -1.131341575859103E-067
   88.2550000000000        -1.715082633514791E-067
   88.4450000000000        -2.345213911363369E-067
   88.6350000000000        -2.953481350748980E-067
   88.8250000000000        -3.440782797751930E-067
   89.0150000000000        -3.676247882937292E-067
   89.2050000000000        -3.500436982094397E-067
   89.3950000000000        -2.734194737616689E-067
   89.5850000000000        -1.194622864793613E-067
   89.7750000000000         1.280675359695016E-067
   89.9650000000000         4.800549736034508E-067
   90.1550000000000         9.378919612386693E-067
   90.3450000000000         1.488690842661042E-066
   90.5350000000000         2.100213979578820E-066
   90.7250000000000         2.716095317401833E-066
   90.9150000000000         3.252159655527750E-066
   91.1050000000000         3.594870472416945E-066
   91.2950000000000         3.603124061985400E-066
   91.4850000000000         3.114713106488351E-066
   91.6750000000000         1.958754720264596E-066
   91.8650000000000        -2.484084838888275E-068
   92.0550000000000        -2.958251575410920E-066
   92.2450000000000        -6.891130297941472E-066
   92.4350000000000        -1.175974552488821E-065
   92.6250000000000        -1.734254947709122E-065
   92.8150000000000        -2.321655836659523E-065
   93.0050000000000        -2.872082903652336E-065
   93.1950000000000        -3.293523139593468E-065
   93.3850000000000        -3.468439782207774E-065
   93.5750000000000        -3.257784850309376E-065
   93.7650000000000        -2.509744275714439E-065
   93.9550000000000        -1.074203679761861E-065
   94.1450000000000         1.176392924312041E-065
   94.3350000000000         4.319666315161737E-065
   94.5250000000000         8.350091170963299E-065
   94.7150000000000         1.314171635157995E-064
   94.9050000000000         1.840991317044103E-064
   95.0950000000000         2.367676622599011E-064
   95.2850000000000         2.824630832150817E-064
   95.4750000000000         3.119727945944384E-064
   95.6650000000000         3.140221801617117E-064
   95.8550000000000         2.758216749696581E-064
   96.0450000000000         1.840575451251464E-064
   96.2350000000000         2.639489621799851E-065
   96.4250000000000        -2.064749511364260E-064
   96.6150000000000        -5.182671820817130E-064
   96.8050000000000        -9.041191137458329E-064
   96.9950000000000        -1.347390986692533E-063
   97.1850000000000        -1.816571082877397E-063
   97.3750000000000        -2.262731177010799E-063
   97.5650000000000        -2.618103058466340E-063
   97.7550000000000        -2.796452449988661E-063
   97.9450000000000        -2.695991156588725E-063
   98.1350000000000        -2.205565556472496E-063
   98.3250000000000        -1.214760802140812E-063
   98.5150000000000         3.716635341256486E-064
   98.7050000000000         2.614964415548433E-063
   98.8950000000000         5.519731705939245E-063
   99.0850000000000         9.008539149469218E-063
   99.2750000000000         1.289600123722653E-062
   99.4650000000000         1.686527590130114E-062
   99.6550000000000         2.045105028433033E-062
   99.8450000000000         2.303395790829758E-062
   100.035000000000         2.385204765626626E-062
   100.225000000000         2.203517091439138E-062
   100.415000000000         1.666776075908683E-062
   100.605000000000         6.884225401714522E-063
   100.795000000000        -8.001137637699104E-063
   100.985000000000        -2.833133608536971E-062
   101.175000000000        -5.391743887005948E-062
   101.365000000000        -8.383538897445077E-062
   101.555000000000        -1.162283809911798E-061
   101.745000000000        -1.481418162104075E-061
   101.935000000000        -1.754251085039101E-061
   102.125000000000        -1.927406176180670E-061
   102.315000000000        -1.937234590278329E-061
   102.505000000000        -1.713353991202253E-061
   102.695000000000        -1.184499013983547E-061
   102.885000000000        -2.869210166268760E-062
   103.075000000000         1.024642236513843E-061
   103.265000000000         2.763715259851989E-061
   103.455000000000         4.897240137075505E-061
   103.645000000000         7.330305142645281E-061
   103.835000000000         9.892143234818809E-061
   104.025000000000         1.232563352558793E-060
   104.215000000000         1.428301878483766E-060
   104.405000000000         1.533089355089314E-060
   104.595000000000         1.496762295521603E-060
   104.785000000000         1.265611443953920E-060
   104.975000000000         7.874175002171479E-061
   105.165000000000         1.834496657675408E-062
   105.355000000000        -1.068391431750401E-060
   105.545000000000        -2.472421673665944E-060
   105.735000000000        -4.155317124891016E-060
   105.925000000000        -6.029879774011837E-060
   106.115000000000        -7.950984029794518E-060
   106.305000000000        -9.709681988413456E-060
   106.495000000000        -1.103256632563042E-059
   106.685000000000        -1.158854024824865E-059
   106.875000000000        -1.100510301812971E-059
   107.065000000000        -8.895951449373760E-060
   107.255000000000        -4.901056179305708E-060
   107.445000000000         1.260655461274289E-060
   107.635000000000         9.727316330819976E-060
   107.825000000000         2.042197868536010E-059
   108.015000000000         3.297762726799138E-059
   108.205000000000         4.666703032595099E-059
   108.395000000000         6.034748667444123E-059
   108.585000000000         7.243262463914000E-059
   108.775000000000         8.090488047328917E-059
   108.965000000000         8.338272282080510E-059
   109.155000000000         7.725565828984477E-059
   109.345000000000         5.989712233958110E-059
   109.535000000000         2.896016256251821E-059
   109.725000000000        -1.724688156834024E-059
   109.915000000000        -7.931774542581855E-059
   110.105000000000        -1.562642450949991E-058