  -1.42500000000000         0.000000000000000E+000
  -1.23500000000000         0.000000000000000E+000
  -1.04500000000000         0.000000000000000E+000
 -0.855000000000000         0.000000000000000E+000
 -0.665000000000000         0.000000000000000E+000
 -0.475000000000000         0.000000000000000E+000
 -0.285000000000000         0.000000000000000E+000
 -9.499999999999975E-002    0.000000000000000E+000
  9.500000000000020E-002    0.000000000000000E+000
  0.285000000000000         0.000000000000000E+000
  0.475000000000000         0.000000000000000E+000
  0.665000000000000         0.000000000000000E+000
  0.855000000000000         0.000000000000000E+000
   1.04500000000000         0.000000000000000E+000
   1.23500000000000         0.000000000000000E+000
   1.42500000000000         0.000000000000000E+000
   1.61500000000000         0.000000000000000E+000
   1.80500000000000         0.000000000000000E+000
   1.99500000000000         0.000000000000000E+000
   2.18500000000000         0.000000000000000E+000
   2.37500000000000         0.000000000000000E+000
   2.56500000000000         0.000000000000000E+000
   2.75500000000000         0.000000000000000E+000
   2.94500000000000         0.000000000000000E+000
   3.13500000000000         0.000000000000000E+000
   3.32500000000000         0.000000000000000E+000
   3.51500000000000         0.000000000000000E+000
   3.70500000000000         0.000000000000000E+000
   3.89500000000000         0.000000000000000E+000
   4.08500000000000         0.000000000000000E+000
   4.27500000000000         0.000000000000000E+000
   4.46500000000000         0.000000000000000E+000
   4.65500000000000         0.000000000000000E+000
   4.84500000000000         0.000000000000000E+000
   5.03500000000000         0.000000000000000E+000
   5.22500000000000         0.000000000000000E+000
   5.41500000000000         0.000000000000000E+000
   5.60500000000000         0.000000000000000E+000
   5.79500000000000         0.000000000000000E+000
   5.98500000000000         0.000000000000000E+000
   6.17500000000000         0.000000000000000E+000
   6.36500000000000         0.000000000000000E+000
   6.55500000000000         0.000000000000000E+000
   6.74500000000000         9.211842626443706E-176
   6.93500000000000        -2.044489848470095E-168
   7.12500000000000        -7.804199694444755E-167
   7.31500000000000        -2.334332904807730E-166
   7.50500000000000         4.792164441675475E-164
   7.69500000000000         1.505923033044731E-162
   7.88500000000000         2.457891308217741E-161
   8.07500000000000         2.506639751455450E-160
   8.26500000000000         1.653283627243588E-159
   8.45500000000000         1.135278697566571E-158
   8.64500000000000         2.534826482500690E-157
   8.83500000000000         6.408466300829659E-156
   9.02500000000000         1.172765444682394E-154
   9.21500000000000         1.699639580645984E-153
   9.40500000000000         2.275738762871029E-152
   9.59500000000000         3.289561537168433E-151
   9.78500000000000         5.156092985957765E-150
   9.97500000000000         7.683769104734363E-149
   10.1650000000000         9.750898910667771E-148
   10.3550000000000         9.792828029044066E-147
   10.5450000000000         6.832121769327787E-146
   10.7350000000000         1.226069542757179E-145
   10.9250000000000        -5.451083723251935E-144
   11.1150000000000        -1.124553600336412E-142
   11.3050000000000        -1.474708829247527E-141
   11.4950000000000        -1.555215797525409E-140
   11.6850000000000        -1.415044764537568E-139
   11.8750000000000        -1.147730490384560E-138
   12.0650000000000        -8.456619922765128E-138
   12.2550000000000        -5.730987379259053E-137
   12.4450000000000        -3.604045762580173E-136
   12.6350000000000        -2.117356957456813E-135
   12.8250000000000        -1.168245549991726E-134
   13.0150000000000        -6.079456286831200E-134
   13.2050000000000        -2.994424290407496E-133
   13.3950000000000        -1.400080509703783E-132
   13.5850000000000        -6.229465900316575E-132
   13.7750000000000        -2.643019822506354E-131
   13.9650000000000        -1.071134085706302E-130
   14.1550000000000        -4.152262673147077E-130
   14.3450000000000        -1.541328621975813E-129
   14.5350000000000        -5.482956493474980E-129
   14.7250000000000        -1.870007106985283E-128
   14.9150000000000        -6.115380841205858E-128
   15.1050000000000        -1.916954517125445E-127
   15.2950000000000        -5.754778945950247E-127
   15.4850000000000        -1.651878631457015E-126
   15.6750000000000        -4.521812982370266E-126
   15.8650000000000        -1.175423478511783E-125
   16.0550000000000        -2.881690513863157E-125
   16.2450000000000        -6.586096141298686E-125
   16.4350000000000        -1.373471281458555E-124
   16.6250000000000        -2.495596161587165E-124
   16.8150000000000        -3.455555622791150E-124
   17.0050000000000        -1.288310659115243E-124
   17.1950000000000         1.406970073338671E-123
   17.3850000000000         7.040935357299669E-123
   17.5750000000000         2.324354832038559E-122
   17.7650000000000         6.214345216989141E-122
   17.9550000000000         1.375742779828616E-121
   18.1450000000000         2.306175467335171E-121
   18.3350000000000         1.416102440312202E-121
   18.5250000000000        -1.022387468610888E-120
   18.7150000000000        -6.428082175868569E-120
   18.9050000000000        -2.602480373424097E-119
   19.0950000000000        -8.867442662562322E-119
   19.2850000000000        -2.732676387295504E-118
   19.4750000000000        -7.853773426688699E-118
   19.6650000000000        -2.139474441993995E-117
   19.8550000000000        -5.578345340227075E-117
   20.0450000000000        -1.401025063924446E-116
   20.2350000000000        -3.404554301724516E-116
   20.4250000000000        -8.030743958910601E-116
   20.6150000000000        -1.843283104304267E-115
   20.8050000000000        -4.124638446341395E-115
   20.9950000000000        -9.011078668191501E-115
   21.1850000000000        -1.924283392265061E-114
   21.3750000000000        -4.020310150168815E-114
   21.5650000000000        -8.223491540665793E-114
   21.7550000000000        -1.647743998420604E-113
   21.9450000000000        -3.235342358179925E-113
   22.1350000000000        -6.226447666633193E-113
   22.3250000000000        -1.174556571231266E-112
   22.5150000000000        -2.171556859583479E-112
   22.7050000000000        -3.933676716377081E-112
   22.8950000000000        -6.977868997063961E-112
   23.0850000000000        -1.211112197322429E-111
   23.2750000000000        -2.054273212364010E-111
   23.4650000000000        -3.399300745649651E-111
   23.6550000000000        -5.473813906883386E-111
   23.8450000000000        -8.545905047542876E-111
   24.0350000000000        -1.286326761185882E-110
   24.2250000000000        -1.849833029647206E-110
   24.4150000000000        -2.501519283486462E-110
   24.6050000000000        -3.081817393794873E-110
   24.7950000000000        -3.195866686133309E-110
   24.9850000000000        -2.005998971883213E-110
   25.1750000000000         2.113439408206854E-110
   25.3650000000000         1.212698109570636E-109
   25.5550000000000         3.318195829665553E-109
   25.7450000000000         7.384665157342625E-109
   25.9350000000000         1.478403289352338E-108
   26.1250000000000         2.763102674726321E-108
   26.3150000000000         4.905934324159273E-108
   26.5050000000000         8.351525268781338E-108
   26.6950000000000         1.369916050981098E-107
   26.8850000000000         2.170467616816710E-107
   27.0750000000000         3.323277645151262E-107
   27.2650000000000         4.911284780714764E-107
   27.4550000000000         6.982452275110258E-107
   27.6450000000000         9.490341434610204E-107
   27.8350000000000         1.219131209172841E-106
   28.0250000000000         1.447805097759425E-106
   28.2150000000000         1.512468441993039E-106
   28.4050000000000         1.191662026985529E-106
   28.5950000000000         1.141758176596627E-107
   28.7850000000000        -2.306592446540395E-106
   28.9750000000000        -6.950624009121550E-106
   29.1650000000000        -1.507287963296447E-105
   29.3550000000000        -2.836898936980322E-105
   29.5450000000000        -4.898842009237949E-105
   29.7350000000000        -7.943312129729588E-105
   29.9250000000000        -1.222441006578838E-104
   30.1150000000000        -1.793315968413309E-104
   30.3050000000000        -2.507472770249425E-104
   30.4950000000000        -3.326334588399014E-104
   30.6850000000000        -4.140248399949326E-104
   30.8750000000000        -4.721416718021858E-104
   31.0650000000000        -4.658316399747548E-104
   31.2550000000000        -3.269400730025635E-104
   31.4450000000000         5.031476976328851E-105
   31.6350000000000         8.213171541630263E-104
   31.8250000000000         2.202777649628944E-103
   32.0150000000000         4.481113576973722E-103
   32.2050000000000         8.012229163202285E-103
   32.3950000000000         1.320447584886058E-102
   32.5850000000000         2.047276460724352E-102
   32.7750000000000         3.014724576914510E-102
   32.9650000000000         4.231501845199056E-102
   33.1550000000000         5.656872423215219E-102
   33.3450000000000         7.163292486765002E-102
   33.5350000000000         8.483992440769203E-102
   33.7250000000000         9.143417920808593E-102
   33.9150000000000         8.370273814557286E-102
   34.1050000000000         4.996347345346714E-102
   34.2950000000000        -2.650067423428470E-102
   34.4850000000000        -1.683880904157137E-101
   34.6750000000000        -4.049125260434178E-101
   34.8650000000000        -7.714741109381875E-101
   35.0550000000000        -1.307822399061635E-100
   35.2450000000000        -2.053845542644393E-100
   35.4350000000000        -3.041894950238264E-100
   35.6250000000000        -4.284367497100348E-100
   35.8150000000000        -5.755182720910595E-100
   36.0050000000000        -7.363904609063099E-100
   36.1950000000000        -8.921692549384690E-100
   36.3850000000000        -1.009918011708044E-099
   36.5750000000000        -1.037795157273855E-099
   36.7650000000000        -8.999694214001706E-100
   36.9550000000000        -4.920497460638790E-100
   37.1450000000000         3.217791848372653E-100
   37.3350000000000         1.708186393054179E-099
   37.5250000000000         3.858362484877927E-099
   37.7150000000000         6.973017065328105E-099
   37.9050000000000         1.123535285833946E-098
   38.0950000000000         1.676854345231806E-098
   38.2850000000000         2.357469924706838E-098
   38.4750000000000         3.145366348038596E-098
   38.6650000000000         3.990261005155260E-098
   38.8550000000000         4.800170241369198E-098
   39.0450000000000         5.429734559268751E-098
   39.2350000000000         5.670298165666182E-098
   39.4250000000000         5.244777960227680E-098
   39.6150000000000         3.811526207357151E-098
   39.8050000000000         9.825424752746970E-099
   39.9950000000000        -3.637728117269610E-098
   40.1850000000000        -1.038654552819934E-097
   40.3750000000000        -1.944447050060290E-097
   40.5650000000000        -3.070174175008285E-097
   40.7550000000000        -4.359231201683369E-097
   40.9450000000000        -5.690754770969158E-097
   41.1350000000000        -6.861513086947637E-097
   41.3250000000000        -7.572718688234907E-097
   41.5150000000000        -7.428505256876169E-097
   41.7050000000000        -5.955533723580946E-097
   41.8950000000000        -2.656039270919124E-097
   42.0850000000000         2.890883531705424E-097
   42.2750000000000         1.086361059928915E-096
   42.4650000000000         2.095270831823629E-096
   42.6550000000000         3.202555968089536E-096
   42.8450000000000         4.170094495327568E-096
   43.0350000000000         4.585229220331532E-096
   43.2250000000000         3.808766685472522E-096
   43.4150000000000         9.297054155313133E-097
   43.6050000000000        -5.258509087108036E-096
   43.7950000000000        -1.623813341695600E-095
   43.9850000000000        -3.367303118888199E-095
   44.1750000000000        -5.920043175295281E-095
   44.3650000000000        -9.405994521990467E-095
   44.5550000000000        -1.385051571149736E-094
   44.7450000000000        -1.909427869560396E-094
   44.9350000000000        -2.467542141254674E-094
   45.1250000000000        -2.967800237393539E-094
   45.3150000000000        -3.254974400869130E-094
   45.5050000000000        -3.090016292304043E-094
   45.6950000000000        -2.130238917645709E-094
   45.8850000000000         8.609111483629620E-096
   46.0750000000000         4.144457415996750E-094
   46.2650000000000         1.073902301294347E-093
   46.4550000000000         2.062554343095668E-093
   46.6450000000000         3.452676936090307E-093
   46.8350000000000         5.297208210421027E-093
   47.0250000000000         7.605175616512970E-093
   47.2150000000000         1.030676714424270E-092
   47.4050000000000         1.320683709836156E-092
   47.5950000000000         1.592694602034341E-092
   47.7850000000000         1.783832606436666E-092
   47.9750000000000         1.799172841333076E-092
   48.1650000000000         1.505519793490458E-092
   48.3550000000000         7.277548999168975E-093
   48.5450000000000        -7.496466803788639E-093
   48.7350000000000        -3.172421162571021E-092
   48.9250000000000        -6.793265262695631E-092
   49.1150000000000        -1.183054701467048E-091
   49.3050000000000        -1.840399741817434E-091
   49.4950000000000        -2.644348347107690E-091
   49.6850000000000        -3.556972288124294E-091
   49.8750000000000        -4.495091420056118E-091
   50.0650000000000        -5.314736640476539E-091
   50.2550000000000        -5.796773390970895E-091
   50.4450000000000        -5.637527733069433E-091
   50.6350000000000        -4.449959490195043E-091
   50.8250000000000        -1.782591963844408E-091
   51.0150000000000         2.835433173780823E-091
   51.2050000000000         9.814885884219318E-091
   51.3950000000000         1.938660990530067E-090
   51.5850000000000         3.144123392268054E-090
   51.7750000000000         4.533913523834846E-090
   51.9650000000000         5.971825062394463E-090
   52.1550000000000         7.235078291507979E-090
   52.3450000000000         8.012878674354922E-090
   52.5350000000000         7.928930836911051E-090
   52.7250000000000         6.601449747090733E-090
   52.9150000000000         3.754782393178990E-090
   53.1050000000000        -6.065311119875104E-091
   53.2950000000000        -5.960181367500031E-090
   53.4850000000000        -1.098324802921678E-089
   53.6750000000000        -1.327435641277003E-089
   53.8650000000000        -9.178005869363629E-090
   54.0550000000000         6.130169531291694E-090
   54.2450000000000         3.806702729528832E-089
   54.4350000000000         9.127533475531318E-089
   54.6250000000000         1.671246153485220E-088
   54.8150000000000         2.597565447627218E-088
   55.0050000000000         3.504873169161950E-088
   55.1950000000000         4.006986411010143E-088
   55.3850000000000         3.439293565614549E-088
   55.5750000000000         7.879302751994849E-089
   55.7650000000000        -5.343653972990020E-088
   55.9550000000000        -1.668527715581208E-087
   56.1450000000000        -3.510405101114337E-087
   56.3350000000000        -6.218147381599597E-087
   56.5250000000000        -9.847424838293718E-087
   56.7150000000000        -1.423776797332327E-086
   56.9050000000000        -1.885488528525346E-086
   57.0950000000000        -2.259312869844472E-086
   57.2850000000000        -2.355705596499789E-086
   57.4750000000000        -1.886359908793051E-086
   57.6650000000000        -4.537236358521415E-087
   57.8550000000000         2.439150432497511E-086
   58.0450000000000         7.343326363729284E-086
   58.2350000000000         1.476473822779824E-085
   58.4250000000000         2.499107860808146E-085
   58.6150000000000         3.782782468535013E-085
   58.8050000000000         5.223639391505031E-085
   58.9950000000000         6.588780864288914E-085
   59.1850000000000         7.467929184326962E-085
   59.3750000000000         7.231118493788872E-085
   59.5650000000000         5.008729316081256E-085
   59.7550000000000        -2.821430701595550E-086
   59.9450000000000        -9.833368651759276E-085
   60.1350000000000        -2.472644964579277E-084
   60.3250000000000        -4.556117714152152E-084
   60.5150000000000        -7.190546718733985E-084
   60.7050000000000        -1.015656015473621E-083
   60.8950000000000        -1.297241850987790E-083
   61.0850000000000        -1.480686570464502E-083
   61.2750000000000        -1.441385774689191E-083
   61.4650000000000        -1.012514691972027E-083
   61.6550000000000         4.891632727541240E-086
   61.8450000000000         1.814727428938549E-083
   62.0350000000000         4.574543469346513E-083
   62.2250000000000         8.314024006276504E-083
   62.4150000000000         1.282007456498375E-082
   62.6050000000000         1.749184659519857E-082
   62.7950000000000         2.118002091588176E-082
   62.9850000000000         2.204103419022065E-082
   63.1750000000000         1.745876500691426E-082
   63.3650000000000         4.112243799039340E-083
   63.5550000000000        -2.170518197477187E-082
   63.7450000000000        -6.338850864203843E-082
   63.9350000000000        -1.228133260373008E-081
   64.1250000000000        -1.985100975274094E-081
   64.3150000000000        -2.831861850574089E-081
   64.5050000000000        -3.607040851891138E-081
   64.6950000000000        -4.028566523048326E-081
   64.8850000000000        -3.666155497672713E-081
   65.0750000000000        -1.929663547904564E-081
   65.2650000000000         1.910453420774474E-081
   65.4550000000000         8.649164021090406E-081
   65.6450000000000         1.899399519007473E-080
   65.8350000000000         3.330704239521220E-080
   66.0250000000000         5.122056220315183E-080
   66.2150000000000         7.111895474711493E-080
   66.4050000000000         8.950698863976479E-080
   66.5950000000000         1.003277194699259E-079
   66.7850000000000         9.435616158776080E-080
   66.9750000000000         5.887624184879537E-080
   67.1650000000000        -2.205579416678615E-080
   67.3550000000000        -1.663600839518320E-079
   67.5450000000000        -3.912124880189503E-079
   67.7350000000000        -7.083436380486286E-079
   67.9250000000000        -1.116912785050130E-078
   68.1150000000000        -1.593729619539695E-078
   68.3050000000000        -2.081031417173537E-078
   68.4950000000000        -2.472735756077792E-078
   68.6850000000000        -2.601126857339837E-078
   68.8750000000000        -2.227304046267894E-078
   69.0650000000000        -1.040363858810133E-078
   69.2550000000000         1.327960196529874E-078
   69.4450000000000         5.264918193487296E-078
   69.6350000000000         1.110545761688778E-077
   69.8250000000000         1.901932443237759E-077
   70.0150000000000         2.885051205062249E-077
   70.2050000000000         3.990888456666737E-077
   70.3950000000000         5.072387496962707E-077
   70.5850000000000         5.878526638476165E-077
   70.7750000000000         6.031654473424871E-077
   70.9650000000000         5.015161841385664E-077
   71.1550000000000         2.181391413708520E-077
   71.3450000000000        -3.207585004897293E-077
   71.5350000000000        -1.189167769522444E-076
   71.7250000000000        -2.446193461508584E-076
   71.9150000000000        -4.113448286308292E-076
   72.1050000000000        -6.144316251265768E-076
   72.2950000000000        -8.385698326770270E-076
   72.4850000000000        -1.053477443276247E-075
   72.6750000000000        -1.209601650127857E-075
   72.8650000000000        -1.234714782458323E-075
   73.0550000000000        -1.032678159210336E-075
   73.2450000000000        -4.860672652775433E-076
   73.4350000000000         5.352831410850139E-076
   73.6250000000000         2.157551423277567E-075
   73.8150000000000         4.475856838724894E-075
   74.0050000000000         7.515261110254081E-075
   74.1950000000000         1.117951800117639E-074
   74.3850000000000         1.518936571131240E-074
   74.5750000000000         1.901528709320208E-074
   74.7650000000000         2.181384731618333E-074
   74.9550000000000         2.238183278598206E-074
   75.1450000000000         1.914808343657350E-074
   75.3350000000000         1.022842388145463E-074
   75.5250000000000        -6.426656895243601E-075
   75.7150000000000        -3.276051188841706E-074
   75.9050000000000        -7.018736223033833E-074
   76.0950000000000        -1.190006983773488E-073
   76.2850000000000        -1.776159560304833E-073
   76.4750000000000        -2.416820500396231E-073
   76.6650000000000        -3.031409548957739E-073
   76.8550000000000        -3.493717778455036E-073
   77.0450000000000        -3.626229979263512E-073
   77.2350000000000        -3.200077176759028E-073
   77.4250000000000        -1.944016558518895E-073
   77.6150000000000         4.337288507244734E-074
   77.8050000000000         4.206917877668728E-073
   77.9950000000000         9.572811513292478E-073
   78.1850000000000         1.657211799474633E-072
   78.3750000000000         2.498847430738867E-072
   78.5650000000000         3.423273680659812E-072
   78.7550000000000         4.322300359657928E-072
   78.9450000000000         5.027831308417703E-072
   79.1350000000000         5.305194145098685E-072
   79.3250000000000         4.853834804070077E-072
   79.5150000000000         3.319480896993396E-072
   79.7050000000000         3.222832883481871E-073
   79.8950000000000        -4.494673769065421E-072
   80.0850000000000        -1.139301718937667E-071
   80.2750000000000        -2.044140212572706E-071
   80.4650000000000        -3.139435934452079E-071
   80.6550000000000        -4.355440330255511E-071
   80.8450000000000        -5.563057498518354E-071
   81.0350000000000        -6.561441229161230E-071
   81.2250000000000        -7.070301168931334E-071
   81.4150000000000        -6.730742986624773E-071
   81.6050000000000        -5.119175182907043E-071
   81.7950000000000        -1.779179157173319E-071
   81.9850000000000         3.723980595792058E-071
   82.1750000000000         1.172260584066909E-070
   82.3650000000000         2.233818704986606E-070
   82.5550000000000         3.534761139408376E-070
   82.7450000000000         5.003131225790160E-070
   82.9350000000000         6.501740610842475E-070
   83.1250000000000         7.814386204064220E-070
   83.3150000000000         8.636949933549356E-070
   83.5050000000000         8.577315053310288E-070
   83.6950000000000         7.168725017779034E-070
   83.8850000000000         3.901553548730371E-070
   84.0750000000000        -1.721781543437642E-070
   84.2650000000000        -1.010509928488037E-069
   84.4550000000000        -2.144843446949805E-069
   84.6450000000000        -3.561169993464347E-069
   84.8350000000000        -5.195895506223694E-069
   85.0250000000000        -6.919658690343188E-069
   85.2150000000000        -8.522631232475451E-069
   85.4050000000000        -9.704221234047958E-069
   85.5950000000000        -1.007091409511192E-068
   85.7850000000000        -9.146653964164818E-069
   85.9750000000000        -6.400525931841107E-069
   86.1650000000000        -1.296341100367031E-069
   86.3550000000000         6.632173279988828E-069
   86.5450000000000         1.767874725771382E-068
   86.7350000000000         3.183571527936942E-068
   86.9250000000000         4.864448723811927E-068
   87.1150000000000         6.703653795118899E-068
   87.3050000000000         8.518288143426409E-068
   87.4950000000000         1.003774783530223E-067
   87.6850000000000         1.089875042641017E-067
   87.8750000000000         1.065098365800541E-067
   88.0650000000000         8.777711093435048E-068
   88.2550000000000         4.735655504465516E-068
   88.4450000000000        -1.982138553042154E-068
   88.6350000000000        -1.175818319843340E-067
   88.8250000000000        -2.473728937206996E-067
   89.0150000000000        -4.069180549497335E-067
   89.2050000000000        -5.887363827490067E-067
   89.3950000000000        -7.786703296750438E-067
   89.5850000000000        -9.546252966534765E-067
   89.7750000000000        -1.085791744468881E-066
   89.9650000000000        -1.132681563164401E-066
   90.1550000000000        -1.048354856857126E-066
   90.3450000000000        -7.812278186663183E-067
   90.5350000000000        -2.798213860872690E-067
   90.7250000000000         5.002826938288948E-067
   90.9150000000000         1.587182745801578E-066
   91.1050000000000         2.981260977648572E-066
   91.2950000000000         4.642174998366568E-066
   91.4850000000000         6.475214501786719E-066
   91.6750000000000         8.318530134117013E-066
   91.8650000000000         9.933313365980897E-066
   92.0550000000000         1.099956465118231E-065
   92.2450000000000         1.112055365572780E-065
   92.4350000000000         9.839348187727712E-066
   92.6250000000000         6.670745797126492E-066
   92.8150000000000         1.151448612480909E-066
   93.0050000000000        -7.089759288327297E-066
   93.1950000000000        -1.824186408079391E-065
   93.3850000000000        -3.220412280874209E-065
   93.5750000000000        -4.846723422843514E-065
   93.7650000000000        -6.599334666295266E-065
   93.9550000000000        -8.310975487155073E-065
   94.1450000000000        -9.743600407321024E-065
   94.3350000000000        -1.058686260810258E-064
   94.5250000000000        -1.046511485016649E-064
   94.7150000000000        -8.955842973794735E-065
   94.9050000000000        -5.622272138576184E-065
   95.0950000000000        -6.230124083664294E-067
   95.2850000000000         8.025193020304691E-065
   95.4750000000000         1.875737467030640E-064
   95.6650000000000         3.197088689257692E-064
   95.8550000000000         4.711787346855926E-064
   96.0450000000000         6.316437435422575E-064
   96.2350000000000         7.850486495964267E-064
   96.4250000000000         9.091069015973399E-064
   96.6150000000000         9.753363098199985E-064
   96.8050000000000         9.498818455272547E-064
   96.9950000000000         7.953655065352549E-064
   97.1850000000000         4.739792009955076E-064
   97.3750000000000        -4.802455814850581E-065
   97.5650000000000        -7.943959969139594E-064
   97.7550000000000        -1.771615608798989E-063
   97.9450000000000        -2.960608340956593E-063
   98.1350000000000        -4.308029931206708E-063
   98.3250000000000        -5.718013567582199E-063
   98.5150000000000        -7.045586770855501E-063
   98.7050000000000        -8.093277536606491E-063
   98.8950000000000        -8.612681937871022E-063
   99.0850000000000        -8.312907931446208E-063
   99.2750000000000        -6.877778162980185E-063
   99.4650000000000        -3.993399091412067E-063
   99.6550000000000         6.128830949864196E-064
   99.8450000000000         7.122075347808843E-063
   100.035000000000         1.556297682422564E-062
   100.225000000000         2.574453131757022E-062
   100.415000000000         3.718629122421484E-062
   100.605000000000         4.905457374268403E-062
   100.795000000000         6.011433897305596E-062
   100.985000000000         6.870906649457197E-062
   101.175000000000         7.278259870713135E-062
   101.365000000000         6.995762655588798E-062
   101.555000000000         5.768473225670856E-062
   101.745000000000         3.347317188598223E-062
   101.935000000000        -4.790589692377395E-063
   102.125000000000        -5.843855164352081E-062
   102.315000000000        -1.275439668272940E-061
   102.505000000000        -2.103979724024763E-061
   102.695000000000        -3.029829719836066E-061
   102.885000000000        -3.985032675970415E-061
   103.075000000000        -4.870509105152481E-061
   103.265000000000        -5.554999943103411E-061
   103.455000000000        -5.877329905293975E-061
   103.645000000000        -5.653051008737473E-061
   103.835000000000        -4.686435638205636E-061
   104.025000000000        -2.788550132297805E-061
   104.215000000000         1.982764288235446E-062
   104.405000000000         4.369888437344982E-061
   104.595000000000         9.724764326392974E-061
   104.785000000000         1.612562853658015E-060
   104.975000000000         2.326149473721919E-060
   105.165000000000         3.061464151281986E-060
   105.355000000000         3.743819815745109E-060
   105.545000000000         4.275099850591778E-060
   105.735000000000         4.535695898225372E-060
   105.925000000000         4.389624089010823E-060
   106.115000000000         3.693464175397057E-060
   106.305000000000         2.309581013221510E-060
   106.495000000000         1.237812687053135E-061
   106.685000000000        -2.932880911430547E-060
   106.875000000000        -6.859007550591219E-060
   107.065000000000        -1.155601857605521E-059
   107.255000000000        -1.680189640613954E-059
   107.445000000000        -2.222864517293141E-059
   107.635000000000        -2.730735643650194E-059
   107.825000000000        -3.134538513387917E-059
   108.015000000000        -3.350048136671515E-059
   108.205000000000        -3.281665897928551E-059
   108.395000000000        -2.828596925453188E-059
   108.585000000000        -1.893905469436208E-059
   108.775000000000        -3.965277259029709E-060
   108.965000000000         1.713971162914681E-059
   109.155000000000         4.440485427880893E-059
   109.345000000000         7.720340982923421E-059
   109.535000000000         1.140769028825709E-058
   109.725000000000         1.525838330118034E-058
   109.915000000000         1.891984813710398E-058
   110.105000000000         2.192889626434423E-058