  -1.42500000000000         0.000000000000000E+000
  -1.23500000000000         0.000000000000000E+000
  -1.04500000000000         0.000000000000000E+000
 -0.855000000000000         0.000000000000000E+000
 -0.665000000000000         0.000000000000000E+000
 -0.475000000000000         0.000000000000000E+000
 -0.285000000000000         0.000000000000000E+000
 -9.499999999999975E-002    0.000000000000000E+000
  9.500000000000020E-002    0.000000000000000E+000
  0.285000000000000         0.000000000000000E+000
  0.475000000000000         0.000000000000000E+000
  0.665000000000000         0.000000000000000E+000
  0.855000000000000         0.000000000000000E+000
   1.04500000000000         0.000000000000000E+000
   1.23500000000000         0.000000000000000E+000
   1.42500000000000         0.000000000000000E+000
   1.61500000000000         0.000000000000000E+000
   1.80500000000000         0.000000000000000E+000
   1.99500000000000         0.000000000000000E+000
   2.18500000000000         0.000000000000000E+000
   2.37500000000000         0.000000000000000E+000
   2.56500000000000         0.000000000000000E+000
   2.75500000000000         0.000000000000000E+000
   2.94500000000000         0.000000000000000E+000
   3.13500000000000         0.000000000000000E+000
   3.32500000000000         0.000000000000000E+000
   3.51500000000000         0.000000000000000E+000
   3.70500000000000         0.000000000000000E+000
   3.89500000000000         0.000000000000000E+000
   4.08500000000000         0.000000000000000E+000
   4.27500000000000         0.000000000000000E+000
   4.46500000000000         0.000000000000000E+000
   4.65500000000000         0.000000000000000E+000
   4.84500000000000         0.000000000000000E+000
   5.03500000000000         0.000000000000000E+000
   5.22500000000000         0.000000000000000E+000
   5.41500000000000         0.000000000000000E+000
   5.60500000000000         0.000000000000000E+000
   5.79500000000000         0.000000000000000E+000
   5.98500000000000         0.000000000000000E+000
   6.17500000000000         0.000000000000000E+000
   6.36500000000000         0.000000000000000E+000
   6.55500000000000         0.000000000000000E+000
   6.74500000000000        -8.419519693397498E-175
   6.93500000000000         1.044065879319973E-168
   7.12500000000000         3.011194460975260E-167
   7.31500000000000        -4.415677308593838E-166
   7.50500000000000        -3.849186181593494E-164
   7.69500000000000        -9.410030177937407E-163
   7.88500000000000        -1.243821821145671E-161
   8.07500000000000        -7.339630266709303E-161
   8.26500000000000         6.543125937766770E-160
   8.45500000000000         2.334534815438763E-158
   8.64500000000000         3.533222517470150E-157
   8.83500000000000         3.877643677599057E-156
   9.02500000000000         2.982088054265455E-155
   9.21500000000000        -1.373259332527397E-154
   9.40500000000000        -1.384314620358316E-152
   9.59500000000000        -3.743275365798504E-151
   9.78500000000000        -6.679048161528618E-150
   9.97500000000000        -8.666564194986451E-149
   10.1650000000000        -7.997940405749392E-148
   10.3550000000000        -4.001397268620233E-147
   10.5450000000000         2.362492745465196E-146
   10.7350000000000         9.005254999886768E-145
   10.9250000000000         1.386134322451675E-143
   11.1150000000000         1.583744359773275E-142
   11.3050000000000         1.505086698061222E-141
   11.4950000000000         1.243686174577783E-140
   11.6850000000000         9.137765850313347E-140
   11.8750000000000         6.043315249180605E-139
   12.0650000000000         3.619379020528987E-138
   12.2550000000000         1.964219481838646E-137
   12.4450000000000         9.599992367613434E-137
   12.6350000000000         4.149191173153824E-136
   12.8250000000000         1.511674261606644E-135
   13.0150000000000         3.951934951959053E-135
   13.2050000000000         4.070672587445131E-136
   13.3950000000000        -8.799748231129600E-134
   13.5850000000000        -8.031653128882489E-133
   13.7750000000000        -5.239905726895908E-132
   13.9650000000000        -2.917489706259523E-131
   14.1550000000000        -1.466230262928083E-130
   14.3450000000000        -6.823918167311057E-130
   14.5350000000000        -2.983186597642528E-129
   14.7250000000000        -1.235996794304860E-128
   14.9150000000000        -4.883089817785043E-128
   15.1050000000000        -1.847751272459048E-127
   15.2950000000000        -6.719553404963056E-127
   15.4850000000000        -2.354821277180590E-126
   15.6750000000000        -7.969943510980444E-126
   15.8650000000000        -2.609970505197055E-125
   16.0550000000000        -8.282943602476589E-125
   16.2450000000000        -2.550919482861772E-124
   16.4350000000000        -7.632957161634412E-124
   16.6250000000000        -2.221437476496883E-123
   16.8150000000000        -6.294067262378700E-123
   17.0050000000000        -1.737609228569400E-122
   17.1950000000000        -4.677624227177386E-122
   17.3850000000000        -1.228697803539759E-121
   17.5750000000000        -3.151175291958400E-121
   17.7650000000000        -7.894725645518038E-121
   17.9550000000000        -1.933016985408538E-120
   18.1450000000000        -4.627347227805691E-120
   18.3350000000000        -1.083312392629324E-119
   18.5250000000000        -2.480775011952186E-119
   18.7150000000000        -5.557416793275740E-119
   18.9050000000000        -1.217851217368838E-118
   19.0950000000000        -2.610151828316324E-118
   19.2850000000000        -5.469080722556074E-118
   19.4750000000000        -1.119570888343897E-117
   19.6650000000000        -2.236832049020147E-117
   19.8550000000000        -4.355084026344638E-117
   20.0450000000000        -8.244364659192196E-117
   20.2350000000000        -1.512298758051313E-116
   20.4250000000000        -2.673940974514851E-116
   20.6150000000000        -4.518394013029771E-116
   20.8050000000000        -7.188016739227722E-116
   20.9950000000000        -1.044896545791781E-115
   21.1850000000000        -1.289937557235748E-115
   21.3750000000000        -1.013187003234495E-115
   21.5650000000000         9.264693208565715E-116
   21.7550000000000         7.199643484762526E-115
   21.9450000000000         2.365988458564971E-114
   22.1350000000000         6.253152820579069E-114
   22.3250000000000         1.483708248635339E-113
   22.5150000000000         3.288962257966037E-113
   22.7050000000000         6.941183084845922E-113
   22.8950000000000         1.409178994739553E-112
   23.0850000000000         2.769058622507802E-112
   23.2750000000000         5.286763381645128E-112
   23.4650000000000         9.830188286296110E-112
   23.6550000000000         1.782482915172483E-111
   23.8450000000000         3.153577827664958E-111
   24.0350000000000         5.442427166415188E-111
   24.2250000000000         9.152427243940772E-111
   24.4150000000000         1.496709545894001E-110
   24.6050000000000         2.371775159093445E-110
   24.7950000000000         3.620988025390670E-110
   24.9850000000000         5.273704789067433E-110
   25.1750000000000         7.195951915628494E-110
   25.3650000000000         8.856276093457809E-110
   25.5550000000000         8.867265949396860E-110
   25.7450000000000         4.129273985723257E-110
   25.9350000000000        -1.170907353430958E-109
   26.1250000000000        -5.092927801167538E-109
   26.3150000000000        -1.362653322500224E-108
   26.5050000000000        -3.083237997021344E-108
   26.6950000000000        -6.374145176949159E-108
   26.8850000000000        -1.241858405438203E-107
   27.0750000000000        -2.315410264892909E-107
   27.2650000000000        -4.166828593690742E-107
   27.4550000000000        -7.274432541177978E-107
   27.6450000000000        -1.235693762819999E-106
   27.8350000000000        -2.045760454769638E-106
   28.0250000000000        -3.302952693497699E-106
   28.2150000000000        -5.199218505062066E-106
   28.4050000000000        -7.969787266987131E-106
   28.5950000000000        -1.186936164786367E-105
   28.7850000000000        -1.710793557633490E-105
   28.9750000000000        -2.371332118612867E-105
   29.1650000000000        -3.126843093428314E-105
   29.3550000000000        -3.844475569113938E-105
   29.5450000000000        -4.221826376690786E-105
   29.7350000000000        -3.661043988690194E-105
   29.9250000000000        -1.074854270535503E-105
   30.1150000000000         5.400632703789494E-105
   30.3050000000000         1.881403064035483E-104
   30.4950000000000         4.395296819961888E-104
   30.6850000000000         8.805753101024567E-104
   30.8750000000000         1.616761635287944E-103
   31.0650000000000         2.795895351062460E-103
   31.2550000000000         4.616272806218573E-103
   31.4450000000000         7.330405567516733E-103
   31.6350000000000         1.123848346474419E-102
   31.8250000000000         1.666225184899755E-102
   32.0150000000000         2.388524873135106E-102
   32.2050000000000         3.303934826655583E-102
   32.3950000000000         4.391052870484835E-102
   32.5850000000000         5.562945113419869E-102
   32.7750000000000         6.620629526907019E-102
   32.9650000000000         7.186697144240030E-102
   33.1550000000000         6.615347076365080E-102
   33.3450000000000         3.877083127736410E-102
   33.5350000000000        -2.579465172924062E-102
   33.7250000000000        -1.497860888360977E-101
   33.9150000000000        -3.635947706559533E-101
   34.1050000000000        -7.066867078531185E-101
   34.2950000000000        -1.227387232677475E-100
   34.4850000000000        -1.980550058511597E-100
   34.6750000000000        -3.021746832396088E-100
   34.8650000000000        -4.396186426189046E-100
   35.0550000000000        -6.120173733321605E-100
   35.2450000000000        -8.152656856285452E-100
   35.4350000000000        -1.035446258677391E-099
   35.6250000000000        -1.243343056104674E-099
   35.8150000000000        -1.387515360342974E-099
   36.0050000000000        -1.386181392201932E-099
   36.1950000000000        -1.118610998633793E-099
   36.3850000000000        -4.173908456234773E-100
   36.5750000000000         9.361699692856315E-100
   36.7650000000000         3.210085313863743E-099
   36.9550000000000         6.708463020409629E-099
   37.1450000000000         1.174092973984705E-098
   37.3350000000000         1.856753159676697E-098
   37.5250000000000         2.731149596865422E-098
   37.7150000000000         3.783309326084673E-098
   37.9050000000000         4.956080472917494E-098
   38.0950000000000         6.128208587305995E-098
   38.2850000000000         7.090631410176393E-098
   38.4750000000000         7.522805207961956E-098
   38.6650000000000         6.974021713506061E-098
   38.8550000000000         4.857401549607328E-098
   39.0450000000000         4.674110997247353E-099
   39.2350000000000        -6.965010338521587E-098
   39.4250000000000        -1.816295466629297E-097
   39.6150000000000        -3.362183949283157E-097
   39.8050000000000        -5.333961739520164E-097
   39.9950000000000        -7.644995012109956E-097
   40.1850000000000        -1.007635837277029E-096
   40.3750000000000        -1.222470899588403E-096
   40.5650000000000        -1.345040872643273E-096
   40.7550000000000        -1.283734489561272E-096
   40.9450000000000        -9.182149158857955E-097
   41.1350000000000        -1.037733182553488E-097
   41.3250000000000         1.315654289411647E-096
   41.5150000000000         3.481959597005936E-096
   41.7050000000000         6.480705213077975E-096
   41.8950000000000         1.027860344568876E-095
   42.0850000000000         1.463833711510949E-095
   42.2750000000000         1.901140789640165E-095
   42.4650000000000         2.241472869165602E-095
   42.6550000000000         2.330423134343132E-095
   42.8450000000000         1.946914604068806E-095
   43.0350000000000         7.983790576381613E-096
   43.2250000000000        -1.473091418577491E-095
   43.4150000000000        -5.266785004231319E-095
   43.6050000000000        -1.097333505631024E-094
   43.7950000000000        -1.888948751999364E-094
   43.9850000000000        -2.908883052149259E-094
   44.1750000000000        -4.124178244026990E-094
   44.3650000000000        -5.438298372630544E-094
   44.5550000000000        -6.663272994059076E-094
   44.7450000000000        -7.489210759625274E-094
   44.9350000000000        -7.454971859398701E-094
   45.1250000000000        -5.926150463254479E-094
   45.3150000000000        -2.089363052135373E-094
   45.5050000000000         5.025007444826856E-094
   45.6950000000000         1.647632646796090E-093
   45.8850000000000         3.328560218672350E-093
   46.0750000000000         5.622657782414310E-093
   46.2650000000000         8.551783223020820E-093
   46.4550000000000         1.204022438644882E-092
   46.6450000000000         1.586097708208968E-092
   46.8350000000000         1.957158466167720E-092
   47.0250000000000         2.244326077542250E-092
   47.2150000000000         2.339054815062817E-092
   47.4050000000000         2.091350309876529E-092
   47.5950000000000         1.307045986054290E-092
   47.7850000000000        -2.493146378033452E-093
   47.9750000000000        -2.842576646389049E-092
   48.1650000000000        -6.741694859539599E-092
   48.3550000000000        -1.217578606306107E-091
   48.5450000000000        -1.926547652506076E-091
   48.7350000000000        -2.792325885937697E-091
   48.9250000000000        -3.771731770885840E-091
   49.1150000000000        -4.769580040013189E-091
   49.3050000000000        -5.617393042064947E-091
   49.4950000000000        -6.049624264158864E-091
   49.6850000000000        -5.680252988880372E-091
   49.8750000000000        -3.985106932339010E-091
   50.0650000000000        -2.988450269017956E-092
   50.2550000000000         6.159697320777628E-091
   50.4450000000000         1.621424566073454E-090
   50.6350000000000         3.058396903707701E-090
   50.8250000000000         4.963094060826494E-090
   51.0150000000000         7.296811462396870E-090
   51.2050000000000         9.889827900419316E-090
   51.3950000000000         1.236717060397914E-089
   51.5850000000000         1.405879278622086E-089
   51.7750000000000         1.390345249641549E-089
   51.9650000000000         1.036627672664540E-089
   52.1550000000000         1.405401469818534E-090
   52.3450000000000        -1.545668723890719E-089
   52.5350000000000        -4.287762203761982E-089
   52.7250000000000        -8.315187992608728E-089
   52.9150000000000        -1.372587500191110E-088
   53.1050000000000        -2.033810608916551E-088
   53.2950000000000        -2.748097209163349E-088
   53.4850000000000        -3.372426204089729E-088
   53.6750000000000        -3.656656939404959E-088
   53.8650000000000        -3.212980097463506E-088
   54.0550000000000        -1.495147105499994E-088
   54.2450000000000         2.197637034670316E-088
   54.4350000000000         8.670415704921894E-088
   54.6250000000000         1.870699493910391E-087
   54.8150000000000         3.283509086108694E-087
   55.0050000000000         5.094720563001547E-087
   55.1950000000000         7.175072263085207E-087
   55.3850000000000         9.204411803187342E-087
   55.5750000000000         1.058615558939748E-086
   55.7650000000000         1.036024654079391E-086
   55.9550000000000         7.137109767740775E-087
   56.1450000000000        -9.106377671814925E-088
   56.3350000000000        -1.594523190054567E-086
   56.5250000000000        -4.017930828923793E-086
   56.7150000000000        -7.532753284384696E-086
   56.9050000000000        -1.217117054328253E-085
   57.0950000000000        -1.769590104811036E-085
   57.2850000000000        -2.342912481534817E-085
   57.4750000000000        -2.805120100021189E-085
   57.6650000000000        -2.939729238317417E-085
   57.8550000000000        -2.430475261399465E-085
   58.0450000000000        -8.595717092826808E-086
   58.2350000000000         2.268501883445020E-085
   58.4250000000000         7.462332996575324E-085
   58.6150000000000         1.512066256329444E-084
   58.8050000000000         2.533484450620942E-084
   58.9950000000000         3.760657252112215E-084
   59.1850000000000         5.048510481375420E-084
   59.3750000000000         6.115353874218624E-084
   59.5650000000000         6.503239096542813E-084
   59.7550000000000         5.552160208377732E-084
   59.9450000000000         2.406669106341383E-084
   60.1350000000000        -3.919650184157553E-084
   60.3250000000000        -1.439063836724515E-083
   60.5150000000000        -2.967156583234836E-083
   60.7050000000000        -4.970232333651014E-083
   60.8950000000000        -7.310832343474771E-083
   61.0850000000000        -9.647177678244082E-083
   61.2750000000000        -1.135426483424257E-082
   61.4650000000000        -1.145513485443205E-082
   61.6550000000000        -8.589372699472652E-083
   61.8450000000000        -1.058574947170305E-083
   62.0350000000000         1.299881006378155E-082
   62.2250000000000         3.524157523054287E-082
   62.4150000000000         6.650640709442605E-082
   62.6050000000000         1.058879309311618E-081
   62.7950000000000         1.495111636626871E-081
   62.9850000000000         1.890645745055863E-081
   63.1750000000000         2.102812959783843E-081
   63.3650000000000         1.917247746624587E-081
   63.5550000000000         1.044501791919009E-081
   63.7450000000000        -8.664318542774264E-082
   63.9350000000000        -4.187189675302781E-081
   64.1250000000000        -9.229632856367105E-081
   64.3150000000000        -1.611409714787119E-080
   64.5050000000000        -2.457777544134447E-080
   64.6950000000000        -3.372287712951955E-080
   64.8850000000000        -4.171899446492754E-080
   65.0750000000000        -4.549710582029761E-080
   65.2650000000000        -4.050469796885697E-080
   65.4550000000000        -2.063189658895251E-080
   65.6450000000000         2.153598796555651E-080
   65.8350000000000         9.394042418883726E-080
   66.0250000000000         2.035170878362071E-079
   66.2150000000000         3.536810876636627E-079
   66.4050000000000         5.406587172943224E-079
   66.5950000000000         7.486345834862122E-079
   66.7850000000000         9.439376533232698E-079
   66.9750000000000         1.068886501808156E-078
   67.1650000000000         1.036468158464059E-078
   67.3550000000000         7.277272210872094E-079
   67.5450000000000        -5.457328574032283E-081
   67.7350000000000        -1.328739246540224E-078
   67.9250000000000        -3.400751922575080E-078
   68.1150000000000        -6.331446665202090E-078
   68.3050000000000        -1.011985319136439E-077
   68.4950000000000        -1.456980921775894E-077
   68.6850000000000        -1.918601276567391E-077
   68.8750000000000        -2.305880311525732E-077
   69.0650000000000        -2.475466458778960E-077
   69.2550000000000        -2.224051921442888E-077
   69.4450000000000        -1.288280738755261E-077
   69.6350000000000         6.424305677394371E-078
   69.8250000000000         3.893607009639350E-077
   70.0150000000000         8.746893957609982E-077
   70.2050000000000         1.534824285719239E-076
   70.3950000000000         2.357903940050741E-076
   70.5850000000000         3.289101193458800E-076
   70.7750000000000         4.211387052839924E-076
   70.9650000000000         4.925646490272152E-076
   71.1550000000000         5.133790984779330E-076
   71.3450000000000         4.430399304541638E-076
   71.5350000000000         2.310457414647847E-076
   71.7250000000000        -1.797349399627537E-076
   71.9150000000000        -8.461097012681370E-076
   72.1050000000000        -1.812921051888344E-075
   72.2950000000000        -3.095878768309203E-075
   72.4850000000000        -4.658563660487200E-075
   72.6750000000000        -6.384250443476911E-075
   72.8650000000000        -8.044641579672598E-075
   73.0550000000000        -9.269580110011967E-075
   73.2450000000000        -9.524275886809052E-075
   73.4350000000000        -8.103373252883323E-075
   73.6250000000000        -4.153980049492764E-075
   73.8150000000000         3.257967888424275E-075
   74.0050000000000         1.502268479932111E-074
   74.1950000000000         3.178889284424532E-074
   74.3850000000000         5.368444880284102E-074
   74.5750000000000         7.995573479914435E-074
   74.7650000000000         1.085418163171679E-073
   74.9550000000000         1.356215315526013E-073
   75.1450000000000         1.552004642062478E-073
   75.3350000000000         1.588389030590181E-073
   75.5250000000000         1.356583935726031E-073
   75.7150000000000         7.279808699102947E-074
   75.9050000000000        -4.348507400398563E-074
   76.0950000000000        -2.258768221447393E-073
   76.2850000000000        -4.830640817227524E-073
   76.4750000000000        -8.157107375251474E-073
   76.6650000000000        -1.211414863268729E-072
   76.8550000000000        -1.638931215439331E-072
   77.0450000000000        -2.042241799242955E-072
   77.2350000000000        -2.335429287846837E-072
   77.4250000000000        -2.399730064045950E-072
   77.6150000000000        -2.084570763468127E-072
   77.8050000000000        -1.214752994467630E-072
   77.9950000000000         3.938551775390463E-073
   78.1850000000000         2.907864064058369E-072
   78.3750000000000         6.437434269966222E-072
   78.5650000000000         1.098431864047128E-071
   78.7550000000000         1.637821787076853E-071
   78.9450000000000         2.220553964760771E-071
   79.1350000000000         2.773825088568514E-071
   79.3250000000000         3.187483442812438E-071
   79.5150000000000         3.311008108654935E-071
   79.7050000000000         2.955499707921958E-071
   79.8950000000000         1.903163703569380E-071
   80.0850000000000        -7.309561507403930E-073
   80.2750000000000        -3.177571034636524E-071
   80.4650000000000        -7.545469985103163E-071
   80.6550000000000        -1.318218604820280E-070
   80.8450000000000        -1.989005792239826E-070
   81.0350000000000        -2.718762285666857E-070
   81.2250000000000        -3.423028601989032E-070
   81.4150000000000        -3.974590003515336E-070
   81.6050000000000        -4.200359665631629E-070
   81.7950000000000        -3.883870864346153E-070
   81.9850000000000        -2.775986844130104E-070
   82.1750000000000        -6.165209630785499E-071
   82.3650000000000         2.830835326646858E-070
   82.5550000000000         7.728702607166299E-070
   82.7450000000000         1.410124307801604E-069
   82.9350000000000         2.175663036963714E-069
   83.1250000000000         3.020207166639920E-069
   83.3150000000000         3.856058155454267E-069
   83.5050000000000         4.550316788747600E-069
   83.6950000000000         4.921473351994748E-069
   83.8850000000000         4.741621121744391E-069
   84.0750000000000         3.746838125622734E-069
   84.2650000000000         1.658339406925116E-069
   84.4550000000000        -1.783302060260874E-069
   84.6450000000000        -6.769366056559335E-069
   84.8350000000000        -1.335954471679089E-068
   85.0250000000000        -2.140589740774941E-068
   85.2150000000000        -3.046912202943924E-068
   85.4050000000000        -3.973562522794440E-068
   85.5950000000000        -4.794793434126473E-068
   85.7850000000000        -5.336520369841576E-068
   85.9750000000000        -5.377438979443778E-068
   86.1650000000000        -4.657536766628329E-068
   86.3550000000000        -2.896391170949700E-068
   86.5450000000000         1.765996779609445E-069
   86.7350000000000         4.778576819225732E-068
   86.9250000000000         1.101589193985305E-067
   87.1150000000000         1.881461661599697E-067
   87.3050000000000         2.784285880888195E-067
   87.4950000000000         3.743189364052587E-067
   87.6850000000000         4.650660028787320E-067
   87.8750000000000         5.353935266773777E-067
   88.0650000000000         5.654491215580248E-067
   88.2550000000000         5.313643013365251E-067
   88.4450000000000         4.066364943722443E-067
   88.6350000000000         1.645294004300416E-067
   88.8250000000000        -2.183599839963458E-067
   89.0150000000000        -7.573096004477359E-067
   89.2050000000000        -1.453537218394488E-066
   89.3950000000000        -2.287395573551012E-066
   89.5850000000000        -3.211214329068354E-066
   89.7750000000000        -4.142589620436164E-066
   89.9650000000000        -4.959228028398587E-066
   90.1550000000000        -5.496749022615173E-066
   90.3450000000000        -5.551094970740238E-066
   90.5350000000000        -4.887335153495798E-066
   90.7250000000000        -3.256613862990677E-066
   90.9150000000000        -4.227101504467120E-067
   91.1050000000000         3.800924170605780E-066
   91.2950000000000         9.503763836023408E-066
   91.4850000000000         1.662196672144801E-065
   91.6750000000000         2.487663879231659E-065
   91.8650000000000         3.371216792647945E-065
   92.0550000000000         4.224265678578832E-065
   92.2450000000000         4.921701192445168E-065
   92.4350000000000         5.301553211810881E-065
   92.6250000000000         5.169248578445043E-065
   92.8150000000000         4.307968611070005E-065
   93.0050000000000         2.496490473471977E-065
   93.1950000000000        -4.644476231592119E-066
   93.3850000000000        -4.716844178812461E-065
   93.5750000000000        -1.030173495189834E-064
   93.7650000000000        -1.710893671326299E-064
   93.9550000000000        -2.482370951646924E-064
   94.1450000000000        -3.287572098557641E-064
   94.3350000000000        -4.039775601502475E-064
   94.5250000000000        -4.620363390633692E-064
   94.7150000000000        -4.879650155991674E-064
   94.9050000000000        -4.641971785446119E-064
   95.0950000000000        -3.716251590334629E-064
   95.2850000000000        -1.913106801031421E-064
   95.4750000000000         9.307980584876430E-065
   95.6650000000000         4.921041139621816E-064
   95.8550000000000         1.006713348664883E-063
   96.0450000000000         1.623951058441822E-063
   96.2350000000000         2.312512439904363E-063
   96.4250000000000         3.018652191565509E-063
   96.6150000000000         3.663095557058153E-063
   96.8050000000000         4.139762848612980E-063
   96.9950000000000         4.317239745386087E-063
   97.1850000000000         4.043984588417018E-063
   97.3750000000000         3.158225853984008E-063
   97.5650000000000         1.503331811384028E-063
   97.7550000000000        -1.050904864301787E-063
   97.9450000000000        -4.581160889811446E-063
   98.1350000000000        -9.078497641345001E-063
   98.3250000000000        -1.441310155648894E-062
   98.5150000000000        -2.029879521121029E-062
   98.7050000000000        -2.626152361247619E-062
   98.8950000000000        -3.161729135579188E-062
   99.0850000000000        -3.546615971162134E-062
   99.2750000000000        -3.670971382194310E-062
   99.4650000000000        -3.409964509956857E-062
   99.6550000000000        -2.632450197267025E-062
   99.8450000000000        -1.213997683151725E-062
   100.035000000000         9.454923781037780E-063
   100.225000000000         3.899801370716978E-062
   100.415000000000         7.630867151828275E-062
   100.605000000000         1.202131034174252E-061
   100.795000000000         1.682748109729174E-061
   100.985000000000         2.165643226325405E-061
   101.175000000000         2.595113352220972E-061
   101.365000000000         2.898900173670318E-061
   101.555000000000         2.989928583447515E-061
   101.745000000000         2.770483760453074E-061
   101.935000000000         2.139313788003800E-061
   102.125000000000         1.001995123972916E-061
   102.315000000000        -7.153499446458331E-062
   102.505000000000        -3.049250816819528E-061
   102.695000000000        -5.979732315288224E-061
   102.885000000000        -9.410096158373263E-061
   103.075000000000        -1.314755972335628E-060
   103.265000000000        -1.688732064449794E-060
   103.455000000000        -2.020321857168364E-060
   103.645000000000        -2.254863470585726E-060
   103.835000000000        -2.327150062380759E-060
   104.025000000000        -2.164716341274170E-060
   104.215000000000        -1.693225411662409E-060
   104.405000000000        -8.441520276317499E-061
   104.595000000000         4.352274147063507E-061
   104.785000000000         2.169784729879678E-060
   104.975000000000         4.343001766561521E-060
   105.165000000000         6.882899287290300E-060
   105.355000000000         9.648806578794934E-060
   105.545000000000         1.242076593903016E-059
   105.735000000000         1.489374229404313E-059
   105.925000000000         1.667908185182393E-059
   106.115000000000         1.731576718032021E-059
   106.305000000000         1.629387610183963E-059
   106.495000000000         1.309219553714315E-059
   106.685000000000         7.231104801572724E-060
   106.875000000000        -1.659419504538155E-060
   107.065000000000        -1.375852803462287E-059
   107.255000000000        -2.896392021313856E-059
   107.445000000000        -4.679837832211729E-059
   107.635000000000        -6.632246294440468E-059
   107.825000000000        -8.606501934490533E-059
   108.015000000000        -1.039854226282405E-058
   108.205000000000        -1.174830883711869E-058
   108.395000000000        -1.234702861888611E-058
   108.585000000000        -1.185232811850362E-058
   108.775000000000        -9.912386753163512E-059
   108.965000000000        -6.199808283143988E-059
   109.155000000000        -4.551051050082387E-060
   109.345000000000         7.461357296571173E-059
   109.535000000000         1.751140112802515E-058
   109.725000000000         2.941899580000562E-058
   109.915000000000         4.261366626785691E-058
   110.105000000000         5.618445767642874E-058