  -1.42500000000000         0.000000000000000E+000
  -1.23500000000000         0.000000000000000E+000
  -1.04500000000000         0.000000000000000E+000
 -0.855000000000000         0.000000000000000E+000
 -0.665000000000000         0.000000000000000E+000
 -0.475000000000000         0.000000000000000E+000
 -0.285000000000000         0.000000000000000E+000
 -9.499999999999975E-002    0.000000000000000E+000
  9.500000000000020E-002    0.000000000000000E+000
  0.285000000000000         0.000000000000000E+000
  0.475000000000000         0.000000000000000E+000
  0.665000000000000         0.000000000000000E+000
  0.855000000000000         0.000000000000000E+000
   1.04500000000000         0.000000000000000E+000
   1.23500000000000         0.000000000000000E+000
   1.42500000000000         0.000000000000000E+000
   1.61500000000000         0.000000000000000E+000
   1.80500000000000         0.000000000000000E+000
   1.99500000000000         0.000000000000000E+000
   2.18500000000000         0.000000000000000E+000
   2.37500000000000         0.000000000000000E+000
   2.56500000000000         0.000000000000000E+000
   2.75500000000000         0.000000000000000E+000
   2.94500000000000         0.000000000000000E+000
   3.13500000000000         0.000000000000000E+000
   3.32500000000000         0.000000000000000E+000
   3.51500000000000         0.000000000000000E+000
   3.70500000000000         0.000000000000000E+000
   3.89500000000000         0.000000000000000E+000
   4.08500000000000         0.000000000000000E+000
   4.27500000000000         0.000000000000000E+000
   4.46500000000000         0.000000000000000E+000
   4.65500000000000         0.000000000000000E+000
   4.84500000000000         0.000000000000000E+000
   5.03500000000000         0.000000000000000E+000
   5.22500000000000         0.000000000000000E+000
   5.41500000000000         0.000000000000000E+000
   5.60500000000000         0.000000000000000E+000
   5.79500000000000         0.000000000000000E+000
   5.98500000000000         0.000000000000000E+000
   6.17500000000000         0.000000000000000E+000
   6.36500000000000         2.472167740894659E-181
   6.55500000000000        -2.528138402559955E-175
   6.74500000000000        -2.119504462764852E-173
   6.93500000000000        -3.290774394586495E-170
   7.12500000000000        -2.369384262497684E-168
   7.31500000000000        -5.389178494415141E-167
   7.50500000000000         7.856676175760913E-166
   7.69500000000000         9.212309757818098E-164
   7.88500000000000         3.425472108193614E-162
   8.07500000000000         8.556342160748095E-161
   8.26500000000000         1.659145385956460E-159
   8.45500000000000         2.659215405428991E-158
   8.64500000000000         3.651375497481275E-157
   8.83500000000000         4.397731400984152E-156
   9.02500000000000         4.724949194658334E-155
   9.21500000000000         4.586778500617532E-154
   9.40500000000000         4.063737487615833E-153
   9.59500000000000         3.312727763910134E-152
   9.78500000000000         2.501569773059682E-151
   9.97500000000000         1.759808773492383E-150
   10.1650000000000         1.158879223340813E-149
   10.3550000000000         7.173489483195364E-149
   10.5450000000000         4.188901612519356E-148
   10.7350000000000         2.314739499967305E-147
   10.9250000000000         1.213718054291349E-146
   11.1150000000000         6.053099372201995E-146
   11.3050000000000         2.877258471004412E-145
   11.4950000000000         1.305860200751406E-144
   11.6850000000000         5.667540153455254E-144
   11.8750000000000         2.355206743287603E-143
   12.0650000000000         9.381042130334054E-143
   12.2550000000000         3.584298899628755E-142
   12.4450000000000         1.314367824714808E-141
   12.6350000000000         4.626885055348125E-141
   12.8250000000000         1.563387343454143E-140
   13.0150000000000         5.067652090441385E-140
   13.2050000000000         1.574028732540991E-139
   13.3950000000000         4.675535532943140E-139
   13.5850000000000         1.323959840997817E-138
   13.7750000000000         3.555409544729464E-138
   13.9650000000000         8.976275089697836E-138
   14.1550000000000         2.097492044910962E-137
   14.3450000000000         4.394559013364473E-137
   14.5350000000000         7.618059766325554E-137
   14.7250000000000         7.761732881714789E-137
   14.9150000000000        -1.443980379997498E-136
   15.1050000000000        -1.290623519362953E-135
   15.2950000000000        -5.583657993623010E-135
   15.4850000000000        -1.946946707603298E-134
   15.6750000000000        -6.042080118316937E-134
   15.8650000000000        -1.732455648029797E-133
   16.0550000000000        -4.675051519588110E-133
   16.2450000000000        -1.200134138685359E-132
   16.4350000000000        -2.952109749084823E-132
   16.6250000000000        -6.997401497812386E-132
   16.8150000000000        -1.606398613592113E-131
   17.0050000000000        -3.590596209794452E-131
   17.1950000000000        -7.860308350827956E-131
   17.3850000000000        -1.696683884695434E-130
   17.5750000000000        -3.637870194061815E-130
   17.7650000000000        -7.803527935894765E-130
   17.9550000000000        -1.684117015974068E-129
   18.1450000000000        -3.666271549009348E-129
   18.3350000000000        -8.041070500588732E-129
   18.5250000000000        -1.768331837479204E-128
   18.7150000000000        -3.871570366517651E-128
   18.9050000000000        -8.371823622644472E-128
   19.0950000000000        -1.774138315529838E-127
   19.2850000000000        -3.658518082817627E-127
   19.4750000000000        -7.293932467713288E-127
   19.6650000000000        -1.397220344811527E-126
   19.8550000000000        -2.555182969885214E-126
   20.0450000000000        -4.428987641983137E-126
   20.2350000000000        -7.215882285868939E-126
   20.4250000000000        -1.095267449058532E-125
   20.6150000000000        -1.541510644553895E-125
   20.8050000000000        -2.051830278143038E-125
   20.9950000000000        -2.872352382972855E-125
   21.1850000000000        -5.345465746713411E-125
   21.3750000000000        -1.429826389097222E-124
   21.5650000000000        -4.401794270882681E-124
   21.7550000000000        -1.318805287627460E-123
   21.9450000000000        -3.671478957591539E-123
   22.1350000000000        -9.477637310531539E-123
   22.3250000000000        -2.285130804656754E-122
   22.5150000000000        -5.184409562963328E-122
   22.7050000000000        -1.113135218007735E-121
   22.8950000000000        -2.270601167149756E-121
   23.0850000000000        -4.410021789825689E-121
   23.2750000000000        -8.161048414644385E-121
   23.4650000000000        -1.437750183790083E-120
   23.6550000000000        -2.404965241486372E-120
   23.8450000000000        -3.800683594279350E-120
   24.0350000000000        -5.626680035485162E-120
   24.2250000000000        -7.690533593018020E-120
   24.4150000000000        -9.448298047210446E-120
   24.6050000000000        -9.853193648337940E-120
   24.7950000000000        -7.358118493958912E-120
   24.9850000000000        -3.827632623453950E-121
   25.1750000000000         1.123901522467835E-119
   25.3650000000000         2.320745440820437E-119
   25.5550000000000         2.187449694494206E-119
   25.7450000000000        -2.082028127620310E-119
   25.9350000000000        -1.455748800667119E-118
   26.1250000000000        -3.774190980084588E-118
   26.3150000000000        -6.246493911696237E-118
   26.5050000000000        -4.080272402336186E-118
   26.6950000000000         1.766300955364904E-117
   26.8850000000000         9.722492436361757E-117
   27.0750000000000         3.216772240710190E-116
   27.2650000000000         8.731163968497540E-116
   27.4550000000000         2.106705604891585E-115
   27.6450000000000         4.672929936463142E-115
   27.8350000000000         9.691812888096183E-115
   28.0250000000000         1.896806756657627E-114
   28.2150000000000         3.518770703311614E-114
   28.4050000000000         6.193171149725347E-114
   28.5950000000000         1.031376834693008E-113
   28.7850000000000         1.612710192273824E-113
   28.9750000000000         2.328435454505366E-113
   29.1650000000000         2.989317019464095E-113
   29.3550000000000         3.068973292886633E-113
   29.5450000000000         1.375755088780674E-113
   29.7350000000000        -4.500421831246371E-113
   29.9250000000000        -1.906446289222677E-112
   30.1150000000000        -5.021166398140388E-112
   30.3050000000000        -1.109807627822101E-111
   30.4950000000000        -2.216242485541514E-111
   30.6850000000000        -4.114424460913139E-111
   30.8750000000000        -7.189948183996073E-111
   31.0650000000000        -1.187769044914297E-110
   31.2550000000000        -1.851766712011458E-110
   31.4450000000000        -2.701274820524572E-110
   31.6350000000000        -3.612862133940277E-110
   31.8250000000000        -4.219153538140253E-110
   32.0150000000000        -3.683764195468428E-110
   32.2050000000000        -3.372551056916646E-111
   32.3950000000000         8.873129620870849E-110
   32.5850000000000         2.915207039535946E-109
   32.7750000000000         6.882039023150732E-109
   32.9650000000000         1.403215234190122E-108
   33.1550000000000         2.608548918843760E-108
   33.3450000000000         4.517487491191268E-108
   33.5350000000000         7.349027122638301E-108
   33.7250000000000         1.123430287585851E-107
   33.9150000000000         1.601937590994831E-107
   34.1050000000000         2.089718831292004E-107
   34.2950000000000         2.377815536617500E-107
   34.4850000000000         2.029140252366892E-107
   34.6750000000000         2.312967443031085E-108
   34.8650000000000        -4.402784507490067E-107
   35.0550000000000        -1.407602007390080E-106
   35.2450000000000        -3.204768086172140E-106
   35.4350000000000        -6.277213108645017E-106
   35.6250000000000        -1.117377323928501E-105
   35.8150000000000        -1.846605433108160E-105
   36.0050000000000        -2.854821117447843E-105
   36.1950000000000        -4.123624061725484E-105
   36.3850000000000        -5.505798286973697E-105
   36.5750000000000        -6.610307044097512E-105
   36.7650000000000        -6.630186770535480E-105
   36.9550000000000        -4.105115135964761E-105
   37.1450000000000         3.375593331541624E-105
   37.3350000000000         1.949474609088599E-104
   37.5250000000000         4.946715126912879E-104
   37.7150000000000         1.000678148185206E-103
   37.9050000000000         1.791365564711868E-103
   38.0950000000000         2.941033461233599E-103
   38.2850000000000         4.488815958304805E-103
   38.4750000000000         6.382755922336172E-103
   38.6650000000000         8.389065572221493E-103
   38.8550000000000         9.956930447817379E-103
   39.0450000000000         1.003306284660195E-102
   39.2350000000000         6.830207305188700E-103
   39.4250000000000        -2.426632034785396E-103
   39.6150000000000        -2.171933697567805E-102
   39.8050000000000        -5.631367784381076E-102
   39.9950000000000        -1.125160625607909E-101
   40.1850000000000        -1.968424206865160E-101
   40.3750000000000        -3.142311275164230E-101
   40.5650000000000        -4.648395623204203E-101
   40.7550000000000        -6.389154150504826E-101
   40.9450000000000        -8.092868090662922E-101
   41.1350000000000        -9.212534019472409E-101
   41.3250000000000        -8.801941790309325E-101
   41.5150000000000        -5.381669493319967E-101
   41.7050000000000         3.177084725249114E-101
   41.8950000000000         1.970118354852242E-100
   42.0850000000000         4.761872314452918E-100
   42.2750000000000         9.060531002365949E-100
   42.4650000000000         1.518281103146090E-099
   42.6550000000000         2.326162065146107E-099
   42.8450000000000         3.303809660507877E-099
   43.0350000000000         4.356459050117554E-099
   43.2250000000000         5.281468076320873E-099
   43.4150000000000         5.721582384522414E-099
   43.6050000000000         5.115201001234783E-099
   43.7950000000000         2.652976556561143E-099
   43.9850000000000        -2.743881833959512E-099
   44.1750000000000        -1.240107739015939E-098
   44.3650000000000        -2.779445051405585E-098
   44.5550000000000        -5.034252596496339E-098
   44.7450000000000        -8.104868143786490E-098
   44.9350000000000        -1.199557881074456E-097
   45.1250000000000        -1.653874840418917E-097
   45.3150000000000        -2.129728980627691E-097
   45.5050000000000        -2.544869164127753E-097
   45.6950000000000        -2.765847045867227E-097
   45.8850000000000        -2.595620982805053E-097
   46.0750000000000        -1.763230525177677E-097
   46.2650000000000         8.231986576457825E-099
   46.4550000000000         3.371815788273757E-097
   46.6450000000000         8.607456318337785E-097
   46.8350000000000         1.634524714527915E-096
   47.0250000000000         2.716754443845503E-096
   47.2150000000000         4.164431666424208E-096
   47.4050000000000         6.027759729952250E-096
   47.5950000000000         8.341315311190417E-096
   47.7850000000000         1.110824445030860E-095
   47.9750000000000         1.427017574845435E-095
   48.1650000000000         1.764998493634339E-095
   48.3550000000000         2.084696041703586E-095
   48.5450000000000         2.305493081214211E-095
   48.7350000000000         2.276548340616397E-095
   48.9250000000000         1.731463121400391E-095
   49.1150000000000         2.239373488638955E-096
   49.3050000000000        -2.955825679627106E-095
   49.4950000000000        -8.877210776998433E-095
   49.6850000000000        -1.905815850606929E-094
   49.8750000000000        -3.550647161991269E-094
   50.0650000000000        -6.064208642546078E-094
   50.2550000000000        -9.698756523520298E-094
   50.4450000000000        -1.464643008257321E-093
   50.6350000000000        -2.090808155206181E-093
   50.8250000000000        -2.807618718745526E-093
   51.0150000000000        -3.500686782977573E-093
   51.2050000000000        -3.936412433647540E-093
   51.3950000000000        -3.704101137913055E-093
   51.5850000000000        -2.150479950719854E-093
   51.7750000000000         1.681568342439645E-093
   51.9650000000000         9.087480447997853E-093
   52.1550000000000         2.167129750331947E-092
   52.3450000000000         4.119578583984007E-092
   52.5350000000000         6.923581404354779E-092
   52.7250000000000         1.065397014107161E-091
   52.9150000000000         1.519935659449411E-091
   53.1050000000000         2.010943134677585E-091
   53.2950000000000         2.438839870446537E-091
   53.4850000000000         2.624028084107078E-091
   53.6750000000000         2.279050666055765E-091
   53.8650000000000         9.837586164561942E-092
   54.0550000000000        -1.826940647378043E-091
   54.2450000000000        -6.847725026703344E-091
   54.4350000000000        -1.483845836581358E-090
   54.6250000000000        -2.648282915062274E-090
   54.8150000000000        -4.213717413652664E-090
   55.0050000000000        -6.143594913668164E-090
   55.1950000000000        -8.272781618085597E-090
   55.3850000000000        -1.023372725310647E-089
   55.5750000000000        -1.136874944085984E-089
   55.7650000000000        -1.063873255981503E-089
   55.9550000000000        -6.548479779547302E-090
   56.1450000000000         2.877644877368294E-090
   56.3350000000000         2.001974522437637E-089
   56.5250000000000         4.741823628021456E-089
   56.7150000000000         8.727770271620215E-089
   56.9050000000000         1.406264804386961E-088
   57.0950000000000         2.060470043946268E-088
   57.2850000000000         2.779265319600721E-088
   57.4750000000000         3.442537472561579E-088
   57.6650000000000         3.841195020168965E-088
   57.8550000000000         3.652838584159467E-088
   58.0450000000000         2.424552753238812E-088
   58.2350000000000        -4.271255448127241E-089
   58.4250000000000        -5.584902332067051E-088
   58.6150000000000        -1.374988898203270E-087
   58.8050000000000        -2.549008660479972E-087
   58.9950000000000        -4.099675869076081E-087
   59.1850000000000        -5.973181428087616E-087
   59.3750000000000        -7.996148547039745E-087
   59.5650000000000        -9.819448709569696E-087
   59.7550000000000        -1.085795628472256E-086
   59.9450000000000        -1.023700857231192E-086
   60.1350000000000        -6.763243084758587E-087
   60.3250000000000         1.054316400762143E-087
   60.5150000000000         1.489844653882100E-086
   60.7050000000000         3.641134871815847E-086
   60.8950000000000         6.679040003417335E-086
   61.0850000000000         1.061708623941866E-085
   61.2750000000000         1.527709684755738E-085
   61.4650000000000         2.018094756019864E-085
   61.6550000000000         2.442643281130593E-085
   61.8450000000000         2.656282579412123E-085
   62.0350000000000         2.449348987247575E-085
   62.2250000000000         1.544738548866882E-085
   62.4150000000000        -3.922677830199550E-086
   62.6050000000000        -3.724206771378840E-085
   62.7950000000000        -8.783335515369104E-085
   62.9850000000000        -1.577693383337942E-084
   63.1750000000000        -2.464955182435058E-084
   63.3650000000000        -3.490032492715038E-084
   63.5550000000000        -4.536176524769470E-084
   63.7450000000000        -5.395931377782120E-084
   63.9350000000000        -5.748892774412043E-084
   64.1250000000000        -5.147288870285760E-084
   64.3150000000000        -3.018048187452185E-084
   64.5050000000000         1.307285910423775E-084
   64.6950000000000         8.521224366088249E-084
   64.8850000000000         1.921308876135479E-083
   65.0750000000000         3.367280118843091E-083
   65.2650000000000         5.161780796161255E-083
   65.4550000000000         7.184559799606822E-083
   65.6450000000000         9.183128949049777E-083
   65.8350000000000         1.073144896316049E-082
   66.0250000000000         1.119522940527553E-082
   66.2150000000000         9.715462891870039E-083
   66.4050000000000         5.226069442454536E-083
   66.5950000000000        -3.474537443600199E-083
   66.7850000000000        -1.757554152846155E-082
   66.9750000000000        -3.800717516188056E-082
   67.1650000000000        -6.507789224451217E-082
   67.3550000000000        -9.798889512717187E-082
   67.5450000000000        -1.342396737587774E-081
   67.7350000000000        -1.689688119767602E-081
   67.9250000000000        -1.943164061290336E-081
   68.1150000000000        -1.989472981299482E-081
   68.3050000000000        -1.679346505655266E-081
   68.4950000000000        -8.326430833988863E-082
   68.6850000000000         7.472951296175821E-082
   68.8750000000000         3.246640319191673E-081
   69.0650000000000         6.798368082649067E-081
   69.2550000000000         1.142180058283259E-080
   69.4450000000000         1.694444063498618E-080
   69.6350000000000         2.290952454753162E-080
   69.8250000000000         2.847762066136640E-080
   70.0150000000000         3.233703385585209E-080
   70.2050000000000         3.264549765616204E-080
   70.3950000000000         2.703400432796213E-080
   70.5850000000000         1.271148069231247E-080
   70.7750000000000        -1.328541637638904E-080
   70.9650000000000        -5.365228663944349E-080
   71.1550000000000        -1.101486542186130E-079
   71.3450000000000        -1.826815558613608E-079
   71.5350000000000        -2.681545623604380E-079
   71.7250000000000        -3.591469906269635E-079
   71.9150000000000        -4.425588864898353E-079
   72.1050000000000        -4.984467801601244E-079
   72.2950000000000        -4.993783072249030E-079
   72.4850000000000        -4.107402005240163E-079
   72.6750000000000        -1.925267697254361E-079
   72.8650000000000         1.968100463894113E-079
   73.0550000000000         7.938853290744470E-079
   73.2450000000000         1.620844817392174E-078
   73.4350000000000         2.672613384063892E-078
   73.6250000000000         3.901250287292036E-078
   73.8150000000000         5.198434485618950E-078
   74.0050000000000         6.378039075917629E-078
   74.1950000000000         7.161897630096771E-078
   74.3850000000000         7.173138806326973E-078
   74.5750000000000         5.942723378191634E-078
   74.7650000000000         2.935832841488120E-078
   74.9550000000000        -2.394784330837788E-078
   75.1450000000000        -1.052190383896677E-077
   75.3350000000000        -2.171867231258421E-077
   75.5250000000000        -3.589435811870695E-077
   75.7150000000000        -5.239632751862543E-077
   75.9050000000000        -6.979236716409012E-077
   76.0950000000000        -8.565890059283826E-077
   76.2850000000000        -9.641425734153953E-077
   76.4750000000000        -9.725089073899086E-077
   76.6650000000000        -8.223446699190741E-077
   76.8550000000000        -4.464832189991904E-077
   77.0450000000000         2.233478720091462E-077
   77.2350000000000         1.245799649175964E-076
   77.4250000000000         2.654678983819322E-076
   77.6150000000000         4.439214708147770E-076
   77.8050000000000         6.520531550430190E-076
   77.9950000000000         8.726073566521019E-076
   78.1850000000000         1.076502121223726E-075
   78.3750000000000         1.220926897612444E-075
   78.5650000000000         1.248614633601816E-075
   78.7550000000000         1.089056251593760E-075
   78.9450000000000         6.625328995890979E-076
   79.1350000000000        -1.121339591748721E-076
   79.3250000000000        -1.305321157539891E-075
   79.5150000000000        -2.959329143378133E-075
   79.7050000000000        -5.066121047140447E-075
   79.8950000000000        -7.540912102053622E-075
   80.0850000000000        -1.019355737656950E-074
   80.2750000000000        -1.270108370112762E-074
   80.4650000000000        -1.458632767526772E-074
   80.6550000000000        -1.520933683781768E-074
   80.8450000000000        -1.377974115435191E-074
   81.0350000000000        -9.399387705179822E-075
   81.2250000000000        -1.144739145695924E-075
   81.4150000000000         1.180262670282391E-074
   81.6050000000000         2.997214944223952E-074
   81.7950000000000         5.336728209526177E-074
   81.9850000000000         8.118392111182883E-074
   82.1750000000000         1.115042124048993E-073
   82.3650000000000         1.409999020016240E-073
   82.5550000000000         1.646957763134503E-073
   82.7450000000000         1.758608677114774E-073
   82.9350000000000         1.661107613483898E-073
   83.1250000000000         1.258153921744700E-073
   83.3150000000000         4.490913123662386E-074
   83.5050000000000        -8.581105086301665E-074
   83.6950000000000        -2.728431631571209E-073
   83.8850000000000        -5.175905324945445E-073
   84.0750000000000        -8.135026705516546E-073
   84.2650000000000        -1.142934586015050E-072
   84.4550000000000        -1.474050361310711E-072
   84.6450000000000        -1.758255875563717E-072
   84.8350000000000        -1.928812731479740E-072
   85.0250000000000        -1.901439974014639E-072
   85.2150000000000        -1.577822852359647E-072
   85.4050000000000        -8.529811279002875E-073
   85.5950000000000         3.726411712404665E-073
   85.7850000000000         2.175765292023042E-072
   85.9750000000000         4.587428722065586E-072
   86.1650000000000         7.565317468113216E-072
   86.3550000000000         1.096291231279669E-071
   86.5450000000000         1.449835715346162E-071
   86.7350000000000         1.772743899733729E-071
   86.9250000000000         2.002664250455728E-071
   87.1150000000000         2.059372406001275E-071
   87.3050000000000         1.847438243824915E-071
   87.4950000000000         1.262405157364970E-071
   87.6850000000000         2.013209342143620E-072
   87.8750000000000        -1.421754773787794E-071
   88.0650000000000        -3.655049377158642E-071
   88.2550000000000        -6.483602173073454E-071
   88.4450000000000        -9.800318659931154E-071
   88.6350000000000        -1.337598245795670E-070
   88.8250000000000        -1.683197314974582E-070
   89.0150000000000        -1.962086041299113E-070
   89.2050000000000        -2.102141599394118E-070
   89.3950000000000        -2.015568754392722E-070
   89.5850000000000        -1.603632938775745E-070
   89.7750000000000        -7.652046700310170E-071
   89.9650000000000         5.902590739714224E-071
   90.1550000000000         2.524994057938968E-070
   90.3450000000000         5.050683779268703E-070
   90.5350000000000         8.102636523683714E-070
   90.7250000000000         1.151227315629817E-069
   90.9150000000000         1.498093561764823E-069
   91.1050000000000         1.805925407764917E-069
   91.2950000000000         2.013752505728901E-069
   91.4850000000000         2.045357977464274E-069
   91.6750000000000         1.812523380927466E-069
   91.8650000000000         1.221433109051848E-069
   92.0550000000000         1.828321630559044E-070
   92.2450000000000        -1.373706500370861E-069
   92.4350000000000        -3.481443992973217E-069
   92.6250000000000        -6.114676170960143E-069
   92.8150000000000        -9.164829763270856E-069
   93.0050000000000        -1.241671429584508E-068
   93.1950000000000        -1.552819794114377E-068
   93.3850000000000        -1.801759840576802E-068
   93.5750000000000        -1.926398731676483E-068
   93.7650000000000        -1.852622477078202E-068
   93.9550000000000        -1.498665806324395E-068
   94.1450000000000        -7.824796785099246E-069
   94.3350000000000         3.675329295341812E-069
   94.5250000000000         1.998323418170021E-068
   94.7150000000000         4.114874053072109E-068
   94.9050000000000         6.660630906689586E-068
   95.0950000000000         9.497267100561510E-068
   95.2850000000000         1.238613253032543E-067
   95.4750000000000         1.497456194896921E-067
   95.6650000000000         1.679096991189864E-067
   95.8550000000000         1.725323416484731E-067
   96.0450000000000         1.569510464505628E-067
   96.2350000000000         1.141509754310240E-067
   96.4250000000000         3.751358741826914E-068
   96.6150000000000        -7.815863535961178E-068
   96.8050000000000        -2.353534327006165E-067
   96.9950000000000        -4.323471185702155E-067
   97.1850000000000        -6.615903291610111E-067
   97.3750000000000        -9.081386547063664E-067
   97.5650000000000        -1.148346963495911E-066
   97.7550000000000        -1.349105584739630E-066
   97.9450000000000        -1.467945548656012E-066
   98.1350000000000        -1.454368268627266E-066
   98.3250000000000        -1.252750167777545E-066
   98.5150000000000        -8.071217211875466E-067
   98.7050000000000        -6.801057058345914E-068
   98.8950000000000         9.986406482591808E-067
   99.0850000000000         2.400725342944874E-066
   99.2750000000000         4.107964907809564E-066
   99.4650000000000         6.039605735818180E-066
   99.6550000000000         8.053218477317359E-066
   99.8450000000000         9.936433653788404E-066
   100.035000000000         1.140383629723681E-065
   100.225000000000         1.210151527512037E-065
   100.415000000000         1.162184060946321E-065
   100.605000000000         9.530836907412522E-066
   100.795000000000         5.409945413980931E-066
   100.985000000000        -1.087055835909124E-066
   101.175000000000        -1.016272773068013E-065
   101.365000000000        -2.179303268111943E-065
   101.555000000000        -3.563808224603440E-065
   101.745000000000        -5.095472816678868E-065
   101.935000000000        -6.652216405240311E-065
   102.125000000000        -8.059456130785825E-065
   102.315000000000        -9.089706802293534E-065
   102.505000000000        -9.468276739634433E-065
   102.695000000000        -8.886787396145451E-065
   102.885000000000        -7.025997068187310E-065
   103.075000000000        -3.588892422993211E-065
   103.265000000000         1.655816077954434E-065
   103.455000000000         8.820819057985029E-065
   103.645000000000         1.784046144666597E-064
   103.835000000000         2.840838956131642E-064
   104.025000000000         3.991878855884253E-064
   104.215000000000         5.141935403604746E-064
   104.405000000000         6.158588784976462E-064
   104.595000000000         6.872967919994854E-064
   104.785000000000         7.084930668143812E-064
   104.975000000000         6.573782721907932E-064
   105.165000000000         5.115415775806245E-064
   105.355000000000         2.506350156480260E-064
   105.545000000000        -1.405428954461917E-064
   105.735000000000        -6.683755789712539E-064
   105.925000000000        -1.326359901813467E-063
   106.115000000000        -2.090946622255331E-063
   106.305000000000        -2.917718518955657E-063
   106.495000000000        -3.738455166664228E-063
   106.685000000000        -4.459736764784765E-063
   106.875000000000        -4.963808740486351E-063
   107.065000000000        -5.112444289432136E-063
   107.255000000000        -4.754482712293817E-063
   107.445000000000        -3.737567211160223E-063
   107.635000000000        -1.924339718519858E-063
   107.825000000000         7.870386399194705E-064
   108.015000000000         4.438686420262161E-063
   108.205000000000         8.986392322204934E-063
   108.395000000000         1.427258377881511E-062
   108.585000000000         2.000161644140644E-062
   108.775000000000         2.572086043813319E-062
   108.965000000000         3.081168421934702E-062
   109.155000000000         3.449485046381254E-062
   109.345000000000         3.585492425530491E-062
   109.535000000000         3.388792868297622E-062
   109.725000000000         2.757554850464579E-062
   109.915000000000         1.598757752918948E-062
   110.105000000000        -1.588037262960003E-063