  -1.42500000000000         0.000000000000000E+000
  -1.23500000000000         0.000000000000000E+000
  -1.04500000000000         0.000000000000000E+000
 -0.855000000000000         0.000000000000000E+000
 -0.665000000000000         0.000000000000000E+000
 -0.475000000000000         0.000000000000000E+000
 -0.285000000000000         0.000000000000000E+000
 -9.499999999999975E-002    0.000000000000000E+000
  9.500000000000020E-002    0.000000000000000E+000
  0.285000000000000         0.000000000000000E+000
  0.475000000000000         0.000000000000000E+000
  0.665000000000000         0.000000000000000E+000
  0.855000000000000         0.000000000000000E+000
   1.04500000000000         0.000000000000000E+000
   1.23500000000000         0.000000000000000E+000
   1.42500000000000         0.000000000000000E+000
   1.61500000000000         0.000000000000000E+000
   1.80500000000000         0.000000000000000E+000
   1.99500000000000         0.000000000000000E+000
   2.18500000000000         0.000000000000000E+000
   2.37500000000000         0.000000000000000E+000
   2.56500000000000         0.000000000000000E+000
   2.75500000000000         0.000000000000000E+000
   2.94500000000000         0.000000000000000E+000
   3.13500000000000         0.000000000000000E+000
   3.32500000000000         0.000000000000000E+000
   3.51500000000000         0.000000000000000E+000
   3.70500000000000         0.000000000000000E+000
   3.89500000000000         0.000000000000000E+000
   4.08500000000000         0.000000000000000E+000
   4.27500000000000         0.000000000000000E+000
   4.46500000000000         0.000000000000000E+000
   4.65500000000000         0.000000000000000E+000
   4.84500000000000         0.000000000000000E+000
   5.03500000000000         0.000000000000000E+000
   5.22500000000000         0.000000000000000E+000
   5.41500000000000         0.000000000000000E+000
   5.60500000000000         0.000000000000000E+000
   5.79500000000000         0.000000000000000E+000
   5.98500000000000         0.000000000000000E+000
   6.17500000000000         0.000000000000000E+000
   6.36500000000000         0.000000000000000E+000
   6.55500000000000         6.648905805926945E-184
   6.74500000000000         7.225710242312356E-177
   6.93500000000000         2.479934430364847E-175
   7.12500000000000         1.276517206663789E-171
   7.31500000000000         8.724301574113611E-170
   7.50500000000000         2.091146300510828E-168
   7.69500000000000        -1.354850990849689E-167
   7.88500000000000        -2.604766087883377E-165
   8.07500000000000        -1.012510382378169E-163
   8.26500000000000        -2.574534061129685E-162
   8.45500000000000        -5.047946753777312E-161
   8.64500000000000        -8.158625327055902E-160
   8.83500000000000        -1.127856313230616E-158
   9.02500000000000        -1.365897798980450E-157
   9.21500000000000        -1.473966028713890E-156
   9.40500000000000        -1.435544202800778E-155
   9.59500000000000        -1.274560474919926E-154
   9.78500000000000        -1.039997161696587E-153
   9.97500000000000        -7.850991403444382E-153
   10.1650000000000        -5.513849631381001E-152
   10.3550000000000        -3.619628483727281E-151
   10.5450000000000        -2.229894973622811E-150
   10.7350000000000        -1.293569422497882E-149
   10.9250000000000        -7.086452822001508E-149
   11.1150000000000        -3.674932072626253E-148
   11.3050000000000        -1.807634461490736E-147
   11.4950000000000        -8.446739392025601E-147
   11.6850000000000        -3.753808360646894E-146
   11.8750000000000        -1.587594066788303E-145
   12.0650000000000        -6.390380266068404E-145
   12.2550000000000        -2.446578638439100E-144
   12.4450000000000        -8.894814375140754E-144
   12.6350000000000        -3.061450601092628E-143
   12.8250000000000        -9.921367114700360E-143
   13.0150000000000        -2.998263363448152E-142
   13.2050000000000        -8.295956401083756E-142
   13.3950000000000        -2.020194447928245E-141
   13.5850000000000        -3.875222386940629E-141
   13.7750000000000        -3.019148675984139E-141
   13.9650000000000         2.119047633694487E-140
   14.1550000000000         1.604097891301627E-139
   14.3450000000000         7.651722278176480E-139
   14.5350000000000         3.053425536196785E-138
   14.7250000000000         1.096130665919338E-137
   14.9150000000000         3.646581401248058E-137
   15.1050000000000         1.141141234772870E-136
   15.2950000000000         3.387229742134716E-136
   15.4850000000000         9.583139809545179E-136
   15.6750000000000         2.591201087363593E-135
   15.8650000000000         6.703791067205473E-135
   16.0550000000000         1.659086303869821E-134
   16.2450000000000         3.921087699505486E-134
   16.4350000000000         8.817316716415879E-134
   16.6250000000000         1.873698672398669E-133
   16.8150000000000         3.715352177894297E-133
   17.0050000000000         6.700839434011583E-133
   17.1950000000000         1.033250865453829E-132
   17.3850000000000         1.088977734076411E-132
   17.5750000000000        -5.574013476508142E-133
   17.7650000000000        -8.204596461254462E-132
   17.9550000000000        -3.392296425644109E-131
   18.1450000000000        -1.099218882161379E-130
   18.3350000000000        -3.197819859519682E-130
   18.5250000000000        -8.773079031133637E-130
   18.7150000000000        -2.325670200649005E-129
   18.9050000000000        -6.038877019454879E-129
   19.0950000000000        -1.547443713980250E-128
   19.2850000000000        -3.926030816137282E-128
   19.4750000000000        -9.866254582191289E-128
   19.6650000000000        -2.452478733625484E-127
   19.8550000000000        -6.016014915984316E-127
   20.0450000000000        -1.452594266383315E-126
   20.2350000000000        -3.443880531669900E-126
   20.4250000000000        -7.999982251972245E-126
   20.6150000000000        -1.817524710217651E-125
   20.8050000000000        -4.032308445486201E-125
   20.9950000000000        -8.723985280717682E-125
   21.1850000000000        -1.838184815780836E-124
   21.3750000000000        -3.766690245431560E-124
   21.5650000000000        -7.493683448926615E-124
   21.7550000000000        -1.444282134604398E-123
   21.9450000000000        -2.688636986963178E-123
   22.1350000000000        -4.813350360716460E-123
   22.3250000000000        -8.231616621120257E-123
   22.5150000000000        -1.329881539325102E-122
   22.7050000000000        -1.988618159799992E-122
   22.8950000000000        -2.633549346633676E-122
   23.0850000000000        -2.716916615345301E-122
   23.2750000000000        -8.427019894527454E-123
   23.4650000000000         6.135019760864105E-122
   23.6550000000000         2.479196393237520E-121
   23.8450000000000         6.818923393930200E-121
   24.0350000000000         1.613729655409183E-120
   24.2250000000000         3.513080215891822E-120
   24.4150000000000         7.251207139880470E-120
   24.6050000000000         1.444463039977363E-119
   24.7950000000000         2.812028229673136E-119
   24.9850000000000         5.403100088877798E-119
   25.1750000000000         1.032861841734572E-118
   25.3650000000000         1.976090681637456E-118
   25.5550000000000         3.797269981953274E-118
   25.7450000000000         7.335098255059171E-118
   25.9350000000000         1.422000400400677E-117
   26.1250000000000         2.757015679217244E-117
   26.3150000000000         5.321956437935744E-117
   26.5050000000000         1.017946113112766E-116
   26.6950000000000         1.920498459336451E-116
   26.8850000000000         3.558874181532443E-116
   27.0750000000000         6.452431979573045E-116
   27.2650000000000         1.140171026979290E-115
   27.4550000000000         1.955331634862027E-115
   27.6450000000000         3.237546563423676E-115
   27.8350000000000         5.138264074740875E-115
   28.0250000000000         7.728970227963661E-115
   28.2150000000000         1.080113198708575E-114
   28.4050000000000         1.345114056025940E-114
   28.5950000000000         1.329208863237517E-114
   28.7850000000000         5.060182005232631E-115
   28.9750000000000        -2.169118531053234E-114
   29.1650000000000        -8.615117167772819E-114
   29.3550000000000        -2.213103124133506E-113
   29.5450000000000        -4.803611049089352E-113
   29.7350000000000        -9.432625964229603E-113
   29.9250000000000        -1.720142097697491E-112
   30.1150000000000        -2.944153977724737E-112
   30.3050000000000        -4.739382064298488E-112
   30.4950000000000        -7.138037798404057E-112
   30.6850000000000        -9.904272903036808E-112
   30.8750000000000        -1.219879318271465E-111
   31.0650000000000        -1.199061646169743E-111
   31.2550000000000        -5.095865692044969E-112
   31.4450000000000         1.628665169716311E-111
   31.6350000000000         6.563699467052026E-111
   31.8250000000000         1.647294981240424E-110
   32.0150000000000         3.464309004285992E-110
   32.2050000000000         6.566545510657100E-110
   32.3950000000000         1.153269218783448E-109
   32.5850000000000         1.897825750291996E-109
   32.7750000000000         2.933013016159920E-109
   32.9650000000000         4.234603706945426E-109
   33.1550000000000         5.621371507033496E-109
   33.3450000000000         6.600697827491405E-109
   33.5350000000000         6.123070262302648E-109
   33.7250000000000         2.218985165240131E-109
   33.9150000000000        -8.496650922871709E-109
   34.1050000000000        -3.143414660584895E-108
   34.2950000000000        -7.466324423199882E-108
   34.4850000000000        -1.493522772977791E-107
   34.6750000000000        -2.695763500642942E-107
   34.8650000000000        -4.507281779645377E-107
   35.0550000000000        -7.052999492480401E-107
   35.2450000000000        -1.034208188480591E-106
   35.4350000000000        -1.411162610787303E-106
   35.6250000000000        -1.756986807135584E-106
   35.8150000000000        -1.900591697071649E-106
   36.0050000000000        -1.524021402646525E-106
   36.1950000000000        -9.148706522686525E-108
   36.3850000000000         3.232192776063322E-106
   36.5750000000000         9.658195055967994E-106
   36.7650000000000         2.081312030440356E-105
   36.9550000000000         3.868394455791774E-105
   37.1450000000000         6.537649175706956E-105
   37.3350000000000         1.025517035492954E-104
   37.5250000000000         1.503553965375397E-104
   37.7150000000000         2.056139047053486E-104
   37.9050000000000         2.590493173838071E-104
   38.0950000000000         2.913059347092767E-104
   38.2850000000000         2.677220051378154E-104
   38.4750000000000         1.320933745668285E-104
   38.6650000000000        -1.997601986067162E-104
   38.8550000000000        -8.449105486323750E-104
   39.0450000000000        -1.953679094414254E-103
   39.2350000000000        -3.700619892136658E-103
   39.4250000000000        -6.259136769022294E-103
   39.6150000000000        -9.750398906653000E-103
   39.8050000000000        -1.415518455999168E-102
   39.9950000000000        -1.917639914950156E-102
   40.1850000000000        -2.404158222690183E-102
   40.3750000000000        -2.724056242333258E-102
   40.5650000000000        -2.620587514550925E-102
   40.7550000000000        -1.696531549125985E-102
   40.9450000000000         6.170260397518445E-103
   41.1350000000000         5.077303191234886E-102
   41.3250000000000         1.261452657543746E-101
   41.5150000000000         2.426006330402660E-101
   41.7050000000000         4.098551127089389E-101
   41.8950000000000         6.341345434488314E-101
   42.0850000000000         9.135695486642647E-101
   42.2750000000000         1.231475568749287E-100
   42.4650000000000         1.547246516988436E-100
   42.6550000000000         1.784872401528073E-100
   42.8450000000000         1.819573641573186E-100
   43.0350000000000         1.463772305427191E-100
   43.2250000000000         4.546234794053675E-101
   43.4150000000000        -1.553384939875436E-100
   43.6050000000000        -4.985712534417861E-100
   43.7950000000000        -1.032812829407623E-099
   43.9850000000000        -1.808147756786870E-099
   44.1750000000000        -2.868023041710177E-099
   44.3650000000000        -4.236218029094415E-099
   44.5550000000000        -5.897449812541968E-099
   44.7450000000000        -7.769879535390753E-099
   44.9350000000000        -9.667457980201459E-099
   45.1250000000000        -1.124962578669201E-098
   45.3150000000000        -1.195539393420261E-098
   45.5050000000000        -1.091844336438651E-098
   45.6950000000000        -6.860051960278750E-099
   45.8850000000000         2.041668098100171E-099
   46.0750000000000         1.830283199488127E-098
   46.2650000000000         4.529078161703156E-098
   46.4550000000000         8.735139608869646E-098
   46.6450000000000         1.498337643823704E-097
   46.8350000000000         2.388788678706174E-097
   47.0250000000000         3.607481860736687E-097
   47.2150000000000         5.203418719220030E-097
   47.4050000000000         7.183953192310636E-097
   47.5950000000000         9.466613277826348E-097
   47.7850000000000         1.180218823547957E-096
   47.9750000000000         1.365969504898193E-096
   48.1650000000000         1.406512397246901E-096
   48.3550000000000         1.139110208776423E-096
   48.5450000000000         3.106443340556148E-097
   48.7350000000000        -1.448362994673254E-096
   48.9250000000000        -4.644009109836169E-096
   49.1150000000000        -9.921561914944337E-096
   49.3050000000000        -1.803095319330406E-095
   49.4950000000000        -2.972659002044235E-095
   49.6850000000000        -4.556240749169346E-095
   49.8750000000000        -6.553326837066123E-095
   50.0650000000000        -8.850803695203858E-095
   50.2550000000000        -1.114034892090536E-094
   50.4450000000000        -1.280699316858477E-094
   50.6350000000000        -1.279102032157201E-094
   50.8250000000000        -9.434749574033595E-095
   51.0150000000000        -3.409375773624525E-096
   51.2050000000000         1.770807731302892E-094
   51.3950000000000         4.869108158332792E-094
   51.5850000000000         9.703169142010392E-094
   51.7750000000000         1.668669153760969E-093
   51.9650000000000         2.607046499903816E-093
   52.1550000000000         3.772529664691959E-093
   52.3450000000000         5.082198700670786E-093
   52.5350000000000         6.339642207075526E-093
   52.7250000000000         7.180646323985437E-093
   52.9150000000000         7.012081369509525E-093
   53.1050000000000         4.953302125221288E-093
   53.2950000000000        -2.030078191607696E-094
   53.4850000000000        -9.983582766647347E-093
   53.6750000000000        -2.614190437801527E-092
   53.8650000000000        -5.042831376249176E-092
   54.0550000000000        -8.416007928314662E-092
   54.2450000000000        -1.275235297323101E-091
   54.4350000000000        -1.785475218210894E-091
   54.6250000000000        -2.317153982345356E-091
   54.8150000000000        -2.762417521922736E-091
   55.0050000000000        -2.941424657579620E-091
   55.1950000000000        -2.583826848559339E-091
   55.3850000000000        -1.316048617903614E-091
   55.5750000000000         1.337836336297975E-091
   55.7650000000000         5.930630623188038E-091
   55.9550000000000         1.302769364914321E-090
   56.1450000000000         2.308697252945743E-090
   56.3350000000000         3.626584062175462E-090
   56.5250000000000         5.213988956198635E-090
   56.7150000000000         6.932701732174272E-090
   56.9050000000000         8.502630864935865E-090
   57.0950000000000         9.450786396985834E-090
   57.2850000000000         9.062905264832509E-090
   57.4750000000000         6.350562941813663E-090
   57.6650000000000         5.314721806015813E-092
   57.8550000000000        -1.129865962947922E-089
   58.0450000000000        -2.922426647007125E-089
   58.2350000000000        -5.500085548614814E-089
   58.4250000000000        -8.919846030855234E-089
   58.6150000000000        -1.310113357413243E-088
   58.8050000000000        -1.773747854778526E-088
   58.9950000000000        -2.218942399492370E-088
   59.1850000000000        -2.536731254485204E-088
   59.3750000000000        -2.562115179578937E-088
   59.5650000000000        -2.066595328166262E-088
   59.7550000000000        -7.584375479008231E-089
   59.9450000000000         1.703698798572143E-088
   60.1350000000000         5.676795636134886E-088
   60.3250000000000         1.147133183690193E-087
   60.5150000000000         1.925322004418608E-087
   60.7050000000000         2.890382765305767E-087
   60.8950000000000         3.983626815082869E-087
   61.0850000000000         5.077364349714817E-087
   61.2750000000000         5.950654132173070E-087
   61.4650000000000         6.266341083921819E-087
   61.6550000000000         5.554849959976947E-087
   61.8450000000000         3.212698044307840E-087
   62.0350000000000        -1.473643912086067E-087
   62.2250000000000        -9.265472314558047E-087
   62.4150000000000        -2.085648785882355E-086
   62.6050000000000        -3.668981190116041E-086
   62.7950000000000        -5.669583257736069E-086
   62.9850000000000        -7.994653770540664E-086
   63.1750000000000        -1.042348911097455E-085
   63.3650000000000        -1.256077963618542E-085
   63.5550000000000        -1.379092749056065E-085
   63.7450000000000        -1.324268495226376E-085
   63.9350000000000        -9.777756314057607E-086
   64.1250000000000        -2.021729320397119E-086
   64.3150000000000         1.153980772413122E-085
   64.5050000000000         3.237381997184952E-085
   64.6950000000000         6.159421096211690E-085
   64.8850000000000         9.951491887777627E-085
   65.0750000000000         1.450489721332800E-084
   65.2650000000000         1.949602640461547E-084
   65.4550000000000         2.430059603984417E-084
   65.6450000000000         2.790523102112760E-084
   65.8350000000000         2.883061654534787E-084
   66.0250000000000         2.508777483862304E-084
   66.2150000000000         1.419730984943748E-084
   66.4050000000000        -6.690118623398111E-085
   66.5950000000000        -4.052668812914646E-084
   66.7850000000000        -8.990450310408344E-084
   66.9750000000000        -1.563501886183991E-083
   67.1650000000000        -2.393426706669675E-083
   67.3550000000000        -3.350463865140500E-083
   67.5450000000000        -4.347975138740176E-083
   67.7350000000000        -5.234492300331579E-083
   67.9250000000000        -5.777765408381756E-083
   68.1150000000000        -5.652622536252809E-083
   68.3050000000000        -4.437291747439542E-083
   68.4950000000000        -1.624389269895372E-083
   68.6850000000000         3.345748574940380E-083
   68.8750000000000         1.102063133039689E-082
   69.0650000000000         2.183108092523180E-082
   69.2550000000000         3.593879810417925E-082
   69.4450000000000         5.303158777143754E-082
   69.6350000000000         7.206814295515930E-082
   69.8250000000000         9.098443012013791E-082
   70.0150000000000         1.063883425586246E-081
   70.2050000000000         1.132887138190607E-081
   70.3950000000000         1.049286789723610E-081
   70.5850000000000         7.282039076363352E-082
   70.7750000000000         7.105456655930462E-083
   70.9650000000000        -1.026114911571796E-081
   71.1550000000000        -2.657968426226567E-081
   71.3450000000000        -4.887391389518144E-081
   71.5350000000000        -7.714077112938246E-081
   71.7250000000000        -1.103395908053425E-080
   71.9150000000000        -1.459072227382935E-080
   72.1050000000000        -1.792280629850247E-080
   72.2950000000000        -2.031228053684436E-080
   72.4850000000000        -2.074570196638916E-080
   72.6750000000000        -1.790138289394421E-080
   72.8650000000000        -1.018200582048946E-080
   73.0550000000000         4.184448765745896E-081
   73.2450000000000         2.694996172904581E-080
   73.4350000000000         5.953276441353751E-080
   73.6250000000000         1.025644551118737E-079
   73.8150000000000         1.552893074813202E-079
   74.0050000000000         2.148273877876227E-079
   74.1950000000000         2.753438601092833E-079
   74.3850000000000         3.272092329953612E-079
   74.5750000000000         3.562890314822356E-079
   74.7650000000000         3.435640689966100E-079
   74.9550000000000         2.653487315966410E-079
   75.1450000000000         9.443516679076327E-080
   75.3350000000000        -1.974679255491736E-079
   75.5250000000000        -6.356309408990844E-079
   75.7150000000000        -1.236222282434867E-078
   75.9050000000000        -1.998088022890006E-078
   76.0950000000000        -2.892494822083518E-078
   76.2850000000000        -3.851343804619117E-078
   76.4750000000000        -4.754922379030433E-078
   76.6650000000000        -5.420970155224520E-078
   76.8550000000000        -5.597662124686405E-078
   77.0450000000000        -4.963986448489177E-078
   77.2350000000000        -3.141796010855791E-078
   77.4250000000000         2.756339660221683E-079
   77.6150000000000         5.673641335226713E-078
   77.8050000000000         1.334061016374580E-077
   77.9950000000000         2.336441172016284E-077
   78.1850000000000         3.550169609644327E-077
   78.3750000000000         4.902581291551939E-077
   78.5650000000000         6.256592767594048E-077
   78.7550000000000         7.395846868237609E-077
   78.9450000000000         8.014198327537965E-077
   79.1350000000000         7.713694586239624E-077
   79.3250000000000         6.016163022786950E-077
   79.5150000000000         2.394178684186941E-077
   79.7050000000000        -3.672714274026595E-077
   79.8950000000000        -1.261144449914394E-076
   80.0850000000000        -2.463547513844512E-076
   80.2750000000000        -3.959208424436786E-076
   80.4650000000000        -5.678299676855469E-076
   80.6550000000000        -7.477206781202830E-076
   80.8450000000000        -9.120320982361084E-076
   81.0350000000000        -1.026627064978501E-075
   81.2250000000000        -1.046315141299390E-075
   81.4150000000000        -9.158358560502069E-076
   81.6050000000000        -5.729348508594119E-076
   81.7950000000000         4.582226870924478E-077
   81.9850000000000         9.959352114810458E-076
   82.1750000000000         2.312202025131447E-075
   82.3650000000000         3.992325506675704E-075
   82.5550000000000         5.977488559031276E-075
   82.7450000000000         8.131269020589469E-075
   82.9350000000000         1.021923138290392E-074
   83.1250000000000         1.189264241685877E-074
   83.3150000000000         1.268091407409430E-074
   83.5050000000000         1.199842848201826E-074
   83.6950000000000         9.172134278433365E-075
   83.8850000000000         3.496450270153108E-075
   84.0750000000000        -5.678745973901083E-075
   84.2650000000000        -1.882327003282711E-074
   84.4550000000000        -3.606471791796752E-074
   84.6450000000000        -5.699466647853282E-074
   84.8350000000000        -8.045546018643483E-074
   85.0250000000000        -1.043291304356457E-073
   85.2150000000000        -1.253603805183615E-073
   85.4050000000000        -1.390563896097632E-073
   85.5950000000000        -1.397160724019214E-073
   85.7850000000000        -1.206484851435200E-073
   85.9750000000000        -7.464190629468154E-074
   86.1650000000000         5.261029809660150E-075
   86.3550000000000         1.246438387505294E-073
   86.5450000000000         2.862447665370093E-073
   86.7350000000000         4.881723826624432E-073
   86.9250000000000         7.219102035642179E-073
   87.1150000000000         9.702908648828004E-073
   87.3050000000000         1.205710404049566E-072
   87.4950000000000         1.388947501021911E-072
   87.6850000000000         1.469039797965637E-072
   87.8750000000000         1.384734243800527E-072
   88.0650000000000         1.068051438363645E-072
   88.2550000000000         4.504628487806033E-073
   88.4450000000000        -5.279490295336513E-073
   88.6350000000000        -1.906216092392487E-072
   88.8250000000000        -3.687329492912318E-072
   89.0150000000000        -5.820937103230561E-072
   89.2050000000000        -8.185252132587887E-072
   89.3950000000000        -1.057025466751642E-071
   89.5850000000000        -1.266503492986546E-071
   89.7750000000000        -1.405285444490719E-071
   89.9650000000000        -1.421807457044889E-071
   90.1550000000000        -1.256937732603656E-071
   90.3450000000000        -8.483515002695341E-072
   90.5350000000000        -1.372996225849805E-072
   90.7250000000000         9.220520846227420E-072
   90.9150000000000         2.350793647141167E-071
   91.1050000000000         4.131391583614283E-071
   91.2950000000000         6.192655740513472E-071
   91.4850000000000         8.394985619839684E-071
   91.6750000000000         1.051791215725787E-070
   91.8650000000000         1.225252431733880E-070
   92.0550000000000         1.320185768016027E-070
   92.2450000000000         1.289262748178035E-070
   92.4350000000000         1.080169767304279E-070
   92.6250000000000         6.400267428734354E-071
   92.8150000000000        -7.821938660588305E-072
   93.0050000000000        -1.107382627184028E-070
   93.1950000000000        -2.455794106832029E-070
   93.3850000000000        -4.095715372608595E-070
   93.5750000000000        -5.951263972738223E-070
   93.7650000000000        -7.887118572307196E-070
   93.9550000000000        -9.699697916586084E-070
   94.1450000000000        -1.111290538535248E-069
   94.3350000000000        -1.178084022174644E-069
   94.5250000000000        -1.130002696553469E-069
   94.7150000000000        -9.233626431203622E-070
   94.9050000000000        -5.149681713240760E-070
   95.0950000000000         1.325357103943849E-070
   95.2850000000000         1.043785871533036E-069
   95.4750000000000         2.222478738750606E-069
   95.6650000000000         3.642209495316384E-069
   95.8550000000000         5.237048563976173E-069
   96.0450000000000         6.892830206374611E-069
   96.2350000000000         8.440435442026784E-069
   96.4250000000000         9.652636830801633E-069
   96.6150000000000         1.024629663792545E-068
   96.8050000000000         9.891824913333991E-069
   96.9950000000000         8.231756031539531E-069
   97.1850000000000         4.910033862514123E-069
   97.3750000000000        -3.869492656778376E-070
   97.5650000000000        -7.877385384856577E-069
   97.7550000000000        -1.762021194153951E-068
   97.9450000000000        -2.944305946574924E-068
   98.1350000000000        -4.286659456410454E-068
   98.3250000000000        -5.703209896985968E-068
   98.5150000000000        -7.064151777593336E-068
   98.7050000000000        -8.192157740206801E-068
   98.8950000000000        -8.862565988750531E-068
   99.0850000000000        -8.808859422083645E-068
   99.2750000000000        -7.734998594347657E-068
   99.4650000000000        -5.336069171161870E-068
   99.6550000000000        -1.328405686620568E-068
   99.8450000000000         4.510192930047327E-068
   100.035000000000         1.229037942787343E-067
   100.225000000000         2.195269362166450E-067
   100.415000000000         3.320340677979123E-067
   100.605000000000         4.544948494501359E-067
   100.795000000000         5.773945688169145E-067
   100.985000000000         6.871918495131010E-067
   101.175000000000         7.661370027558830E-067
   101.365000000000         7.924811353689608E-067
   101.555000000000         7.412180446778959E-067
   101.745000000000         5.855020266864531E-067
   101.935000000000         2.988701154809776E-067
   102.125000000000        -1.416382826155565E-067
   102.315000000000        -7.514330324870648E-067
   102.505000000000        -1.533456941639850E-066
   102.695000000000        -2.472587432977748E-066
   102.885000000000        -3.529700520024241E-066
   103.075000000000        -4.635928792496662E-066
   103.265000000000        -5.687852283372959E-066
   103.455000000000        -6.544572143802633E-066
   103.645000000000        -7.027808607239111E-066
   103.835000000000        -6.926305376759863E-066
   104.025000000000        -6.005873218758970E-066
   104.215000000000        -4.026320814523236E-066
   104.405000000000        -7.662520008474419E-067
   104.595000000000         3.943792278769526E-066
   104.785000000000         1.018014188974368E-065
   104.975000000000         1.787811930899098E-065
   105.165000000000         2.678020417876947E-065
   105.355000000000         3.638459208311528E-065
   105.545000000000         4.590029423973782E-065
   105.735000000000         5.421675019424838E-065
   105.925000000000         5.989757463837249E-065
   106.115000000000         6.120925983505900E-065
   106.305000000000         5.619607448680921E-065
   106.495000000000         4.281166147855516E-065
   106.685000000000         1.911554717128878E-065
   106.875000000000        -1.646143556915903E-065
   107.065000000000        -6.478522989095185E-065
   107.255000000000        -1.256313381354351E-064
   107.445000000000        -1.972645502344191E-064
   107.635000000000        -2.760207988360093E-064
   107.825000000000        -3.559403788731450E-064
   108.015000000000        -4.285157331294058E-064
   108.205000000000        -4.826291898661143E-064
   108.395000000000        -5.047642940545889E-064
   108.585000000000        -4.795761610013462E-064
   108.775000000000        -3.908988201042645E-064
   108.965000000000        -2.232480217549158E-064
   109.155000000000         3.615601092091470E-065
   109.345000000000         3.948716158225461E-064
   109.535000000000         8.523171701606342E-064
   109.725000000000         1.396626053389611E-063
   109.915000000000         2.001544415871950E-063
   110.105000000000         2.623740954071763E-063