  -1.42500000000000         0.000000000000000E+000
  -1.23500000000000         0.000000000000000E+000
  -1.04500000000000         0.000000000000000E+000
 -0.855000000000000         0.000000000000000E+000
 -0.665000000000000         0.000000000000000E+000
 -0.475000000000000         0.000000000000000E+000
 -0.285000000000000         0.000000000000000E+000
 -9.499999999999975E-002    0.000000000000000E+000
  9.500000000000020E-002    0.000000000000000E+000
  0.285000000000000         0.000000000000000E+000
  0.475000000000000         0.000000000000000E+000
  0.665000000000000         0.000000000000000E+000
  0.855000000000000         0.000000000000000E+000
   1.04500000000000         0.000000000000000E+000
   1.23500000000000         0.000000000000000E+000
   1.42500000000000         0.000000000000000E+000
   1.61500000000000         0.000000000000000E+000
   1.80500000000000         0.000000000000000E+000
   1.99500000000000         0.000000000000000E+000
   2.18500000000000         0.000000000000000E+000
   2.37500000000000         0.000000000000000E+000
   2.56500000000000         0.000000000000000E+000
   2.75500000000000         0.000000000000000E+000
   2.94500000000000         0.000000000000000E+000
   3.13500000000000         0.000000000000000E+000
   3.32500000000000         0.000000000000000E+000
   3.51500000000000         0.000000000000000E+000
   3.70500000000000         0.000000000000000E+000
   3.89500000000000         0.000000000000000E+000
   4.08500000000000         0.000000000000000E+000
   4.27500000000000         0.000000000000000E+000
   4.46500000000000         0.000000000000000E+000
   4.65500000000000         0.000000000000000E+000
   4.84500000000000         0.000000000000000E+000
   5.03500000000000         0.000000000000000E+000
   5.22500000000000         0.000000000000000E+000
   5.41500000000000         0.000000000000000E+000
   5.60500000000000         0.000000000000000E+000
   5.79500000000000         0.000000000000000E+000
   5.98500000000000         0.000000000000000E+000
   6.17500000000000         0.000000000000000E+000
   6.36500000000000         0.000000000000000E+000
   6.55500000000000         8.924525544629718E-183
   6.74500000000000        -9.126561784190350E-177
   6.93500000000000        -7.833942435510179E-175
   7.12500000000000        -1.189527218371043E-171
   7.31500000000000        -8.791304291866492E-170
   7.50500000000000        -2.120129995102824E-168
   7.69500000000000         2.421025404720991E-167
   7.88500000000000         3.376184460661855E-165
   8.07500000000000         1.303877017730660E-163
   8.26500000000000         3.346238739115532E-162
   8.45500000000000         6.645723820948619E-161
   8.64500000000000         1.089544999039722E-159
   8.83500000000000         1.529409830577736E-158
   9.02500000000000         1.882567551880429E-157
   9.21500000000000         2.066926071341967E-156
   9.40500000000000         2.050386577472518E-155
   9.59500000000000         1.856417287810400E-154
   9.78500000000000         1.546674314558913E-153
   9.97500000000000         1.193837378108224E-152
   10.1650000000000         8.585916997068058E-152
   10.3550000000000         5.781353657863121E-151
   10.5450000000000         3.660041265035471E-150
   10.7350000000000         2.186388198547950E-149
   10.9250000000000         1.236298186547432E-148
   11.1150000000000         6.635479729231839E-148
   11.3050000000000         3.388635000556544E-147
   11.4950000000000         1.650062510851583E-146
   11.6850000000000         7.675416846360088E-146
   11.8750000000000         3.416059113584206E-145
   12.0650000000000         1.456687288580065E-144
   12.2550000000000         5.958324874852302E-144
   12.4450000000000         2.339928148878435E-143
   12.6350000000000         8.828891657492099E-143
   12.8250000000000         3.202091021591249E-142
   13.0150000000000         1.116512118730274E-141
   13.2050000000000         3.742237539950763E-141
   13.3950000000000         1.205020668564423E-140
   13.5850000000000         3.723685910526243E-140
   13.7750000000000         1.102184617849018E-139
   13.9650000000000         3.115503490292749E-139
   14.1550000000000         8.369257670117399E-139
   14.3450000000000         2.119495813207062E-138
   14.5350000000000         4.988501663226958E-138
   14.7250000000000         1.060762708889038E-137
   14.9150000000000         1.902873808485284E-137
   15.1050000000000         2.223707990902432E-137
   15.2950000000000        -2.114608731580682E-137
   15.4850000000000        -2.660993081104286E-136
   15.6750000000000        -1.213900290349841E-135
   15.8650000000000        -4.342892195301668E-135
   16.0550000000000        -1.372604898964106E-134
   16.2450000000000        -3.998614176969353E-134
   16.4350000000000        -1.095710769562875E-133
   16.6250000000000        -2.857271740848435E-133
   16.8150000000000        -7.144894652844265E-133
   17.0050000000000        -1.723161655990763E-132
   17.1950000000000        -4.028039078432896E-132
   17.3850000000000        -9.170487815523922E-132
   17.5750000000000        -2.043796537636547E-131
   17.7650000000000        -4.483815433777016E-131
   17.9550000000000        -9.740907914775495E-131
   18.1450000000000        -2.107766282344036E-130
   18.3350000000000        -4.564965802402898E-130
   18.5250000000000        -9.924991773174290E-130
   18.7150000000000        -2.166869567724561E-129
   18.9050000000000        -4.738876860444565E-129
   19.0950000000000        -1.033311248093922E-128
   19.2850000000000        -2.233198742049660E-128
   19.4750000000000        -4.753811263902560E-128
   19.6650000000000        -9.907533406599952E-128
   19.8550000000000        -2.010522099406696E-127
   20.0450000000000        -3.952711910281961E-127
   20.2350000000000        -7.493766259913135E-127
   20.4250000000000        -1.363975411474297E-126
   20.6150000000000        -2.373965746067415E-126
   20.8050000000000        -3.940441423344491E-126
   20.9950000000000        -6.247627831031197E-126
   21.1850000000000        -9.591733448971087E-126
   21.3750000000000        -1.486555220147459E-125
   21.5650000000000        -2.530104421861910E-125
   21.7550000000000        -5.162701355364953E-125
   21.9450000000000        -1.255618537720320E-124
   22.1350000000000        -3.320370843594683E-124
   22.3250000000000        -8.806550218570942E-124
   22.5150000000000        -2.254205179835809E-123
   22.7050000000000        -5.499327190044282E-123
   22.8950000000000        -1.276286733726068E-122
   23.0850000000000        -2.822327769788771E-122
   23.2750000000000        -5.960386671978546E-122
   23.4650000000000        -1.204458405185494E-121
   23.6550000000000        -2.331905959521355E-121
   23.8450000000000        -4.327545966033796E-121
   24.0350000000000        -7.695232750081079E-121
   24.2250000000000        -1.309415102693851E-120
   24.4150000000000        -2.126935193087546E-120
   24.6050000000000        -3.285538842985536E-120
   24.7950000000000        -4.799842783588527E-120
   24.9850000000000        -6.579774801823432E-120
   25.1750000000000        -8.373524573829000E-120
   25.3650000000000        -9.761545896223706E-120
   25.5550000000000        -1.031177811448227E-119
   25.7450000000000        -1.007234099302833E-119
   25.9350000000000        -1.058451602564546E-119
   26.1250000000000        -1.635194422867047E-119
   26.3150000000000        -3.574420186980172E-119
   26.5050000000000        -7.768630253215621E-119
   26.6950000000000        -1.343581865669433E-118
   26.8850000000000        -1.272666061130554E-118
   27.0750000000000         2.308069512934821E-118
   27.2650000000000         1.750135287596399E-117
   27.4550000000000         6.421413816526953E-117
   27.6450000000000         1.869789957911607E-116
   27.8350000000000         4.784366241233722E-116
   28.0250000000000         1.119768697715855E-115
   28.2150000000000         2.445848010461741E-115
   28.4050000000000         5.042203547103118E-115
   28.5950000000000         9.874293868795348E-115
   28.7850000000000         1.842965456372934E-114
   28.9750000000000         3.280689905277184E-114
   29.1650000000000         5.558979553257870E-114
   29.3550000000000         8.916412645265098E-114
   29.5450000000000         1.338174509600440E-113
   29.7350000000000         1.834372513379351E-113
   29.9250000000000         2.168105289050270E-113
   30.1150000000000         1.813610954311798E-113
   30.3050000000000        -3.535244501553446E-114
   30.4950000000000        -6.527065391060289E-113
   30.6850000000000        -2.070124170477009E-112
   30.8750000000000        -4.972849032237632E-112
   31.0650000000000        -1.047114518842083E-111
   31.2550000000000        -2.025728759674466E-111
   31.4450000000000        -3.672830783542985E-111
   31.6350000000000        -6.295093017620874E-111
   31.8250000000000        -1.022159848205120E-110
   32.0150000000000        -1.567121837375016E-110
   32.2050000000000        -2.245067714001322E-110
   32.3950000000000        -2.935188499943097E-110
   32.5850000000000        -3.304989306571435E-110
   32.7750000000000        -2.622400371927299E-110
   32.9650000000000         5.446046500742465E-111
   33.1550000000000         8.777216667502144E-110
   33.3450000000000         2.642669028195602E-109
   33.5350000000000         6.038429373961034E-109
   33.7250000000000         1.208718851099890E-108
   33.9150000000000         2.219153098622168E-108
   34.1050000000000         3.807886816493580E-108
   34.2950000000000         6.151009032461406E-108
   34.4850000000000         9.352522657148149E-108
   34.6750000000000         1.328655591293934E-107
   34.8650000000000         1.730408729342395E-107
   35.0550000000000         1.973221346670464E-107
   35.2450000000000         1.707889639330715E-107
   35.4350000000000         2.856366528828223E-108
   35.6250000000000        -3.402690265785923E-107
   35.8150000000000        -1.112474932383655E-106
   36.0050000000000        -2.551305399540764E-106
   36.1950000000000        -5.020726290096544E-106
   36.3850000000000        -8.978775466935223E-106
   36.5750000000000        -1.492441782537141E-105
   36.7650000000000        -2.325638102672679E-105
   36.9550000000000        -3.398184165224549E-105
   37.1450000000000        -4.618924884184746E-105
   37.3350000000000        -5.717806683876291E-105
   37.5250000000000        -6.112928149686853E-105
   37.7150000000000        -4.722285454681864E-105
   37.9050000000000         2.808053552717205E-106
   38.0950000000000         1.175072585383515E-104
   38.2850000000000         3.383777714745187E-104
   38.4750000000000         7.212945405054893E-104
   38.6650000000000         1.334628798332796E-103
   38.8550000000000         2.250808323317298E-103
   39.0450000000000         3.526433037468008E-103
   39.2350000000000         5.164251320381048E-103
   39.4250000000000         7.048640087011400E-103
   39.6150000000000         8.845427437185998E-103
   39.8050000000000         9.858146722538621E-103
   39.9950000000000         8.837942237729673E-103
   40.1850000000000         3.755907894476175E-103
   40.3750000000000        -8.432137835560546E-103
   40.5650000000000        -3.196392726894014E-102
   40.7550000000000        -7.227642490208690E-102
   40.9450000000000        -1.356537690185561E-101
   41.1350000000000        -2.282463669423185E-101
   41.3250000000000        -3.540962126763762E-101
   41.5150000000000        -5.117210682734504E-101
   41.7050000000000        -6.887737507414100E-101
   41.8950000000000        -8.543571573512200E-101
   42.0850000000000        -9.488192913508643E-101
   42.2750000000000        -8.713778347987583E-101
   42.4650000000000        -4.668512090612416E-101
   42.6550000000000         4.857748949120138E-101
   42.8450000000000         2.278145504403015E-100
   43.0350000000000         5.263191401337358E-100
   43.2250000000000         9.820919015364139E-100
   43.4150000000000         1.628525660494276E-099
   43.6050000000000         2.481508543533396E-099
   43.7950000000000         3.519150182717093E-099
   43.9850000000000         4.652564275592647E-099
   44.1750000000000         5.686924234262261E-099
   44.3650000000000         6.273605299147122E-099
   44.5550000000000         5.856906700474567E-099
   44.7450000000000         3.622842914466832E-099
   44.9350000000000        -1.537078271447821E-099
   45.1250000000000        -1.102740340804127E-098
   45.3150000000000        -2.648821671854699E-098
   45.5050000000000        -4.963735164911868E-098
   45.6950000000000        -8.197346426219156E-098
   45.8850000000000        -1.242942847108451E-097
   46.0750000000000        -1.759852969074249E-097
   46.2650000000000        -2.340415712998962E-097
   46.4550000000000        -2.918006709769573E-097
   46.6450000000000        -3.373875156583501E-097
   46.8350000000000        -3.519014430305435E-097
   47.0250000000000        -3.074090282082792E-097
   47.2150000000000        -1.648417779631922E-097
   47.4050000000000         1.280614554398085E-097
   47.5950000000000         6.385668150940857E-097
   47.7850000000000         1.450193657482337E-096
   47.9750000000000         2.662828124526728E-096
   48.1650000000000         4.390615936090321E-096
   48.3550000000000         6.755568203855910E-096
   48.5450000000000         9.873095742676493E-096
   48.7350000000000         1.382290628381541E-095
   48.9250000000000         1.859455077591684E-095
   49.1150000000000         2.399125345484382E-095
   49.3050000000000         2.946879751671066E-095
   49.4950000000000         3.387928850823211E-095
   49.6850000000000         3.508510640925713E-095
   49.8750000000000         2.941092908959114E-095
   50.0650000000000         1.091891551513666E-095
   50.2550000000000        -2.946489125890915E-095
   50.4450000000000        -1.048612090828632E-094
   50.6350000000000        -2.331311395049066E-094
   50.8250000000000        -4.368792443298931E-094
   51.0150000000000        -7.419823849015931E-094
   51.2050000000000        -1.173460318338783E-093
   51.3950000000000        -1.747042740630650E-093
   51.5850000000000        -2.454343214001177E-093
   51.7750000000000        -3.239276013592692E-093
   51.9650000000000        -3.963504196022135E-093
   52.1550000000000        -4.359674334278858E-093
   52.3450000000000        -3.973510632665745E-093
   52.5350000000000        -2.100179062234406E-093
   52.7250000000000         2.272565395169007E-093
   52.9150000000000         1.049139307349927E-092
   53.1050000000000         2.419718848244191E-092
   53.2950000000000         4.516248860757062E-092
   53.4850000000000         7.493200066501134E-092
   53.6750000000000         1.141742541060786E-091
   53.8650000000000         1.616438804516072E-091
   54.0550000000000         2.126648754025426E-091
   54.2450000000000         2.570906146164434E-091
   54.4350000000000         2.767960664839450E-091
   54.6250000000000         2.429346836508596E-091
   54.8150000000000         1.134702875840261E-091
   55.0050000000000        -1.681093071156685E-091
   55.1950000000000        -6.714726781987839E-091
   55.3850000000000        -1.473483465694789E-090
   55.5750000000000        -2.644931807027938E-090
   55.7650000000000        -4.226792003176126E-090
   55.9550000000000        -6.192710444733638E-090
   56.1450000000000        -8.395029006332810E-090
   56.3350000000000        -1.049346458785898E-089
   56.5250000000000        -1.186918736678517E-089
   56.7150000000000        -1.153311181599561E-089
   56.9050000000000        -8.046311197151153E-090
   57.0950000000000         5.171053655302351E-091
   57.2850000000000         1.651881878685765E-089
   57.4750000000000         4.255368001194367E-089
   57.6650000000000         8.101610151297698E-089
   57.8550000000000         1.333452370368203E-088
   58.0450000000000         1.988611198494792E-088
   58.2350000000000         2.731296381013302E-088
   58.4250000000000         3.458562331364074E-088
   58.6150000000000         3.984213307527225E-088
   58.8050000000000         4.013493291438996E-088
   58.9950000000000         3.122581148917495E-088
   59.1850000000000         7.516860176595310E-089
   59.3750000000000        -3.775527609138064E-088
   59.5650000000000        -1.118935086141701E-087
   59.7550000000000        -2.214799509785061E-087
   59.9450000000000        -3.702636155306905E-087
   60.1350000000000        -5.560028810289211E-087
   60.3250000000000        -7.661574540631300E-087
   60.5150000000000        -9.725059448905877E-087
   60.7050000000000        -1.125071043712901E-086
   60.8950000000000        -1.146191173662663E-086
   61.0850000000000        -9.261979594890592E-087
   61.2750000000000        -3.229279320724416E-087
   61.4650000000000         8.318452915409976E-087
   61.6550000000000         2.715150722077608E-086
   61.8450000000000         5.480250377102362E-086
   62.0350000000000         9.204268043294894E-086
   62.2250000000000         1.381250069388380E-085
   62.4150000000000         1.897838396061365E-085
   62.6050000000000         2.400265855767329E-085
   62.7950000000000         2.768249451026517E-085
   62.9850000000000         2.819154634180882E-085
   63.1750000000000         2.300512505950249E-085
   63.3650000000000         8.920215568605598E-086
   63.5550000000000        -1.776371122099258E-085
   63.7450000000000        -6.082323526500853E-085
   63.9350000000000        -1.233620715828179E-084
   64.1250000000000        -2.066544108162548E-084
   64.3150000000000        -3.085284628714233E-084
   64.5050000000000        -4.212976688832942E-084
   64.6950000000000        -5.293475727585353E-084
   64.8850000000000        -6.066358566721976E-084
   65.0750000000000        -6.145648901573693E-084
   65.2650000000000        -5.009351113523054E-084
   65.4550000000000        -2.009650458058202E-084
   65.6450000000000         3.583676285064712E-084
   65.8350000000000         1.249211257879460E-083
   66.0250000000000         2.527460194822542E-083
   66.2150000000000         4.209856913296070E-083
   66.4050000000000         6.242981842166108E-083
   66.5950000000000         8.464767877908755E-083
   66.7850000000000         1.056112311193743E-082
   66.9750000000000         1.202300129678865E-082
   67.1650000000000         1.211282045829598E-082
   67.3550000000000         9.853327709776416E-083
   67.5450000000000         4.056435847165954E-083
   67.7350000000000        -6.586508238136377E-083
   67.9250000000000        -2.332922643579975E-082
   68.1150000000000        -4.708676689472124E-082
   68.3050000000000        -7.802630481613385E-082
   68.4950000000000        -1.150282836229620E-081
   68.6850000000000        -1.550361039608601E-081
   68.8750000000000        -1.923461888808387E-081
   69.0650000000000        -2.179359022485354E-081
   69.2550000000000        -2.189835068378690E-081
   69.4450000000000        -1.787984113231769E-081
   69.6350000000000        -7.744388511618462E-082
   69.8250000000000         1.066140247073967E-081
   70.0150000000000         3.934761451185107E-081
   70.2050000000000         7.970749577492509E-081
   70.3950000000000         1.318524016918736E-080
   70.5850000000000         1.937565831712165E-080
   70.7750000000000         2.602496091804841E-080
   70.9650000000000         3.219465998778753E-080
   71.1550000000000         3.642751150984273E-080
   71.3450000000000         3.668399661460601E-080
   71.5350000000000         3.034567755277417E-080
   71.7250000000000         1.432697878973051E-080
   71.9150000000000        -1.465692633494652E-080
   72.1050000000000        -5.961720726190661E-080
   72.2950000000000        -1.225714169526472E-079
   72.4850000000000        -2.035531835342067E-079
   72.6750000000000        -2.993626713546833E-079
   72.8650000000000        -4.021223755622481E-079
   73.0550000000000        -4.977772370951551E-079
   73.2450000000000        -5.647728382484747E-079
   73.4350000000000        -5.732559414939368E-079
   73.6250000000000        -4.852577015746922E-079
   73.8150000000000        -2.564243262842052E-079
   74.0050000000000         1.600725339371258E-079
   74.1950000000000         8.068166047990832E-079
   74.3850000000000         1.712105180107534E-078
   74.5750000000000         2.876344066324389E-078
   74.7650000000000         4.255115266493960E-078
   74.9550000000000         5.739870032241256E-078
   75.1450000000000         7.138173083645305E-078
   75.3350000000000         8.156635406462653E-078
   75.5250000000000         8.391053658795713E-078
   75.7150000000000         7.329685583043450E-078
   75.9050000000000         4.376810083868810E-078
   76.0950000000000        -1.095569869929485E-078
   76.2850000000000        -9.660236135129239E-078
   76.4750000000000        -2.170545709035857E-077
   76.6650000000000        -3.726143520126547E-077
   76.8550000000000        -5.578607757058023E-077
   77.0450000000000        -7.592252436048206E-077
   77.2350000000000        -9.525268533243087E-077
   77.4250000000000        -1.100855095708545E-076
   77.6150000000000        -1.153349426776903E-076
   77.8050000000000        -1.045588106881127E-076
   77.9950000000000        -7.024355980148212E-077
   78.1850000000000        -4.427183339710637E-078
   78.3750000000000         1.002509196982374E-076
   78.5650000000000         2.490044837399946E-076
   78.7550000000000         4.428330360547774E-076
   78.9450000000000         6.759765190520949E-076
   79.1350000000000         9.330374397245788E-076
   79.3250000000000         1.186050324470850E-075
   79.5150000000000         1.391941115429931E-075
   79.7050000000000         1.491000124313061E-075
   79.8950000000000         1.407172163394421E-075
   80.0850000000000         1.051117275591646E-075
   80.2750000000000         3.270749664947114E-076
   80.4650000000000        -8.554764642129300E-076
   80.6550000000000        -2.564594323997736E-075
   80.8450000000000        -4.822769243627761E-075
   81.0350000000000        -7.578392818929889E-075
   81.2250000000000        -1.067333429038901E-074
   81.4150000000000        -1.380960084500775E-074
   81.6050000000000        -1.651979257565455E-074
   81.7950000000000        -1.814798971143651E-074
   81.9850000000000        -1.784962796357951E-074
   82.1750000000000        -1.462052666358549E-074
   82.3650000000000        -7.366123295774611E-075
   82.5550000000000         4.978376534294897E-075
   82.7450000000000         2.326839388927996E-074
   82.9350000000000         4.790698856864936E-074
   83.1250000000000         7.854218173269561E-074
   83.3150000000000         1.137193105542403E-073
   83.5050000000000         1.505176590134270E-073
   83.6950000000000         1.842182285364589E-073
   83.8850000000000         2.080691598695186E-073
   84.0750000000000         2.132350729795254E-073
   84.2650000000000         1.890335396826174E-073
   84.4550000000000         1.235720678305660E-073
   84.6450000000000         4.897377935198047E-075
   84.8350000000000        -1.772503490680201E-073
   85.0250000000000        -4.290282156776569E-073
   85.2150000000000        -7.494480653492220E-073
   85.4050000000000        -1.126827319990971E-072
   85.5950000000000        -1.534999193349919E-072
   85.7850000000000        -1.929718720427088E-072
   85.9750000000000        -2.245893120462224E-072
   86.1650000000000        -2.396461343630792E-072
   86.3550000000000        -2.273921606200474E-072
   86.5450000000000        -1.755620734278194E-072
   86.7350000000000        -7.139291691159507E-073
   86.9250000000000         9.677229438501691E-073
   87.1150000000000         3.372336851230807E-072
   87.3050000000000         6.520384197177905E-072
   87.4950000000000         1.033535674914580E-071
   87.6850000000000         1.460605756292244E-071
   87.8750000000000         1.894943523395047E-071
   88.0650000000000         2.277955943164111E-071
   88.2550000000000         2.529021080417748E-071
   88.4450000000000         2.546028179223433E-071
   88.6350000000000         2.209243774405604E-071
   88.8250000000000         1.389586402855537E-071
   89.0150000000000        -3.770519940035275E-073
   89.2050000000000        -2.173309862565223E-071
   89.3950000000000        -5.067787643111370E-071
   89.5850000000000        -8.689885743993290E-071
   89.7750000000000        -1.289089533577325E-070
   89.9650000000000        -1.736814381343441E-070
   90.1550000000000        -2.163230876539189E-070
   90.3450000000000        -2.498495086243339E-070
   90.5350000000000        -2.651429611515891E-070
   90.7250000000000        -2.511858958283459E-070
   90.9150000000000        -1.956695244108664E-070
   91.1050000000000        -8.607197541367673E-071
   91.2950000000000         8.871948080382639E-071
   91.4850000000000         3.362074024781430E-070
   91.6750000000000         6.575327471389198E-070
   91.8650000000000         1.044290185851178E-069
   92.0550000000000         1.475141359800208E-069
   92.2450000000000         1.912592774835556E-069
   92.4350000000000         2.300453385207516E-069
   92.6250000000000         2.562633867433144E-069
   92.8150000000000         2.604074539887109E-069
   93.0050000000000         2.314664857886997E-069
   93.1950000000000         1.577011789806877E-069
   93.3850000000000         2.787907760514681E-070
   93.5750000000000        -1.669865540152167E-069
   93.7650000000000        -4.313951798491012E-069
   93.9550000000000        -7.626834771055088E-069
   94.1450000000000        -1.148073609970227E-068
   94.3350000000000        -1.561711259229154E-068
   94.5250000000000        -1.962080969731897E-068
   94.7150000000000        -2.290311204838702E-068
   94.9050000000000        -2.469994486629603E-068
   95.0950000000000        -2.409228992689011E-068
   95.2850000000000        -2.005612156418148E-068
   95.4750000000000        -1.154855935802537E-068
   95.6650000000000         2.364819711708617E-069
   95.8550000000000         2.233973891963801E-068
   96.0450000000000         4.854307566107729E-068
   96.2350000000000         8.041234517938187E-068
   96.4250000000000         1.164024649107464E-067
   96.6150000000000         1.537468251479105E-067
   96.8050000000000         1.882696586485926E-067
   96.9950000000000         2.142962332287825E-067
   97.1850000000000         2.247150768285875E-067
   97.3750000000000         2.112505095456801E-067
   97.5650000000000         1.650021368278728E-067
   97.7550000000000         7.729843872786316E-068
   97.9450000000000        -5.910797098124711E-068
   98.1350000000000        -2.485072149968394E-067
   98.3250000000000        -4.904091535098761E-067
   98.5150000000000        -7.775353730796821E-067
   98.7050000000000        -1.093798686784358E-066
   98.8950000000000        -1.412517182087098E-066
   99.0850000000000        -1.695184749987680E-066
   99.2750000000000        -1.891186133007953E-066
   99.4650000000000        -1.938889982856301E-066
   99.6550000000000        -1.768564065641612E-066
   99.8450000000000        -1.307516961395767E-066
   100.035000000000        -4.877646022481603E-067
   100.225000000000         7.436662472296951E-067
   100.415000000000         2.411961798139396E-066
   100.605000000000         4.499805795050718E-066
   100.795000000000         6.931713004319634E-066
   100.985000000000         9.558919243033258E-066
   101.175000000000         1.214688276607057E-065
   101.365000000000         1.436797181803032E-065
   101.555000000000         1.580233239020166E-065
   101.745000000000         1.595015819329116E-065
   101.935000000000         1.425851830955959E-065
   102.125000000000         1.016542830353627E-065
   102.315000000000         3.162874634299267E-066
   102.505000000000        -7.121063190565703E-066
   102.695000000000        -2.082304891843870E-065
   102.885000000000        -3.773316489632021E-065
   103.075000000000        -5.717966581581734E-065
   103.265000000000        -7.792175690001502E-065
   103.455000000000        -9.806609838007114E-065
   103.645000000000        -1.150261241801946E-064
   103.835000000000        -1.255457433980718E-064
   104.025000000000        -1.258099339843137E-064
   104.215000000000        -1.116634419008134E-064
   104.405000000000        -7.895456301029999E-065
   104.595000000000        -2.401317860602157E-065
   104.785000000000         5.573961998943829E-065
   104.975000000000         1.610690182968974E-064
   105.165000000000         2.901297722304440E-064
   105.355000000000         4.376571771146512E-064
   105.545000000000         5.942325060637522E-064
   105.735000000000         7.457342364872456E-064
   105.925000000000         8.731076085098767E-064
   106.115000000000         9.525993880770417E-064
   106.305000000000         9.566079945807892E-064
   106.495000000000         8.552869625502375E-064
   106.685000000000         6.190076990031073E-064
   106.875000000000         2.217319382472471E-064
   107.065000000000        -3.547373180401703E-064
   107.255000000000        -1.115765813176088E-063
   107.445000000000        -2.048431134225812E-063
   107.635000000000        -3.116022631598420E-063
   107.825000000000        -4.253082792809596E-063
   108.015000000000        -5.361730859119678E-063
   108.205000000000        -6.310142345658298E-063
   108.395000000000        -6.934145069365316E-063
   108.585000000000        -7.042907518657111E-063
   108.775000000000        -6.429611614414132E-063
   108.965000000000        -4.887792648354547E-063
   109.155000000000        -2.233671881976533E-063
   109.345000000000         1.665712986145113E-063
   109.535000000000         6.859460619883266E-063
   109.725000000000         1.327656247907686E-062
   109.915000000000         2.068914163928817E-062
   110.105000000000         2.867887234830322E-062