  -1.42500000000000         0.000000000000000E+000
  -1.23500000000000         0.000000000000000E+000
  -1.04500000000000         0.000000000000000E+000
 -0.855000000000000         0.000000000000000E+000
 -0.665000000000000         0.000000000000000E+000
 -0.475000000000000         0.000000000000000E+000
 -0.285000000000000         0.000000000000000E+000
 -9.499999999999975E-002    0.000000000000000E+000
  9.500000000000020E-002    0.000000000000000E+000
  0.285000000000000         0.000000000000000E+000
  0.475000000000000         0.000000000000000E+000
  0.665000000000000         0.000000000000000E+000
  0.855000000000000         0.000000000000000E+000
   1.04500000000000         0.000000000000000E+000
   1.23500000000000         0.000000000000000E+000
   1.42500000000000         0.000000000000000E+000
   1.61500000000000         0.000000000000000E+000
   1.80500000000000         0.000000000000000E+000
   1.99500000000000         0.000000000000000E+000
   2.18500000000000         0.000000000000000E+000
   2.37500000000000         0.000000000000000E+000
   2.56500000000000         0.000000000000000E+000
   2.75500000000000         0.000000000000000E+000
   2.94500000000000         0.000000000000000E+000
   3.13500000000000         0.000000000000000E+000
   3.32500000000000         0.000000000000000E+000
   3.51500000000000         0.000000000000000E+000
   3.70500000000000         0.000000000000000E+000
   3.89500000000000         0.000000000000000E+000
   4.08500000000000         0.000000000000000E+000
   4.27500000000000         0.000000000000000E+000
   4.46500000000000         0.000000000000000E+000
   4.65500000000000         0.000000000000000E+000
   4.84500000000000         0.000000000000000E+000
   5.03500000000000         0.000000000000000E+000
   5.22500000000000         0.000000000000000E+000
   5.41500000000000         0.000000000000000E+000
   5.60500000000000         0.000000000000000E+000
   5.79500000000000         0.000000000000000E+000
   5.98500000000000         0.000000000000000E+000
   6.17500000000000         0.000000000000000E+000
   6.36500000000000         0.000000000000000E+000
   6.55500000000000         1.479937120296777E-184
   6.74500000000000         2.147732863557425E-179
   6.93500000000000         1.106993058339709E-176
   7.12500000000000         3.620691403748252E-174
   7.31500000000000         1.547079639124290E-171
   7.50500000000000         1.059340615373969E-169
   7.69500000000000         3.247977675484521E-168
   7.88500000000000         3.998989589735306E-167
   8.07500000000000        -7.695125771928582E-166
   8.26500000000000        -5.258208290121601E-164
   8.45500000000000        -1.532899259568503E-162
   8.64500000000000        -3.187904227921292E-161
   8.83500000000000        -5.316130037559475E-160
   9.02500000000000        -7.487506243453865E-159
   9.21500000000000        -9.177637096942736E-158
   9.40500000000000        -9.986045727427868E-157
   9.59500000000000        -9.784535662768144E-156
   9.78500000000000        -8.727858950384651E-155
   9.97500000000000        -7.149001287110037E-154
   10.1650000000000        -5.415035163940892E-153
   10.3550000000000        -3.815059686186145E-152
   10.5450000000000        -2.512275627993127E-151
   10.7350000000000        -1.552736081544780E-150
   10.9250000000000        -9.039090663906263E-150
   11.1150000000000        -4.971134225716133E-149
   11.3050000000000        -2.589407890986080E-148
   11.4950000000000        -1.280247748889001E-147
   11.6850000000000        -6.018757838256628E-147
   11.8750000000000        -2.694336317714178E-146
   12.0650000000000        -1.149693864514167E-145
   12.2550000000000        -4.679314065128576E-145
   12.4450000000000        -1.816961150785776E-144
   12.6350000000000        -6.728827729163001E-144
   12.8250000000000        -2.374333064370009E-143
   13.0150000000000        -7.967799087316600E-143
   13.2050000000000        -2.534807184773773E-142
   13.3950000000000        -7.604665549473369E-142
   13.5850000000000        -2.132665917130326E-141
   13.7750000000000        -5.504125321297153E-141
   13.9650000000000        -1.267366173199812E-140
   14.1550000000000        -2.413116008395789E-140
   14.3450000000000        -2.811678316606151E-140
   14.5350000000000         4.104558727756546E-140
   14.7250000000000         4.331404913927186E-139
   14.9150000000000         1.925434344295193E-138
   15.1050000000000         6.552603924273031E-138
   15.2950000000000         1.856842361832844E-137
   15.4850000000000         4.320226516264511E-137
   15.6750000000000         7.083370215843267E-137
   15.8650000000000        -1.723775923096535E-138
   16.0550000000000        -6.770758164995389E-136
   16.2450000000000        -3.898292482604860E-135
   16.4350000000000        -1.628330676434105E-134
   16.6250000000000        -5.847272086619814E-134
   16.8150000000000        -1.904989288632256E-133
   17.0050000000000        -5.767009868709744E-133
   17.1950000000000        -1.642340218637469E-132
   17.3850000000000        -4.428341536131478E-132
   17.5750000000000        -1.133756728303302E-131
   17.7650000000000        -2.755883880761938E-131
   17.9550000000000        -6.339283963830474E-131
   18.1450000000000        -1.369079832093966E-130
   18.3350000000000        -2.730853836820752E-130
   18.5250000000000        -4.851607648937511E-130
   18.7150000000000        -6.943586492042076E-130
   18.9050000000000        -4.672697574560250E-130
   19.0950000000000         1.739047698792955E-129
   19.2850000000000         1.057798284823987E-128
   19.4750000000000         3.881523289405566E-128
   19.6650000000000         1.192694417804633E-127
   19.8550000000000         3.322469826226282E-127
   20.0450000000000         8.665298665947572E-127
   20.2350000000000         2.151047869919545E-126
   20.4250000000000         5.131739006281223E-126
   20.6150000000000         1.183965393115656E-125
   20.8050000000000         2.653012058707080E-125
   20.9950000000000         5.791640010265004E-125
   21.1850000000000         1.234514102213835E-124
   21.3750000000000         2.573405697124175E-124
   21.5650000000000         5.251360969182153E-124
   21.7550000000000         1.049461045538744E-123
   21.9450000000000         2.053445508590911E-123
   22.1350000000000         3.929676499218557E-123
   22.3250000000000         7.339093655416164E-123
   22.5150000000000         1.332605803094041E-122
   22.7050000000000         2.337764716448249E-122
   22.8950000000000         3.919957904648435E-122
   23.0850000000000         6.160344821118634E-122
   23.2750000000000         8.704264616968635E-122
   23.4650000000000         9.848781050159145E-122
   23.6550000000000         4.353028426708565E-122
   23.8450000000000        -2.149115541520053E-121
   24.0350000000000        -1.004175471457729E-120
   24.2250000000000        -3.058641215974625E-120
   24.4150000000000        -7.948107416186363E-120
   24.6050000000000        -1.889394511022177E-119
   24.7950000000000        -4.226868699712848E-119
   24.9850000000000        -9.025006250080956E-119
   25.1750000000000        -1.853327584780385E-118
   25.3650000000000        -3.676580818903648E-118
   25.5550000000000        -7.062943150544533E-118
   25.7450000000000        -1.315426818577176E-117
   25.9350000000000        -2.375358462413654E-117
   26.1250000000000        -4.155285310356340E-117
   26.3150000000000        -7.028334030193799E-117
   26.5050000000000        -1.145679278380424E-116
   26.6950000000000        -1.790343990541750E-116
   26.8850000000000        -2.658969539393171E-116
   27.0750000000000        -3.697089342763349E-116
   27.2650000000000        -4.673715163584350E-116
   27.4550000000000        -5.009363381180143E-116
   27.6450000000000        -3.507540303100462E-116
   27.8350000000000         2.018541195183429E-116
   28.0250000000000         1.517994222472101E-115
   28.2150000000000         4.133987832954128E-115
   28.4050000000000         8.742132471097975E-115
   28.5950000000000         1.603306953073298E-114
   28.7850000000000         2.623856512758718E-114
   28.9750000000000         3.809932875069312E-114
   29.1650000000000         4.682526161496261E-114
   29.3550000000000         4.042892605601531E-114
   29.5450000000000        -6.350599275462210E-115
   29.7350000000000        -1.413307600771891E-113
   29.9250000000000        -4.477849578121065E-113
   30.1150000000000        -1.060126383050765E-112
   30.3050000000000        -2.178716219087137E-112
   30.4950000000000        -4.074636345049486E-112
   30.6850000000000        -7.065650732403639E-112
   30.8750000000000        -1.142919999577786E-111
   31.0650000000000        -1.719576031476708E-111
   31.2550000000000        -2.373621199518584E-111
   31.4450000000000        -2.902324907956610E-111
   31.6350000000000        -2.841908421238185E-111
   31.8250000000000        -1.284089714190328E-111
   32.0150000000000         3.377932111909635E-111
   32.2050000000000         1.376280882176107E-110
   32.3950000000000         3.382011028869896E-110
   32.5850000000000         6.902329326413223E-110
   32.7750000000000         1.261749374464058E-109
   32.9650000000000         2.123664987536431E-109
   33.1550000000000         3.323658720474125E-109
   33.3450000000000         4.833795332410686E-109
   33.5350000000000         6.458111116436442E-109
   33.7250000000000         7.684504015010654E-109
   33.9150000000000         7.467304552995837E-109
   34.1050000000000         3.937072755036266E-109
   34.2950000000000        -5.941219501052828E-109
   34.4850000000000        -2.669287712123247E-108
   34.6750000000000        -6.449161737154637E-108
   34.8650000000000        -1.268781958405368E-107
   35.0550000000000        -2.215950105228521E-107
   35.2450000000000        -3.538795179941979E-107
   35.4350000000000        -5.213364269016560E-107
   35.6250000000000        -7.053472496791841E-107
   35.8150000000000        -8.580098089658506E-107
   36.0050000000000        -8.840491480487053E-107
   36.1950000000000        -6.183288590879025E-107
   36.3850000000000         1.980508060173178E-107
   36.5750000000000         1.936048700792688E-106
   36.7650000000000         5.078159098993946E-106
   36.9550000000000         1.017722903448385E-105
   37.1450000000000         1.774199420130902E-105
   37.3350000000000         2.800510060537501E-105
   37.5250000000000         4.052002143319699E-105
   37.7150000000000         5.353185783422211E-105
   37.9050000000000         6.308270891400468E-105
   38.0950000000000         6.185846342383324E-105
   38.2850000000000         3.787805005656684E-105
   38.4750000000000        -2.671118567007543E-105
   38.6650000000000        -1.562174884912312E-104
   38.8550000000000        -3.805024839972280E-104
   39.0450000000000        -7.312828341156882E-104
   39.2350000000000        -1.233831621035061E-103
   39.4250000000000        -1.891833435036566E-103
   39.6150000000000        -2.662945666131392E-103
   39.8050000000000        -3.422958536843103E-103
   39.9950000000000        -3.917761699228968E-103
   40.1850000000000        -3.705181488926960E-103
   40.3750000000000        -2.093808663867861E-103
   40.5650000000000         1.906158779167761E-103
   40.7550000000000         9.593829930479914E-103
   40.9450000000000         2.250962057553584E-102
   41.1350000000000         4.223098413317253E-102
   41.3250000000000         6.995811209548187E-102
   41.5150000000000         1.058043740227156E-101
   41.7050000000000         1.477071764729029E-101
   41.8950000000000         1.898988257118915E-101
   42.0850000000000         2.209376004691253E-101
   42.2750000000000         2.214124582665263E-101
   42.4650000000000         1.616164106096976E-101
   42.6550000000000        -2.546541060221690E-104
   42.8450000000000        -3.184774058319789E-101
   43.0350000000000        -8.574417472924175E-101
   43.2250000000000        -1.684818180003775E-100
   43.4150000000000        -2.858145058292973E-100
   43.6050000000000        -4.402549287008169E-100
   43.7950000000000        -6.277497356004102E-100
   43.9850000000000        -8.331232564008709E-100
   44.1750000000000        -1.024311548169044E-099
   44.3650000000000        -1.145664464071550E-099
   44.5550000000000        -1.110959448032272E-099
   44.7450000000000        -7.972393011827531E-100
   44.9350000000000        -4.112397979118567E-101
   45.1250000000000         1.360210862352193E-099
   45.3150000000000         3.640741925398171E-099
   45.5050000000000         7.047087942978451E-099
   45.6950000000000         1.180689711631244E-098
   45.8850000000000         1.808154564798097E-098
   46.0750000000000         2.590095045030233E-098
   46.2650000000000         3.507830178869506E-098
   46.4550000000000         4.510124810259522E-098
   46.6450000000000         5.499215564726988E-098
   46.8350000000000         6.312176782730116E-098
   47.0250000000000         6.694610840432668E-098
   47.2150000000000         6.261476903365356E-098
   47.4050000000000         4.437096235300791E-098
   47.5950000000000         3.635591666152199E-099
   47.7850000000000        -7.234742976517393E-098
   47.9750000000000        -2.024038454729330E-097
   48.1650000000000        -4.138549475208661E-097
   48.3550000000000        -7.452253520590500E-097
   48.5450000000000        -1.248509057885089E-096
   48.7350000000000        -1.989473778900331E-096
   48.9250000000000        -3.043266073946139E-096
   49.1150000000000        -4.480880608986785E-096
   49.3050000000000        -6.339911417051667E-096
   49.4950000000000        -8.570634892940454E-096
   49.6850000000000        -1.094642378947272E-095
   49.8750000000000        -1.292677786668565E-095
   50.0650000000000        -1.346355826285696E-095
   50.2550000000000        -1.074882753627874E-095
   50.4450000000000        -1.919419541304022E-096
   50.6350000000000         1.723683615356674E-095
   50.8250000000000         5.248095027997454E-095
   51.0150000000000         1.110676910400085E-094
   51.2050000000000         2.011833146885235E-094
   51.3950000000000         3.305140464990177E-094
   51.5850000000000         5.034684154406632E-094
   51.7750000000000         7.164847533786425E-094
   51.9650000000000         9.508351964691325E-094
   52.1550000000000         1.162464906342512E-093
   52.3450000000000         1.268786580332950E-093
   52.5350000000000         1.133123176252945E-093
   52.7250000000000         5.488158419085759E-094
   52.9150000000000        -7.729515704256660E-094
   53.1050000000000        -3.204700139655632E-093
   53.2950000000000        -7.182978767790170E-093
   53.4850000000000        -1.315257328640294E-092
   53.6750000000000        -2.145539338790861E-092
   53.8650000000000        -3.214159386870649E-092
   54.0550000000000        -4.468016592596167E-092
   54.2450000000000        -5.755154298685497E-092
   54.4350000000000        -6.771938972212428E-092
   54.6250000000000        -7.000725394560129E-092
   54.8150000000000        -5.645323389453700E-092
   55.0050000000000        -1.578698959615434E-092
   55.1950000000000         6.672875456269333E-092
   55.3850000000000         2.087267480039570E-091
   55.5750000000000         4.289279212841775E-091
   55.7650000000000         7.434547292068382E-091
   55.9550000000000         1.159522722160338E-090
   56.1450000000000         1.665765046397938E-090
   56.3350000000000         2.218619961206909E-090
   56.5250000000000         2.724673766183548E-090
   56.7150000000000         3.019731760879114E-090
   56.9050000000000         2.846828886454929E-090
   57.0950000000000         1.837515271987618E-090
   57.2850000000000        -4.963711118000274E-091
   57.4750000000000        -4.749652449789187E-090
   57.6650000000000        -1.157465895195304E-089
   57.8550000000000        -2.157724384990184E-089
   58.0450000000000        -3.513643325317487E-089
   58.2350000000000        -5.212603632188069E-089
   58.4250000000000        -7.152123754876979E-089
   58.6150000000000        -9.088555943262112E-089
   58.8050000000000        -1.057569809106104E-088
   58.9950000000000        -1.089899797879576E-088
   59.1850000000000        -9.016594775584369E-089
   59.3750000000000        -3.525943590296357E-089
   59.5650000000000         7.315933658813634E-089
   59.7550000000000         2.548007249050661E-088
   59.9450000000000         5.291234413071296E-088
   60.1350000000000         9.108309692542826E-088
   60.3250000000000         1.402821692489637E-087
   60.5150000000000         1.986121539479296E-087
   60.7050000000000         2.606614452894433E-087
   60.8950000000000         3.158934460831514E-087
   61.0850000000000         3.468777075192761E-087
   61.2750000000000         3.276200555909557E-087
   61.4650000000000         2.224259251776380E-087
   61.6550000000000        -1.404852468608193E-088
   61.8450000000000        -4.346532651843730E-087
   62.0350000000000        -1.094356438617075E-086
   62.2250000000000        -2.040264486642377E-086
   62.4150000000000        -3.295644596549191E-086
   62.6050000000000        -4.836734533703639E-086
   62.7950000000000        -6.561711928449447E-086
   62.9850000000000        -8.252351537057125E-086
   63.1750000000000        -9.530808654175900E-086
   63.3650000000000        -9.816793810740777E-086
   63.5550000000000        -8.294244527534051E-086
   63.7450000000000        -3.901413775207999E-086
   63.9350000000000         4.636186601462452E-086
   64.1250000000000         1.870493331727698E-085
   64.3150000000000         3.960463074743854E-085
   64.5050000000000         6.822071372285081E-085
   64.6950000000000         1.045382791490629E-084
   64.8850000000000         1.469799024368586E-084
   65.0750000000000         1.915714120149522E-084
   65.2650000000000         2.309772090760191E-084
   65.4550000000000         2.535027621431716E-084
   65.6450000000000         2.422387492232069E-084
   65.8350000000000         1.746185564980969E-084
   66.0250000000000         2.277374784582398E-085
   66.2150000000000        -2.448104456446147E-084
   66.4050000000000        -6.597354606854575E-084
   66.5950000000000        -1.247565399590028E-083
   66.7850000000000        -2.018511891595062E-083
   66.9750000000000        -2.954479759182409E-083
   67.1650000000000        -3.992416237525774E-083
   67.3550000000000        -5.004581187396734E-083
   67.5450000000000        -5.777380939442328E-083
   67.7350000000000        -5.991829151715923E-083
   67.9250000000000        -5.210514438601631E-083
   68.1150000000000        -2.878091045638955E-083
   68.3050000000000         1.655422471717856E-083
   68.4950000000000         9.077191585687506E-083
   68.6850000000000         2.000729700974049E-082
   68.8750000000000         3.483515805081307E-082
   69.0650000000000         5.348680009119920E-082
   69.2550000000000         7.511939905126383E-082
   69.4450000000000         9.775072466524939E-082
   69.6350000000000         1.178484028674457E-081
   69.8250000000000         1.299281893289629E-081
   70.0150000000000         1.262418344253223E-081
   70.2050000000000         9.667254669848103E-082
   70.3950000000000         2.899662575307936E-082
   70.5850000000000        -9.029184772484718E-082
   70.7750000000000        -2.743688067480163E-081
   70.9650000000000        -5.334512820984820E-081
   71.1550000000000        -8.709564735803810E-081
   71.3450000000000        -1.278345069683469E-080
   71.5350000000000        -1.728715232686852E-080
   71.7250000000000        -2.169482655030639E-080
   71.9150000000000        -2.514865395515571E-080
   72.1050000000000        -2.639394726791971E-080
   72.2950000000000        -2.374281691282702E-080
   72.4850000000000        -1.509142835293049E-080
   72.6750000000000         1.977504164549666E-081
   72.8650000000000         2.997011406464710E-080
   73.0550000000000         7.109574979353319E-080
   73.2450000000000         1.266849074207406E-079
   73.4350000000000         1.963872901700628E-079
   73.6250000000000         2.771502047767424E-079
   73.8150000000000         3.620160378096178E-079
   74.0050000000000         4.388335818568120E-079
   74.1950000000000         4.890526929333690E-079
   74.3850000000000         4.868638493337594E-079
   74.5750000000000         3.990485304269842E-079
   74.7650000000000         1.860125549433894E-079
   74.9550000000000        -1.954344848660997E-079
   75.1450000000000        -7.869397603148800E-079
   75.3350000000000        -1.620516572050511E-078
   75.5250000000000        -2.707048995292050E-078
   75.7150000000000        -4.021237435491511E-078
   75.9050000000000        -5.483339276213896E-078
   76.0950000000000        -6.938818027400865E-078
   76.2850000000000        -8.138048245251800E-078
   76.4750000000000        -8.719524176220975E-078
   76.6650000000000        -8.201530276563623E-078
   76.8550000000000        -5.988824756293417E-078
   77.0450000000000        -1.402346796834992E-078
   77.2350000000000         6.259038923463480E-078
   77.4250000000000         1.761563954592913E-077
   77.6150000000000         3.305509220185098E-077
   77.8050000000000         5.252722716061039E-077
   77.9950000000000         7.528746118420300E-077
   78.1850000000000         9.960009532541523E-077
   78.3750000000000         1.224262264085650E-076
   78.5650000000000         1.391381450089974E-076
   78.7550000000000         1.433225264067277E-076
   78.9450000000000         1.267570072967963E-076
   79.1350000000000         7.966633698570403E-077
   79.3250000000000        -8.618708188554740E-078
   79.5150000000000        -1.484694744119892E-076
   79.7050000000000        -3.481144309076403E-076
   79.8950000000000        -6.110558937356138E-076
   80.0850000000000        -9.327323904540469E-076
   80.2750000000000        -1.296522027219549E-075
   80.4650000000000        -1.669342527184261E-075
   80.6550000000000        -1.997315114416171E-075
   80.8450000000000        -2.202217615634300E-075
   81.0350000000000        -2.179742553700269E-075
   81.2250000000000        -1.800870822285048E-075
   81.4150000000000        -9.179266112455268E-076
   81.6050000000000         6.229680824550556E-076
   81.7950000000000         2.961352428602673E-075
   81.9850000000000         6.192426096150604E-075
   82.1750000000000         1.032692081265145E-074
   82.3650000000000         1.524138018317664E-074
   82.5550000000000         2.062117693651507E-074
   82.7450000000000         2.590102645268008E-074
   82.9350000000000         3.021079640809125E-074
   83.1250000000000         3.233793059700001E-074
   83.3150000000000         3.072151897310535E-074
   83.5050000000000         2.349649010850824E-074
   83.6950000000000         8.608898828131164E-075
   83.8850000000000        -1.597606957785895E-074
   84.0750000000000        -5.195406100997489E-074
   84.2650000000000        -1.002366681577903E-073
   84.4550000000000        -1.603808759311473E-073
   84.6450000000000        -2.299106152507984E-073
   84.8350000000000        -3.035741546130716E-073
   85.0250000000000        -3.726143683864221E-073
   85.2150000000000        -4.241684913657840E-073
   85.4050000000000        -4.409571752747121E-073
   85.5950000000000        -4.014649423804156E-073
   85.7850000000000        -2.808486541302142E-073
   85.9750000000000        -5.282811872652736E-074
   86.1650000000000         3.071981208297070E-073
   86.3550000000000         8.176218049011749E-073
   86.5450000000000         1.484597820914065E-072
   86.7350000000000         2.294618108358944E-072
   86.9250000000000         3.206040685407720E-072
   87.1150000000000         4.140266458988458E-072
   87.3050000000000         4.973669222644466E-072
   87.4950000000000         5.531848851467025E-072
   87.6850000000000         5.588252866061465E-072
   87.8750000000000         4.869633348150606E-072
   88.0650000000000         3.071086032650467E-072
   88.2550000000000        -1.165565966909821E-073
   88.4450000000000        -4.964569134243717E-072
   88.6350000000000        -1.164789917108963E-071
   88.8250000000000        -2.017050537764690E-071
   89.0150000000000        -3.027686564528804E-071
   89.2050000000000        -4.135523975831961E-071
   89.3950000000000        -5.234225987377773E-071
   89.5850000000000        -6.164304391040765E-071
   89.7750000000000        -6.708593880943944E-071
   89.9650000000000        -6.593564945689530E-071
   90.1550000000000        -5.499210760864227E-071
   90.3450000000000        -3.080395951936875E-071
   90.5350000000000         9.976229646342918E-072
   90.7250000000000         7.007440645230403E-071
   90.9150000000000         1.509069363435052E-070
   91.1050000000000         2.517335455362855E-070
   91.2950000000000         3.686905503973464E-070
   91.4850000000000         4.937793000114864E-070
   91.6750000000000         6.139273025901295E-070
   91.8650000000000         7.102863381287660E-070
   92.0550000000000         7.579785727338412E-070
   92.2450000000000         7.265418084333619E-070
   92.4350000000000         5.813498986319710E-070
   92.6250000000000         2.862834316631413E-070
   92.8150000000000        -1.921130133093658E-070
   93.0050000000000        -8.788399201036691E-070
   93.1950000000000        -1.783022157789619E-069
   93.3850000000000        -2.889083952291914E-069
   93.5750000000000        -4.147039514660397E-069
   93.7650000000000        -5.462781471589304E-069
   93.9550000000000        -6.689661504773252E-069
   94.1450000000000        -7.623087908130581E-069
   94.3350000000000        -8.000263966480758E-069
   94.5250000000000        -7.507491770244918E-069
   94.7150000000000        -5.797583464255209E-069
   94.9050000000000        -2.519757099384019E-069
   95.0950000000000         2.636158891140588E-069
   95.2850000000000         9.880432544571909E-069
   95.4750000000000         1.924988510086325E-068
   95.6650000000000         3.052317512010755E-068
   95.8550000000000         4.313083165985240E-068
   96.0450000000000         5.606930668885129E-068
   96.2350000000000         6.783195865092445E-068
   96.4250000000000         7.637347199421668E-068
   96.6150000000000         7.912727579464629E-068
   96.8050000000000         7.309741934232740E-068
   96.9950000000000         5.504634069137007E-068
   97.1850000000000         2.179719203913720E-068
   97.3750000000000        -2.933697851121590E-068
   97.5650000000000        -9.999559165846915E-068
   97.7550000000000        -1.900984051629463E-067
   97.9450000000000        -2.970933661852680E-067
   98.1350000000000        -4.151839591382534E-067
   98.3250000000000        -5.346238719052551E-067
   98.5150000000000        -6.411962360883464E-067
   98.7050000000000        -7.160220409437606E-067
   98.8950000000000        -7.358632785147388E-067
   99.0850000000000        -6.740956501405246E-067
   99.2750000000000        -5.025171970189833E-067
   99.4650000000000        -1.941266396382988E-067
   99.6550000000000         2.730575028716276E-067
   99.8450000000000         9.111635874609205E-067
   100.035000000000         1.716780939156273E-066
   100.225000000000         2.664754340123837E-066
   100.415000000000         3.701993582673321E-066
   100.605000000000         4.742052675463640E-066
   100.795000000000         5.661452250182640E-066
   100.985000000000         6.298909890533554E-066
   101.175000000000         6.458772261494047E-066
   101.365000000000         5.919969581341089E-066
   101.555000000000         4.451692829031546E-066
   101.745000000000         1.836682723946665E-066
   101.935000000000        -2.097522247673857E-066
   102.125000000000        -7.439830991222321E-066
   102.315000000000        -1.415085525703516E-065
   102.505000000000        -2.201500214605688E-065
   102.695000000000        -3.059372754354349E-065
   102.885000000000        -3.918585756247124E-065
   103.075000000000        -4.680240385783545E-065
   103.265000000000        -5.216455213154846E-065
   103.455000000000        -5.373424411465491E-065
   103.645000000000        -4.978671930407231E-065
   103.835000000000        -3.853323502848285E-065
   104.025000000000        -1.829965507285127E-065
   104.215000000000         1.223755009729862E-065
   104.405000000000         5.376225891186564E-065
   104.595000000000         1.059886508392630E-064
   104.785000000000         1.673114338224311E-064
   104.975000000000         2.344679814492090E-064
   105.165000000000         3.022547512896502E-064
   105.355000000000         3.633504240228682E-064
   105.545000000000         4.083062406203373E-064
   105.735000000000         4.257683852143710E-064
   105.925000000000         4.029961322197558E-064
   106.115000000000         3.267309491076785E-064
   106.305000000000         1.844540371141443E-064
   106.495000000000        -3.395853516108777E-065
   106.685000000000        -3.342137074448379E-064
   106.875000000000        -7.152939813802766E-064
   107.065000000000        -1.167007327693864E-063
   107.255000000000        -1.667605158870016E-063
   107.445000000000        -2.181749454877515E-063
   107.635000000000        -2.659176243932242E-063
   107.825000000000        -3.034456001530145E-063
   108.015000000000        -3.228281975349082E-063
   108.205000000000        -3.150713601283374E-063
   108.395000000000        -2.706752217864592E-063
   108.585000000000        -1.804518972579295E-063
   108.775000000000        -3.661308389622041E-064
   108.965000000000         1.658875731689479E-063
   109.155000000000         4.278043223416249E-063
   109.345000000000         7.439268450327765E-063
   109.535000000000         1.101414516587230E-062
   109.725000000000         1.478312302934713E-062
   109.915000000000         1.842467642391223E-062
   110.105000000000         2.151105636020522E-062