  -1.42500000000000         0.000000000000000E+000
  -1.23500000000000         0.000000000000000E+000
  -1.04500000000000         0.000000000000000E+000
 -0.855000000000000         0.000000000000000E+000
 -0.665000000000000         0.000000000000000E+000
 -0.475000000000000         0.000000000000000E+000
 -0.285000000000000         0.000000000000000E+000
 -9.499999999999975E-002    0.000000000000000E+000
  9.500000000000020E-002    0.000000000000000E+000
  0.285000000000000         0.000000000000000E+000
  0.475000000000000         0.000000000000000E+000
  0.665000000000000         0.000000000000000E+000
  0.855000000000000         0.000000000000000E+000
   1.04500000000000         0.000000000000000E+000
   1.23500000000000         0.000000000000000E+000
   1.42500000000000         0.000000000000000E+000
   1.61500000000000         0.000000000000000E+000
   1.80500000000000         0.000000000000000E+000
   1.99500000000000         0.000000000000000E+000
   2.18500000000000         0.000000000000000E+000
   2.37500000000000         0.000000000000000E+000
   2.56500000000000         0.000000000000000E+000
   2.75500000000000         0.000000000000000E+000
   2.94500000000000         0.000000000000000E+000
   3.13500000000000         0.000000000000000E+000
   3.32500000000000         0.000000000000000E+000
   3.51500000000000         0.000000000000000E+000
   3.70500000000000         0.000000000000000E+000
   3.89500000000000         0.000000000000000E+000
   4.08500000000000         0.000000000000000E+000
   4.27500000000000         0.000000000000000E+000
   4.46500000000000         0.000000000000000E+000
   4.65500000000000         0.000000000000000E+000
   4.84500000000000         0.000000000000000E+000
   5.03500000000000         0.000000000000000E+000
   5.22500000000000         0.000000000000000E+000
   5.41500000000000         0.000000000000000E+000
   5.60500000000000         0.000000000000000E+000
   5.79500000000000         0.000000000000000E+000
   5.98500000000000         0.000000000000000E+000
   6.17500000000000         4.629522374523249E-176
   6.36500000000000         5.320809957672048E-170
   6.55500000000000         1.558060561701130E-165
   6.74500000000000         6.598077241020382E-164
   6.93500000000000         2.288519689823400E-162
   7.12500000000000         7.091602273836071E-161
   7.31500000000000         1.529854163560500E-159
   7.50500000000000         1.961920651285558E-158
   7.69500000000000         5.871542544193224E-158
   7.88500000000000        -3.630768474890126E-156
   8.07500000000000        -1.020915528842047E-154
   8.26500000000000        -1.713337955623969E-153
   8.45500000000000        -2.202259190313742E-152
   8.64500000000000        -2.345812744415251E-151
   8.83500000000000        -2.151886989279804E-150
   9.02500000000000        -1.739023823518704E-149
   9.21500000000000        -1.256298559209968E-148
   9.40500000000000        -8.190106898751166E-148
   9.59500000000000        -4.844501487413748E-147
   9.78500000000000        -2.603507834385857E-146
   9.97500000000000        -1.266104468022746E-145
   10.1650000000000        -5.497713648742346E-145
   10.3550000000000        -2.059218538319876E-144
   10.5450000000000        -6.002521097993205E-144
   10.7350000000000        -7.486362145418278E-144
   10.9250000000000         6.553229874297957E-143
   11.1150000000000         7.381802432548927E-142
   11.3050000000000         5.072702296068142E-141
   11.4950000000000         2.882343710362104E-140
   11.6850000000000         1.462631997565000E-139
   11.8750000000000         6.844620524278208E-139
   12.0650000000000         3.003957924856964E-138
   12.2550000000000         1.249004845767053E-137
   12.4450000000000         4.953015126581967E-137
   12.6350000000000         1.882263663169625E-136
   12.8250000000000         6.879544240486124E-136
   13.0150000000000         2.425220127635301E-135
   13.2050000000000         8.265954201592002E-135
   13.3950000000000         2.729536037210911E-134
   13.5850000000000         8.748889322162989E-134
   13.7750000000000         2.726690683401194E-133
   13.9650000000000         8.276266164671813E-133
   14.1550000000000         2.450114109727728E-132
   14.3450000000000         7.083530945041215E-132
   14.5350000000000         2.002021578965106E-131
   14.7250000000000         5.535069940253375E-131
   14.9150000000000         1.497152975539645E-130
   15.1050000000000         3.959576734577181E-130
   15.2950000000000         1.022411817284696E-129
   15.4850000000000         2.570577521277537E-129
   15.6750000000000         6.265814403213034E-129
   15.8650000000000         1.470622850601767E-128
   16.0550000000000         3.287062746603810E-128
   16.2450000000000         6.862693821166984E-128
   16.4350000000000         1.286720220511521E-127
   16.6250000000000         1.950952617249305E-127
   16.8150000000000         1.358230570312376E-127
   17.0050000000000        -5.859517838900445E-127
   17.1950000000000        -3.767533607234763E-126
   17.3850000000000        -1.481840701404635E-125
   17.5750000000000        -4.887483679481280E-125
   17.7650000000000        -1.459608406912697E-124
   17.9550000000000        -4.070042195300478E-124
   18.1450000000000        -1.076045392989894E-123
   18.3350000000000        -2.720840735370571E-123
   18.5250000000000        -6.615057463154722E-123
   18.7150000000000        -1.551753662502867E-122
   18.9050000000000        -3.520262843003812E-122
   19.0950000000000        -7.735273546738199E-122
   19.2850000000000        -1.648154525966354E-121
   19.4750000000000        -3.407833786845099E-121
   19.6650000000000        -6.841957834437336E-121
   19.8550000000000        -1.334635487388823E-120
   20.0450000000000        -2.531457497863347E-120
   20.2350000000000        -4.674889897803764E-120
   20.4250000000000        -8.424800421715922E-120
   20.6150000000000        -1.487513663670890E-119
   20.8050000000000        -2.590184634337929E-119
   20.9950000000000        -4.493103798150461E-119
   21.1850000000000        -7.871839136734687E-119
   21.3750000000000        -1.414711933980530E-118
   21.5650000000000        -2.641281950199708E-118
   21.7550000000000        -5.143766852240630E-118
   21.9450000000000        -1.037728360479627E-117
   22.1350000000000        -2.137301361606921E-117
   22.3250000000000        -4.419585107751059E-117
   22.5150000000000        -9.042299335974477E-117
   22.7050000000000        -1.809849242192155E-116
   22.8950000000000        -3.513351832171045E-116
   23.0850000000000        -6.566534308968861E-116
   23.2750000000000        -1.172604331601003E-115
   23.4650000000000        -1.980227814038819E-115
   23.6550000000000        -3.109797382498211E-115
   23.8450000000000        -4.393446093182895E-115
   24.0350000000000        -5.134160377801808E-115
   24.2250000000000        -3.433430677095451E-115
   24.4150000000000         5.070804808450948E-115
   24.6050000000000         2.941008267688979E-114
   24.7950000000000         8.687032574125847E-114
   24.9850000000000         2.083458759909331E-113
   25.1750000000000         4.454673034875244E-113
   25.3650000000000         8.783732564446634E-113
   25.5550000000000         1.620397634962342E-112
   25.7450000000000         2.810714915822819E-112
   25.9350000000000         4.576369459853121E-112
   26.1250000000000         6.928675429779561E-112
   26.3150000000000         9.532732228114497E-112
   26.5050000000000         1.124983741489267E-111
   26.6950000000000         9.299601177370592E-112
   26.8850000000000        -2.174798429035707E-112
   27.0750000000000        -3.441375189946337E-111
   27.2650000000000        -1.075140255517368E-110
   27.4550000000000        -2.552602877885141E-110
   27.6450000000000        -5.311460197566807E-110
   27.8350000000000        -1.014538973655366E-109
   28.0250000000000        -1.814148822039914E-109
   28.2150000000000        -3.062611949135871E-109
   28.4050000000000        -4.890242435760379E-109
   28.5950000000000        -7.356700295881523E-109
   28.7850000000000        -1.030534595102660E-108
   28.9750000000000        -1.308572149825611E-108
   29.1650000000000        -1.406593412281231E-108
   29.3550000000000        -9.833695555029511E-109
   29.5450000000000         6.024593094015118E-109
   29.7350000000000         4.464539869407679E-108
   29.9250000000000         1.240637363974183E-107
   30.1150000000000         2.714887385580201E-107
   30.3050000000000         5.246940724893843E-107
   30.4950000000000         9.303825244808980E-107
   30.6850000000000         1.535447526250193E-106
   30.8750000000000         2.364073312413249E-106
   31.0650000000000         3.369444038894466E-106
   31.2550000000000         4.343705607482197E-106
   31.4450000000000         4.764836113074917E-106
   31.6350000000000         3.556965070635728E-106
   31.8250000000000        -1.253041628589469E-106
   32.0150000000000        -1.297544283537694E-105
   32.2050000000000        -3.672827403978979E-105
   32.3950000000000        -7.975813471852070E-105
   32.5850000000000        -1.512296377561843E-104
   32.7750000000000        -2.607842713671296E-104
   32.9650000000000        -4.147133926967909E-104
   33.1550000000000        -6.080081491374068E-104
   33.3450000000000        -8.099288144397869E-104
   33.5350000000000        -9.403044113886919E-104
   33.7250000000000        -8.339866823148291E-104
   33.9150000000000        -1.925338889770218E-104
   34.1050000000000         1.473475021518084E-103
   34.2950000000000         4.899367913762454E-103
   34.4850000000000         1.109116072323606E-102
   34.6750000000000         2.126885862328544E-102
   34.8650000000000         3.664299893670411E-102
   35.0550000000000         5.789634172439810E-102
   35.2450000000000         8.419707117184422E-102
   35.4350000000000         1.115364740664756E-101
   35.6250000000000         1.301911334217951E-101
   35.8150000000000         1.212040635456292E-101
   36.0050000000000         5.203016674663966E-102
   36.1950000000000        -1.280096292382627E-101
   36.3850000000000        -4.909693400587749E-101
   36.5750000000000        -1.129418676077074E-100
   36.7650000000000        -2.146904766861424E-100
   36.9550000000000        -3.632986138467461E-100
   37.1450000000000        -5.613881205093490E-100
   37.3350000000000        -7.968271077164392E-100
   37.5250000000000        -1.029831212887378E-099
   37.7150000000000        -1.175047149949032E-099
   37.9050000000000        -1.079218765262502E-099
   38.0950000000000        -4.971976644267779E-100
   38.2850000000000         9.274062753550229E-100
   38.4750000000000         3.665485729141530E-099
   38.6650000000000         8.271419771176610E-099
   38.8550000000000         1.529185515554456E-098
   39.0450000000000         2.508112198123281E-098
   39.2350000000000         3.748619311557509E-098
   39.4250000000000         5.136796831064268E-098
   39.6150000000000         6.394368109695438E-098
   39.8050000000000         6.997535078225665E-098
   39.9950000000000         6.090003924602447E-098
   40.1850000000000         2.410641942202716E-098
   40.3750000000000        -5.728886009569246E-098
   40.5650000000000        -2.036299356008418E-097
   40.7550000000000        -4.361503585199221E-097
   40.9450000000000        -7.717652069800390E-097
   41.1350000000000        -1.214315687136164E-096
   41.3250000000000        -1.741547220533905E-096
   41.5150000000000        -2.287658624294898E-096
   41.7050000000000        -2.722330655401526E-096
   41.8950000000000        -2.828854406408339E-096
   42.0850000000000        -2.286385689980940E-096
   42.2750000000000        -6.643525863488613E-097
   42.4650000000000         2.559697435338799E-096
   42.6550000000000         7.944672648222895E-096
   42.8450000000000         1.597740937858134E-095
   43.0350000000000         2.689704204560362E-095
   43.2250000000000         4.044443319133091E-095
   43.4150000000000         5.554134562450913E-095
   43.6050000000000         6.992415946458595E-095
   43.7950000000000         7.978474045544679E-095
   43.9850000000000         7.950464954402968E-095
   44.1750000000000         6.160354313898582E-095
   44.3650000000000         1.705029889493401E-095
   44.5550000000000        -6.390517800013051E-095
   44.7450000000000        -1.902436913077373E-094
   44.9350000000000        -3.679626915551137E-094
   45.1250000000000        -5.971852938523332E-094
   45.3150000000000        -8.688076738873151E-094
   45.5050000000000        -1.161093490988019E-093
   45.6950000000000        -1.436800089612460E-093
   45.8850000000000        -1.641512157363648E-093
   46.0750000000000        -1.703780156210942E-093
   46.2650000000000        -1.537333168666844E-093
   46.4550000000000        -1.045019124828322E-093
   46.6450000000000        -1.232726804055356E-094
   46.8350000000000         1.334969551851720E-093
   47.0250000000000         3.441474245244454E-093
   47.2150000000000         6.320039866891866E-093
   47.4050000000000         1.011948056531452E-092
   47.5950000000000         1.502653894506558E-092
   47.7850000000000         2.126437458070169E-092
   47.9750000000000         2.905053067929783E-092
   48.1650000000000         3.847520917170031E-092
   48.3550000000000         4.925040979194438E-092
   48.5450000000000         6.028013906504450E-092
   48.7350000000000         6.902178046146129E-092
   48.9250000000000         7.066150922380158E-092
   49.1150000000000         5.722492912819070E-092
   49.3050000000000         1.689575484062449E-092
   49.4950000000000        -6.598379954725151E-092
   49.6850000000000        -2.095331019244246E-091
   49.8750000000000        -4.306868396502267E-091
   50.0650000000000        -7.383424648989673E-091
   50.2550000000000        -1.122590672843880E-090
   50.4450000000000        -1.540013740497364E-090
   50.6350000000000        -1.896390544219334E-090
   50.8250000000000        -2.030302993817296E-090
   51.0150000000000        -1.704099458827249E-090
   51.2050000000000        -6.121730498375912E-091
   51.3950000000000         1.580122874380612E-090
   51.5850000000000         5.151612629073599E-090
   51.7750000000000         1.018046139738804E-089
   51.9650000000000         1.633238766802488E-089
   52.1550000000000         2.259062232450914E-089
   52.3450000000000         2.696320665436475E-089
   52.5350000000000         2.624266260981868E-089
   52.7250000000000         1.594361157037594E-089
   52.9150000000000        -9.400547423399682E-090
   53.1050000000000        -5.535309818069815E-089
   53.2950000000000        -1.258542623180876E-088
   53.4850000000000        -2.204599387788661E-088
   53.6750000000000        -3.304712855026061E-088
   53.8650000000000        -4.341645552256204E-088
   54.0550000000000        -4.917798303592433E-088
   54.2450000000000        -4.415601964010074E-088
   54.4350000000000        -1.989175060084713E-088
   54.6250000000000         3.383635679495836E-088
   54.8150000000000         1.275280552355098E-087
   55.0050000000000         2.691288190478591E-087
   55.1950000000000         4.595299776810136E-087
   55.3850000000000         6.862866409442534E-087
   55.5750000000000         9.158368057643742E-087
   55.7650000000000         1.085139536201589E-086
   55.9550000000000         1.094532512980304E-086
   56.1450000000000         8.046940408211969E-087
   56.3350000000000         4.174877913534939E-088
   56.5250000000000        -1.384469945836593E-086
   56.7150000000000        -3.643582604055427E-086
   56.9050000000000        -6.824517806125461E-086
   57.0950000000000        -1.084972667235645E-085
   57.2850000000000        -1.536617751555281E-085
   57.4750000000000        -1.962314940879504E-085
   57.6650000000000        -2.235741800967346E-085
   57.8550000000000        -2.171945708154443E-085
   58.0450000000000        -1.528827073581340E-085
   58.2350000000000        -2.346611334655045E-087
   58.4250000000000         2.630109166655628E-085
   58.6150000000000         6.655662148353094E-085
   58.8050000000000         1.211830943490893E-084
   58.9950000000000         1.879806703859838E-084
   59.1850000000000         2.604236628621921E-084
   59.3750000000000         3.261743875477975E-084
   59.5650000000000         3.659192152834236E-084
   59.7550000000000         3.530050728635955E-084
   59.9450000000000         2.544821797534608E-084
   60.1350000000000         3.422823435241512E-085
   60.3250000000000        -3.412127213886837E-084
   60.5150000000000        -8.936577104682578E-084
   60.7050000000000        -1.621204324992779E-083
   60.8950000000000        -2.483784519975270E-083
   61.0850000000000        -3.388085073493416E-083
   61.2750000000000        -4.174770324745506E-083
   61.4650000000000        -4.612210546774201E-083
   61.6550000000000        -4.401996307098338E-083
   61.8450000000000        -3.202038484709025E-083
   62.0350000000000        -6.725555591310531E-084
   62.2250000000000         3.451765067228732E-083
   62.4150000000000         9.264120474417134E-083
   62.6050000000000         1.656933301337173E-082
   62.7950000000000         2.476411532855771E-082
   62.9850000000000         3.273863814413141E-082
   63.1750000000000         3.883373913252558E-082
   63.3650000000000         4.089526336408433E-082
   63.5550000000000         3.646861155051951E-082
   63.7450000000000         2.316885552114713E-082
   63.9350000000000        -7.589990198708578E-084
   64.1250000000000        -3.571175103056863E-082
   64.3150000000000        -7.990734876462060E-082
   64.5050000000000        -1.286148215360034E-081
   64.6950000000000        -1.736511723888467E-081
   64.8850000000000        -2.034268203808543E-081
   65.0750000000000        -2.038573355938611E-081
   65.2650000000000        -1.604397146056887E-081
   65.4550000000000        -6.168696584012932E-082
   65.6450000000000         9.610133481343990E-082
   65.8350000000000         3.030984812467856E-081
   66.0250000000000         5.300719088022386E-081
   66.2150000000000         7.237483083706164E-081
   66.4050000000000         8.053577007739484E-081
   66.5950000000000         6.747162591502749E-081
   66.7850000000000         2.223238492977074E-081
   66.9750000000000        -6.484548402465307E-081
   67.1650000000000        -1.988205969490280E-080
   67.3550000000000        -3.758423763499048E-080
   67.5450000000000        -5.782791413640539E-080
   67.7350000000000        -7.700838542997533E-080
   67.9250000000000        -8.936310315668338E-080
   68.1150000000000        -8.696505873209856E-080
   68.3050000000000        -6.021263984856726E-080
   68.4950000000000         1.002687755056896E-081
   68.6850000000000         1.053207115721295E-079
   68.8750000000000         2.571102768786449E-079
   69.0650000000000         4.530028015240000E-079
   69.2550000000000         6.781707325744039E-079
   69.4450000000000         9.030524562589316E-079
   69.6350000000000         1.081518046683609E-078
   69.8250000000000         1.151691844965643E-078
   70.0150000000000         1.040700406768862E-078
   70.2050000000000         6.743826101883327E-079
   70.3950000000000        -7.631821118324014E-081
   70.5850000000000        -1.032182770773626E-078
   70.7750000000000        -2.370496898073274E-078
   70.9650000000000        -3.918080535420385E-078
   71.1550000000000        -5.483024499126735E-078
   71.3450000000000        -6.790906172896985E-078
   71.5350000000000        -7.515149615559068E-078
   71.7250000000000        -7.340412175819586E-078
   71.9150000000000        -6.062326697345059E-078
   72.1050000000000        -3.718867339385696E-078
   72.2950000000000        -7.362439967547679E-079
   72.4850000000000         1.944138707778499E-078
   72.6750000000000         2.809980884150324E-078
   72.8650000000000        -1.358581506789733E-079
   73.0550000000000        -9.064729902829228E-078
   73.2450000000000        -2.570492053380300E-077
   73.4350000000000        -5.035839687618472E-077
   73.6250000000000        -8.054657462001097E-077
   73.8150000000000        -1.093745092122121E-076
   74.0050000000000        -1.238420015107958E-076
   74.1950000000000        -1.035110557960861E-076
   74.3850000000000        -2.014740278728360E-077
   74.5750000000000         1.608411157148398E-076
   74.7650000000000         4.761946184075683E-076
   74.9550000000000         9.568172414120328E-076
   75.1450000000000         1.615202529337060E-075
   75.3350000000000         2.427951322735975E-075
   75.5250000000000         3.313975468405081E-075
   75.7150000000000         4.110370234783898E-075
   75.9050000000000         4.549817104501743E-075
   76.0950000000000         4.245658246343959E-075
   76.2850000000000         2.693235376046368E-075
   76.4750000000000        -7.017000039165351E-076
   76.6650000000000        -6.555335587537036E-075
   76.8550000000000        -1.538704693773749E-074
   77.0450000000000        -2.744065276110231E-074
   77.2350000000000        -4.244345567056777E-074
   77.4250000000000        -5.931216774297727E-074
   77.6150000000000        -7.583137612390489E-074
   77.8050000000000        -8.835190077459660E-074
   77.9950000000000        -9.158207554200378E-074
   78.1850000000000        -7.857202495201451E-074
   78.3750000000000        -4.101498568316253E-074
   78.5650000000000         2.999579811317272E-074
   78.7550000000000         1.426194608386037E-073
   78.9450000000000         3.022251213433254E-073
   79.1350000000000         5.086197229854064E-073
   79.3250000000000         7.526272899846627E-073
   79.5150000000000         1.012269599747361E-072
   79.7050000000000         1.249018761025999E-072
   79.8950000000000         1.404853396131710E-072
   80.0850000000000         1.401127606472373E-072
   80.2750000000000         1.140514725872625E-072
   80.4650000000000         5.134569640206851E-073
   80.6550000000000        -5.894391294364795E-073
   80.8450000000000        -2.257862792755458E-072
   81.0350000000000        -4.534502328536815E-072
   81.2250000000000        -7.380395389630294E-072
   81.4150000000000        -1.063483297219322E-071
   81.6050000000000        -1.397371558749557E-071
   81.7950000000000        -1.687266057527731E-071
   81.9850000000000        -1.858377656764991E-071
   82.1750000000000        -1.813752526662248E-071
   82.3650000000000        -1.438300014046278E-071
   82.5550000000000        -6.080635016985729E-072
   82.7450000000000         7.939938822017445E-072
   82.9350000000000         2.854824873715620E-071
   83.1250000000000         5.600653765986838E-071
   83.3150000000000         8.959924340653098E-071
   83.5050000000000         1.272251385721924E-070
   83.6950000000000         1.649987354849545E-070
   83.8850000000000         1.969300063292613E-070
   84.0750000000000         2.147741801041890E-070
   84.2650000000000         2.081628608830293E-070
   84.4550000000000         1.651392735985348E-070
   84.6450000000000         7.321836005888651E-071
   84.8350000000000        -7.892963020026241E-071
   85.0250000000000        -2.991217598250676E-070
   85.2150000000000        -5.886607554073881E-070
   85.4050000000000        -9.388326852457136E-070
   85.5950000000000        -1.327194722625376E-069
   85.7850000000000        -1.714117222691218E-069
   85.9750000000000        -2.040230128652770E-069
   86.1650000000000        -2.225599458035685E-069
   86.3550000000000        -2.171594078420748E-069
   86.5450000000000        -1.766456749711492E-069
   86.7350000000000        -8.955210651899223E-070
   86.9250000000000         5.432299050403592E-070
   87.1150000000000         2.618029953271002E-069
   87.3050000000000         5.337097632576161E-069
   87.4950000000000         8.618747869379737E-069
   87.6850000000000         1.226048542099062E-068
   87.8750000000000         1.591107476532615E-068
   88.0650000000000         1.905097404273082E-068
   88.2550000000000         2.098776678543881E-068
   88.4450000000000         2.087408183333604E-068
   88.6350000000000         1.775566665877296E-068
   88.8250000000000         1.065645019879185E-068
   89.0150000000000        -1.294720867703405E-069
   89.2050000000000        -1.869473377943345E-068
   89.3950000000000        -4.165881219073076E-068
   89.5850000000000        -6.958687895629657E-068
   89.7750000000000        -1.009242243116277E-067
   89.9650000000000        -1.329466831287645E-067
   90.1550000000000        -1.616101802606267E-067
   90.3450000000000        -1.815128482838473E-067
   90.5350000000000        -1.860232921483060E-067
   90.7250000000000        -1.676290263002616E-067
   90.9150000000000        -1.185525663412082E-067
   91.1050000000000        -3.166713497235454E-068
   91.2950000000000         9.828215545887389E-068
   91.4850000000000         2.731833023202688E-067
   91.6750000000000         4.898688965579732E-067
   91.8650000000000         7.383723086395638E-067
   92.0550000000000         1.000330218818271E-066
   92.2450000000000         1.247796151552008E-066
   92.4350000000000         1.442784146723172E-066
   92.6250000000000         1.537897459035572E-066
   92.8150000000000         1.478402532325992E-066
   93.0050000000000         1.206071122894329E-066
   93.1950000000000         6.650216653524679E-067
   93.3850000000000        -1.903645924644974E-067
   93.5750000000000        -1.385601625324279E-066
   93.7650000000000        -2.914771849964563E-066
   93.9550000000000        -4.728505398692344E-066
   94.1450000000000        -6.722443758127037E-066
   94.3350000000000        -8.727759247335205E-066
   94.5250000000000        -1.050565681413479E-065
   94.7150000000000        -1.174804644809706E-065
   94.9050000000000        -1.208667939521673E-065
   95.0950000000000        -1.111292102381842E-065
   95.2850000000000        -8.409920840967116E-066
   95.4750000000000        -3.598178305676282E-066
   95.6650000000000         3.605647155580528E-066
   95.8550000000000         1.331838217110717E-065
   96.0450000000000         2.541205944845974E-065
   96.2350000000000         3.943353819959688E-065
   96.4250000000000         5.453021533714527E-065
   96.6150000000000         6.939234082002985E-065
   96.8050000000000         8.222447476093205E-065
   96.9950000000000         9.076003608212450E-065
   97.1850000000000         9.233333656774246E-065
   97.3750000000000         8.402259166762379E-065
   97.5650000000000         6.287477796146678E-065
   97.7550000000000         2.621853683213983E-065
   97.9450000000000        -2.793563918402236E-065
   98.1350000000000        -1.004180645878460E-064
   98.3250000000000        -1.903671732143162E-064
   98.5150000000000        -2.946769680662317E-064
   98.7050000000000        -4.074751317816997E-064
   98.8950000000000        -5.196977550829700E-064
   99.0850000000000        -6.188411177219010E-064
   99.2750000000000        -6.889827283363234E-064
   99.4650000000000        -7.111707627577798E-064
   99.6550000000000        -6.642806643647005E-064
   99.8450000000000        -5.264272753976503E-064
   100.035000000000        -2.769976648102817E-064
   100.225000000000         1.006688303579584E-064
   100.415000000000         6.159830905442467E-064
   100.605000000000         1.267296110530889E-063
   100.795000000000         2.037775107601908E-063
   100.985000000000         2.891275233252910E-063
   101.175000000000         3.768638833924286E-063
   101.365000000000         4.584980741872407E-063
   101.555000000000         5.228636788696652E-063
   101.745000000000         5.562547605556474E-063
   101.935000000000         5.428900523526496E-063
   102.125000000000         4.657834895936042E-063
   102.315000000000         3.080903573435266E-063
   102.505000000000         5.497479154102595E-064
   102.695000000000        -3.039939902173419E-063
   102.885000000000        -7.719644795731778E-063
   103.075000000000        -1.341565149647045E-062
   103.265000000000        -1.991516057730821E-062
   103.455000000000        -2.683402436883371E-062
   103.645000000000        -3.359032906709075E-062
   103.835000000000        -3.938912276955720E-062
   104.025000000000        -4.322449981223523E-062
   104.215000000000        -4.390582468956667E-062
   104.405000000000        -4.011490578163099E-062
   104.595000000000        -3.050018004082004E-062
   104.785000000000        -1.381221196799080E-062
   104.975000000000         1.091816426621440E-062
   105.165000000000         4.416206899249481E-062
   105.355000000000         8.564392230857366E-062
   105.545000000000         1.340777090658002E-061
   105.735000000000         1.869119954421707E-061
   105.925000000000         2.401159988608805E-061
   106.115000000000         2.880470926929779E-061
   106.305000000000         3.234467071490726E-061
   106.495000000000         3.376152989769462E-061
   106.685000000000         3.208163406925930E-061
   106.875000000000         2.629524788532593E-061
   107.065000000000         1.545425697580848E-061
   107.255000000000        -1.199503333694267E-062
   107.445000000000        -2.407804718814036E-061
   107.635000000000        -5.307014573600295E-061
   107.825000000000        -8.735534938721766E-061
   108.015000000000        -1.252266704161272E-060
   108.205000000000        -1.639450719329703E-060
   108.395000000000        -1.996539432088785E-060
   108.585000000000        -2.273854158746275E-060
   108.775000000000        -2.411917656674523E-060
   108.965000000000        -2.344332546037520E-060
   109.155000000000        -2.002476244274203E-060
   109.345000000000        -1.322152232006292E-060
   109.535000000000        -2.521689450214578E-061
   109.725000000000         1.235407967189623E-060
   109.915000000000         3.133861358991618E-060
   110.105000000000         5.390132876863026E-060