  -1.42500000000000         0.000000000000000E+000
  -1.23500000000000         0.000000000000000E+000
  -1.04500000000000         0.000000000000000E+000
 -0.855000000000000         0.000000000000000E+000
 -0.665000000000000         0.000000000000000E+000
 -0.475000000000000         0.000000000000000E+000
 -0.285000000000000         0.000000000000000E+000
 -9.499999999999975E-002    0.000000000000000E+000
  9.500000000000020E-002    0.000000000000000E+000
  0.285000000000000         0.000000000000000E+000
  0.475000000000000         0.000000000000000E+000
  0.665000000000000         0.000000000000000E+000
  0.855000000000000         0.000000000000000E+000
   1.04500000000000         0.000000000000000E+000
   1.23500000000000         0.000000000000000E+000
   1.42500000000000         0.000000000000000E+000
   1.61500000000000         0.000000000000000E+000
   1.80500000000000         0.000000000000000E+000
   1.99500000000000         0.000000000000000E+000
   2.18500000000000         0.000000000000000E+000
   2.37500000000000         0.000000000000000E+000
   2.56500000000000         0.000000000000000E+000
   2.75500000000000         0.000000000000000E+000
   2.94500000000000         0.000000000000000E+000
   3.13500000000000         0.000000000000000E+000
   3.32500000000000         0.000000000000000E+000
   3.51500000000000         0.000000000000000E+000
   3.70500000000000         0.000000000000000E+000
   3.89500000000000         0.000000000000000E+000
   4.08500000000000         0.000000000000000E+000
   4.27500000000000         0.000000000000000E+000
   4.46500000000000         0.000000000000000E+000
   4.65500000000000         0.000000000000000E+000
   4.84500000000000         0.000000000000000E+000
   5.03500000000000         0.000000000000000E+000
   5.22500000000000         0.000000000000000E+000
   5.41500000000000         0.000000000000000E+000
   5.60500000000000         0.000000000000000E+000
   5.79500000000000         0.000000000000000E+000
   5.98500000000000         0.000000000000000E+000
   6.17500000000000         4.398046255797087E-177
   6.36500000000000         5.054778255880959E-171
   6.55500000000000         1.480258629093230E-166
   6.74500000000000         6.564214995240295E-165
   6.93500000000000         2.302417589074326E-163
   7.12500000000000         7.184673289584924E-162
   7.31500000000000         1.592578409879766E-160
   7.50500000000000         2.168418605247503E-159
   7.69500000000000         9.610208640952336E-159
   7.88500000000000        -3.297348310566260E-157
   8.07500000000000        -1.037335536017064E-155
   8.26500000000000        -1.828391586684472E-154
   8.45500000000000        -2.437752495250780E-153
   8.64500000000000        -2.681511979799371E-152
   8.83500000000000        -2.535296048515200E-151
   9.02500000000000        -2.110031501175873E-150
   9.21500000000000        -1.569694044601334E-149
   9.40500000000000        -1.054377922966442E-148
   9.59500000000000        -6.434714491390862E-148
   9.78500000000000        -3.577031533109956E-147
   9.97500000000000        -1.807835642199258E-146
   10.1650000000000        -8.233462853126098E-146
   10.3550000000000        -3.301886693347012E-145
   10.5450000000000        -1.096053934784446E-144
   10.7350000000000        -2.377497842908545E-144
   10.9250000000000         3.136866133859767E-144
   11.1150000000000         7.948955762365792E-143
   11.3050000000000         6.315233988593458E-142
   11.4950000000000         3.851656641829817E-141
   11.6850000000000         2.048488714354131E-140
   11.8750000000000         9.940378610105172E-140
   12.0650000000000         4.498036839431061E-139
   12.2550000000000         1.921734290283218E-138
   12.4450000000000         7.813653264014784E-138
   12.6350000000000         3.040052243437909E-137
   12.8250000000000         1.136376975191087E-136
   13.0150000000000         4.093892799290805E-136
   13.2050000000000         1.425050841205674E-135
   13.3950000000000         4.803375725707280E-135
   13.5850000000000         1.570787981711249E-134
   13.7750000000000         4.992288616547867E-134
   13.9650000000000         1.544509762221722E-133
   14.1550000000000         4.658363452106885E-133
   14.3450000000000         1.371532625413738E-132
   14.5350000000000         3.946388565209503E-132
   14.7250000000000         1.110662550846706E-131
   14.9150000000000         3.058789521933440E-131
   15.1050000000000         8.242682746544426E-131
   15.2950000000000         2.171719290859736E-130
   15.4850000000000         5.585059162493859E-130
   15.6750000000000         1.397963149075990E-129
   15.8650000000000         3.390307225452906E-129
   16.0550000000000         7.910108542798206E-129
   16.2450000000000         1.755237728218046E-128
   16.4350000000000         3.629577850714853E-128
   16.6250000000000         6.705367046587641E-128
   16.8150000000000         9.849091074771229E-128
   17.0050000000000         5.572868169612549E-128
   17.1950000000000        -3.578524304607316E-127
   17.3850000000000        -2.123516789482437E-126
   17.5750000000000        -8.174374951324056E-126
   17.7650000000000        -2.668376431250189E-125
   17.9550000000000        -7.921544503352705E-125
   18.1450000000000        -2.201051582229216E-124
   18.3350000000000        -5.808093404171659E-124
   18.5250000000000        -1.467719669277069E-123
   18.7150000000000        -3.570316107654491E-123
   18.9050000000000        -8.388731787885837E-123
   19.0950000000000        -1.908149135814074E-122
   19.2850000000000        -4.208746922422237E-122
   19.4750000000000        -9.011935819593122E-122
   19.6650000000000        -1.874923785981143E-121
   19.8550000000000        -3.792813493272071E-121
   20.0450000000000        -7.465601829261634E-121
   20.2350000000000        -1.431163185514539E-120
   20.4250000000000        -2.675633765868909E-120
   20.6150000000000        -4.889127786419268E-120
   20.8050000000000        -8.762941169527648E-120
   20.9950000000000        -1.549206518039162E-119
   21.1850000000000        -2.723876096853250E-119
   21.3750000000000        -4.815677152124550E-119
   21.5650000000000        -8.668871342095777E-119
   21.7550000000000        -1.606466770441410E-118
   21.9450000000000        -3.080966563859916E-118
   22.1350000000000        -6.097244799842139E-118
   22.3250000000000        -1.232628694573222E-117
   22.5150000000000        -2.511507716727148E-117
   22.7050000000000        -5.089882933727269E-117
   22.8950000000000        -1.014692395437231E-116
   23.0850000000000        -1.972281578845522E-116
   23.2750000000000        -3.710076453218517E-116
   23.4650000000000        -6.705266991576346E-116
   23.6550000000000        -1.154079092828652E-115
   23.8450000000000        -1.866887223018358E-115
   24.0350000000000        -2.772009837761904E-115
   24.2250000000000        -3.585930987977145E-115
   24.4150000000000        -3.430380445498373E-115
   24.6050000000000        -1.546961343910078E-116
   24.7950000000000         1.089194266533308E-114
   24.9850000000000         3.893748182989128E-114
   25.1750000000000         1.010497338803447E-113
   25.3650000000000         2.268145870739026E-113
   25.5550000000000         4.641978217575682E-113
   25.7450000000000         8.851535140821586E-113
   25.9350000000000         1.586926529771373E-112
   26.1250000000000         2.679905794286478E-112
   26.3150000000000         4.243739521786414E-112
   26.5050000000000         6.218083637872096E-112
   26.6950000000000         8.170280304137105E-112
   26.8850000000000         8.847136565228918E-112
   27.0750000000000         5.371224284021508E-112
   27.2650000000000        -8.111914573842508E-112
   27.4550000000000        -4.257547434116636E-111
   27.6450000000000        -1.172840735579598E-110
   27.8350000000000        -2.641241479321043E-110
   28.0250000000000        -5.328494885231560E-110
   28.2150000000000        -9.961417617848556E-110
   28.4050000000000        -1.751662928350000E-109
   28.5950000000000        -2.915122487855980E-109
   28.7850000000000        -4.593016881312253E-109
   28.9750000000000        -6.815168288994109E-109
   29.1650000000000        -9.394575572995608E-109
   29.3550000000000        -1.166504039239058E-108
   29.5450000000000        -1.202690512618694E-108
   29.7350000000000        -7.213255906318228E-109
   29.9250000000000         8.814111927373822E-109
   30.1150000000000         4.639159704814047E-108
   30.3050000000000         1.220289640976439E-107
   30.4950000000000         2.602612408098207E-107
   30.6850000000000         4.945150956292744E-107
   30.8750000000000         8.649695753023014E-107
   31.0650000000000         1.409653723676534E-106
   31.2550000000000         2.142402940082317E-106
   31.4450000000000         3.007714403535243E-106
   31.6350000000000         3.798285515987756E-106
   31.8250000000000         4.017158242982149E-106
   32.0150000000000         2.665452218905337E-106
   32.2050000000000        -2.056400884235501E-106
   32.3950000000000        -1.312260971627500E-105
   32.5850000000000        -3.506644810137197E-105
   32.7750000000000        -7.420776946808682E-105
   32.9650000000000        -1.383800475541592E-104
   33.1550000000000        -2.355385940284080E-104
   33.3450000000000        -3.702426055682415E-104
   33.5350000000000        -5.365147620219469E-104
   33.7250000000000        -7.050724159237815E-104
   33.9150000000000        -8.025918701965073E-104
   34.1050000000000        -6.809024626051066E-104
   34.2950000000000        -7.548238375345515E-105
   34.4850000000000         1.443617836761403E-103
   34.6750000000000         4.517819674680946E-103
   34.8650000000000         1.001944614287995E-102
   35.0550000000000         1.900068350568466E-102
   35.2450000000000         3.249955773082767E-102
   35.4350000000000         5.109424452846806E-102
   35.6250000000000         7.405836723985376E-102
   35.8150000000000         9.794091095175908E-102
   36.0050000000000         1.143981628295246E-101
   36.1950000000000         1.071801138928205E-101
   36.3850000000000         4.837711180960194E-102
   36.5750000000000        -1.055597497233037E-101
   36.7650000000000        -4.168104768024609E-101
   36.9550000000000        -9.659001128087050E-101
   37.1450000000000        -1.844352510446995E-100
   37.3350000000000        -3.134656977261494E-100
   37.5250000000000        -4.869982381835119E-100
   37.7150000000000        -6.964616826529708E-100
   37.9050000000000        -9.106169445980667E-100
   38.0950000000000        -1.060376505418548E-099
   38.2850000000000        -1.019506687380365E-099
   38.4750000000000        -5.831819469531917E-100
   38.6650000000000         5.508240755770314E-100
   38.8550000000000         2.789335193615543E-099
   39.0450000000000         6.624768021609388E-099
   39.2350000000000         1.256866295580614E-098
   39.4250000000000         2.100980829129683E-098
   39.6150000000000         3.196441498501855E-098
   39.8050000000000         4.468672301354360E-098
   39.9950000000000         5.711988506623031E-098
   40.1850000000000         6.519549863969522E-098
   40.3750000000000         6.204316677569698E-098
   40.5650000000000         3.725588118452623E-098
   40.7550000000000        -2.352324675694631E-098
   40.9450000000000        -1.382752254794427E-097
   41.1350000000000        -3.269529104204821E-097
   41.3250000000000        -6.077598866491387E-097
   41.5150000000000        -9.905344419078750E-097
   41.7050000000000        -1.466483423479035E-096
   41.8950000000000        -1.993846004350972E-096
   42.0850000000000        -2.479793813507953E-096
   42.2750000000000        -2.760113949759284E-096
   42.4650000000000        -2.580056189105239E-096
   42.6550000000000        -1.582141031166879E-096
   42.8450000000000         6.904567613795229E-097
   43.0350000000000         4.763529646677092E-096
   43.2250000000000         1.116096979418587E-095
   43.4150000000000         2.027961878169067E-095
   43.6050000000000         3.219884176515470E-095
   43.7950000000000         4.642118725755780E-095
   43.9850000000000         6.155367930750807E-095
   44.1750000000000         7.495895761239453E-095
   44.3650000000000         8.243107260561687E-095
   44.5550000000000         7.797985909062329E-095
   44.7450000000000         5.383571650637578E-095
   44.9350000000000         8.061101344050332E-097
   45.1250000000000        -9.088294847930243E-095
   45.3150000000000        -2.301522804145690E-094
   45.5050000000000        -4.229928910777263E-094
   45.6950000000000        -6.697927812347713E-094
   45.8850000000000        -9.622324446975016E-094
   46.0750000000000        -1.280035214487088E-093
   46.2650000000000        -1.587940980350478E-093
   46.4550000000000        -1.833264448232519E-093
   46.6450000000000        -1.944252169729733E-093
   46.8350000000000        -1.829140966942347E-093
   47.0250000000000        -1.375378806218205E-093
   47.2150000000000        -4.480349655652552E-094
   47.4050000000000         1.113719475494335E-093
   47.5950000000000         3.502591328980457E-093
   47.7850000000000         6.950228113928345E-093
   47.9750000000000         1.173014411362831E-092
   48.1650000000000         1.814508939947312E-092
   48.3550000000000         2.647902320101939E-092
   48.5450000000000         3.688442534243333E-092
   48.7350000000000         4.916810769745135E-092
   48.9250000000000         6.243802021755140E-092
   49.1150000000000         7.458723186099062E-092
   49.3050000000000         8.162869683802814E-092
   49.4950000000000         7.696533259089872E-092
   49.6850000000000         5.079122695108926E-092
   49.8750000000000        -1.002966749850207E-092
   50.0650000000000        -1.210874514306758E-091
   50.2550000000000        -2.978760995162457E-091
   50.4450000000000        -5.508235187836642E-091
   50.6350000000000        -8.772819258317506E-091
   50.8250000000000        -1.250317811945230E-090
   51.0150000000000        -1.605086044946463E-090
   51.2050000000000        -1.825131933269618E-090
   51.3950000000000        -1.733176699938029E-090
   51.5850000000000        -1.093661827109880E-090
   51.7750000000000         3.628852054039734E-091
   51.9650000000000         2.881605866618212E-090
   52.1550000000000         6.579291815908930E-090
   52.3450000000000         1.128690556890197E-089
   52.5350000000000         1.634146314899939E-089
   52.7250000000000         2.034915919611789E-089
   52.9150000000000         2.097075029008063E-089
   53.1050000000000         1.481915395769139E-089
   53.2950000000000        -2.395545289693213E-090
   53.4850000000000        -3.529539439390384E-089
   53.6750000000000        -8.763386070064364E-089
   53.8650000000000        -1.602742655698253E-088
   54.0550000000000        -2.482389822003877E-088
   54.2450000000000        -3.369062847426117E-088
   54.4350000000000        -3.977516664715119E-088
   54.6250000000000        -3.845042905871054E-088
   54.8150000000000        -2.312080991581597E-088
   55.0050000000000         1.456159314110413E-088
   55.1950000000000         8.378417883034701E-088
   55.3850000000000         1.926367575997475E-087
   55.5750000000000         3.448384850370673E-087
   55.7650000000000         5.349312375238338E-087
   55.9550000000000         7.420000821961128E-087
   56.1450000000000         9.224266048072561E-087
   56.3350000000000         1.002838672703127E-086
   56.5250000000000         8.752801618665102E-087
   56.7150000000000         3.976151696267658E-087
   56.9050000000000        -5.968543693404207E-087
   57.0950000000000        -2.275907594796200E-086
   57.2850000000000        -4.766418492647576E-086
   57.4750000000000        -8.090404550460623E-086
   57.6650000000000        -1.207855845521513E-085
   57.8550000000000        -1.626586158888082E-085
   58.0450000000000        -1.978159573152982E-085
   58.2350000000000        -2.125627425911130E-085
   58.4250000000000        -1.877996335846769E-085
   58.6150000000000        -9.958480609209393E-086
   58.8050000000000         7.876792394889563E-086
   58.9950000000000         3.724735004472148E-085
   59.1850000000000         7.984576170329817E-085
   59.3750000000000         1.355725764922472E-084
   59.5650000000000         2.013214687612133E-084
   59.7550000000000         2.696192761351800E-084
   59.9450000000000         3.273305651338006E-084
   60.1350000000000         3.547580544738588E-084
   60.3250000000000         3.255945282054130E-084
   60.5150000000000         2.082818371790036E-084
   60.7050000000000        -3.063005618979626E-085
   60.8950000000000        -4.206039964617608E-084
   61.0850000000000        -9.784316078412858E-084
   61.2750000000000        -1.696902870673983E-083
   61.4650000000000        -2.531666053468355E-083
   61.6550000000000        -3.388015704586246E-083
   61.8450000000000        -4.110399009807945E-083
   62.0350000000000        -4.478485443972760E-083
   62.2250000000000        -4.214460540703482E-083
   62.4150000000000        -3.006451414247120E-083
   62.6050000000000        -5.522733329071789E-084
   62.7950000000000         3.374404259576115E-083
   62.9850000000000         8.837165839481590E-083
   63.1750000000000         1.563654168076400E-082
   63.3650000000000         2.321079691794194E-082
   63.5550000000000         3.056036503482930E-082
   63.7450000000000         3.622592440663764E-082
   63.9350000000000         3.835486077425885E-082
   64.1250000000000         3.489013951946716E-082
   64.3150000000000         2.390632503892397E-082
   64.5050000000000         4.096718860364914E-083
   64.6950000000000        -2.461855056249578E-082
   64.8850000000000        -6.044095987561741E-082
   65.0750000000000        -9.913295469321534E-082
   65.2650000000000        -1.337411744621726E-081
   65.4550000000000        -1.548432091045254E-081
   65.6450000000000        -1.515738440520605E-081
   65.8350000000000        -1.136498615263387E-081
   66.0250000000000        -3.449867447168178E-082
   66.2150000000000         8.461424615974068E-082
   66.4050000000000         2.298793170284737E-081
   66.5950000000000         3.704863432212748E-081
   66.7850000000000         4.557051535238332E-081
   66.9750000000000         4.152227093836953E-081
   67.1650000000000         1.647399324586973E-081
   67.3550000000000        -3.811898921752937E-081
   67.5450000000000        -1.287605334003558E-080
   67.7350000000000        -2.568550179884175E-080
   67.9250000000000        -4.149079321457432E-080
   68.1150000000000        -5.824196859400850E-080
   68.3050000000000        -7.222384995917184E-080
   68.4950000000000        -7.784879540805532E-080
   68.6850000000000        -6.774807247197264E-080
   68.8750000000000        -3.331712856914931E-080
   69.0650000000000         3.414361387910239E-080
   69.2550000000000         1.416050996184511E-079
   69.4450000000000         2.918213025576177E-079
   69.6350000000000         4.803555003371601E-079
   69.8250000000000         6.925104400438398E-079
   70.0150000000000         9.007877039586175E-079
   70.2050000000000         1.063720590569550E-078
   70.3950000000000         1.127061915531201E-078
   70.5850000000000         1.028279529301468E-078
   70.7750000000000         7.050249607610100E-079
   70.9650000000000         1.076101045791190E-079
   71.1550000000000        -7.854948737028502E-079
   71.3450000000000        -1.951518287545107E-078
   71.5350000000000        -3.310593587448414E-078
   71.7250000000000        -4.721871957629371E-078
   71.9150000000000        -5.995132150579989E-078
   72.1050000000000        -6.924345584069430E-078
   72.2950000000000        -7.347581161002763E-078
   72.4850000000000        -7.232831163455516E-078
   72.6750000000000        -6.781189802222330E-078
   72.8650000000000        -6.527148142542714E-078
   73.0550000000000        -7.401204007625978E-078
   73.2450000000000        -1.070432079910596E-077
   73.4350000000000        -1.793033595305511E-077
   73.6250000000000        -3.036630824519359E-077
   73.8150000000000        -4.840881120925478E-077
   74.0050000000000        -7.056437972794083E-077
   74.1950000000000        -9.216292017209471E-077
   74.3850000000000        -1.039104737375147E-076
   74.5750000000000        -9.054457100939709E-077
   74.7650000000000        -3.002617626776762E-077
   74.9550000000000         1.061099504150955E-076
   75.1450000000000         3.504518286362576E-076
   75.3350000000000         7.345514445831973E-076
   75.5250000000000         1.280034489741596E-075
   75.7150000000000         1.985347331544548E-075
   75.9050000000000         2.808065128776686E-075
   76.0950000000000         3.643635287107031E-075
   76.2850000000000         4.302830181234112E-075
   76.4750000000000         4.492026041586444E-075
   76.6650000000000         3.802607660398351E-075
   76.8550000000000         1.718081320497273E-075
   77.0450000000000        -2.350550150892471E-075
   77.2350000000000        -8.989540451901140E-075
   77.4250000000000        -1.865632467618795E-074
   77.6150000000000        -3.149496134354172E-074
   77.8050000000000        -4.709237264889941E-074
   77.9950000000000        -6.418610039897643E-074
   78.1850000000000        -8.035073994590818E-074
   78.3750000000000        -9.171150595624998E-074
   78.5650000000000        -9.275832877539899E-074
   78.7550000000000        -7.635987917498022E-074
   78.9450000000000        -3.409964386769706E-074
   79.1350000000000         4.293061634353252E-074
   79.3250000000000         1.627490825756890E-073
   79.5150000000000         3.304142871002313E-073
   79.7050000000000         5.452366813737000E-073
   79.8950000000000         7.973545363036824E-073
   80.0850000000000         1.063922731551071E-072
   80.2750000000000         1.305378753123845E-072
   80.4650000000000         1.462506063663710E-072
   80.6550000000000         1.455287757949209E-072
   80.8450000000000         1.184794075340975E-072
   81.0350000000000         5.395193888182084E-073
   81.2250000000000        -5.923958944076669E-073
   81.4150000000000        -2.303842588780901E-072
   81.6050000000000        -4.641654701951338E-072
   81.7950000000000        -7.572060437414756E-072
   81.9850000000000        -1.094042196599284E-071
   82.1750000000000        -1.442894564024872E-071
   82.3650000000000        -1.751839555392181E-071
   82.5550000000000        -1.946244089387943E-071
   82.7450000000000        -1.928580703240141E-071
   82.9350000000000        -1.581942921427992E-071
   83.1250000000000        -7.786724506562584E-072
   83.3150000000000         6.045824694745344E-072
   83.5050000000000         2.664414098272403E-071
   83.6950000000000         5.440540901815300E-071
   83.8850000000000         8.878863949050350E-071
   84.0750000000000         1.279005372016813E-070
   84.2650000000000         1.680795560954670E-070
   84.4550000000000         2.035432588712157E-070
   84.6450000000000         2.261872340686706E-070
   84.8350000000000         2.256446634052400E-070
   85.0250000000000         1.897297813528336E-070
   85.2150000000000         1.053904424057504E-070
   85.4050000000000        -3.972143445629425E-071
   85.5950000000000        -2.549940382040478E-070
   85.7850000000000        -5.439186730091242E-070
   85.9750000000000        -9.005816713868034E-070
   86.1650000000000        -1.305835482122206E-069
   86.3550000000000        -1.723568868085567E-069
   86.5450000000000        -2.097683696758130E-069
   86.7350000000000        -2.350571589173765E-069
   86.9250000000000        -2.384039249387973E-069
   87.1150000000000        -2.083719562848395E-069
   87.3050000000000        -1.327982442192913E-069
   87.4950000000000        -2.177119507103433E-072
   87.6850000000000         1.981350043078077E-069
   87.8750000000000         4.657648260778170E-069
   88.0650000000000         7.979042897543584E-069
   88.2550000000000         1.178272327621969E-068
   88.4450000000000         1.575959889500331E-068
   88.6350000000000         1.942942500175367E-068
   88.8250000000000         2.212857610322233E-068
   89.0150000000000         2.301794038967573E-068
   89.2050000000000         2.111894219819772E-068
   89.3950000000000         1.538535533103213E-068
   89.5850000000000         4.817014672064531E-069
   89.7750000000000        -1.138154013838827E-068
   89.9650000000000        -3.359927634522553E-068
   90.1550000000000        -6.158217836721772E-068
   90.3450000000000        -9.417886607894275E-068
   90.5350000000000        -1.290947994199973E-067
   90.7250000000000        -1.626917696726113E-067
   90.9150000000000        -1.898790209735508E-067
   91.1050000000000        -2.041498925983393E-067
   91.2950000000000        -1.978214656521200E-067
   91.4850000000000        -1.625322471631014E-067
   91.6750000000000        -9.004228826966831E-068
   91.8650000000000         2.664062622409755E-068
   92.0550000000000         1.918173663325919E-067
   92.2450000000000         4.053893715177682E-067
   92.4350000000000         6.609944998539100E-067
   92.6250000000000         9.441592524009907E-067
   92.8150000000000         1.230707751580339E-066
   93.0050000000000         1.485732748826269E-066
   93.1950000000000         1.663486563709715E-066
   93.3850000000000         1.708578985634072E-066
   93.5750000000000         1.558862194944138E-066
   93.7650000000000         1.150326714791699E-066
   93.9550000000000         4.242153761692922E-067
   94.1450000000000        -6.636247937285492E-067
   94.3350000000000        -2.131394079247462E-066
   94.5250000000000        -3.958568605087112E-066
   94.7150000000000        -6.072670414999137E-066
   94.9050000000000        -8.336969370113950E-066
   95.0950000000000        -1.054093140992229E-065
   95.2850000000000        -1.239560138707691E-065
   95.4750000000000        -1.353637080600803E-065
   95.6650000000000        -1.353566126526713E-065
   95.8550000000000        -1.192787847923180E-065
   96.0450000000000        -8.248486525372942E-066
   96.2350000000000        -2.088154748807567E-066
   96.4250000000000         6.838401837182941E-066
   96.6150000000000         1.861104467211458E-065
   96.8050000000000         3.301464215230596E-065
   96.9950000000000         4.944817068239634E-065
   97.1850000000000         6.684204108413368E-065
   97.3750000000000         8.359585426649347E-065
   97.5650000000000         9.755110438125709E-065
   97.7550000000000         1.060149692866498E-064
   97.9450000000000         1.058518445632209E-064
   98.1350000000000         9.365824270489336E-065
   98.3250000000000         6.603364511368796E-065
   98.5150000000000         1.995445169203596E-065
   98.7050000000000        -4.674999779351751E-065
   98.8950000000000        -1.348314220456611E-064
   99.0850000000000        -2.429926149621239E-064
   99.2750000000000        -3.672358803376550E-064
   99.4650000000000        -5.002504619915949E-064
   99.6550000000000        -6.309183475682307E-064
   99.8450000000000        -7.440356018456540E-064
   100.035000000000        -8.203609711654074E-064
   100.225000000000        -8.371122104383782E-064
   100.415000000000        -7.690302779526685E-064
   100.605000000000        -5.901187538505303E-064
   100.795000000000        -2.761369881279148E-064
   100.985000000000         1.921227942532927E-064
   101.175000000000         8.248146306351263E-064
   101.365000000000         1.618408490335812E-063
   101.555000000000         2.550702155739872E-063
   101.745000000000         3.575864673193919E-063
   101.935000000000         4.620052245456802E-063
   102.125000000000         5.578292110305742E-063
   102.315000000000         6.313472264896015E-063
   102.505000000000         6.658384156336340E-063
   102.695000000000         6.421815917593842E-063
   102.885000000000         5.399655371292849E-063
   103.075000000000         3.391802223533634E-063
   103.265000000000         2.253750765246623E-064
   103.455000000000        -4.215797493358819E-063
   103.645000000000        -9.956111069771650E-063
   103.835000000000        -1.688915899425320E-062
   104.025000000000        -2.473745313952347E-062
   104.215000000000        -3.301483396719465E-062
   104.405000000000        -4.099680336195844E-062
   104.595000000000        -4.770523651509127E-062
   104.785000000000        -5.191491375592830E-062
   104.975000000000        -5.218984828759705E-062
   105.165000000000        -4.695722612801970E-062
   105.355000000000        -3.462565695441819E-062
   105.545000000000        -1.375210197385270E-062
   105.735000000000         1.674191995440455E-062
   105.925000000000         5.730957941319440E-062
   106.115000000000         1.074850731108110E-061
   106.305000000000         1.655769840958058E-061
   106.495000000000         2.283778746777775E-061
   106.685000000000         2.909288804463838E-061
   106.875000000000         3.463869183032396E-061
   107.065000000000         3.860489479213173E-061
   107.255000000000         3.995909638813259E-061
   107.445000000000         3.755772908855831E-061
   107.635000000000         3.022865076076469E-061
   107.825000000000         1.688822872405873E-061
   108.015000000000        -3.307063157259019E-062
   108.205000000000        -3.077837868042332E-061
   108.395000000000        -6.532028511889895E-061
   108.585000000000        -1.058890242318320E-060
   108.775000000000        -1.504038564783296E-060
   108.965000000000        -1.955882334040939E-060
   109.155000000000        -2.368829169120554E-060
   109.345000000000        -2.684668874367200E-060
   109.535000000000        -2.834229386184838E-060
   109.725000000000        -2.740821679078860E-060
   109.915000000000        -2.325741093091643E-060
   110.105000000000        -1.515961640685452E-060