  -1.42500000000000         0.000000000000000E+000
  -1.23500000000000         0.000000000000000E+000
  -1.04500000000000         0.000000000000000E+000
 -0.855000000000000         0.000000000000000E+000
 -0.665000000000000         0.000000000000000E+000
 -0.475000000000000         0.000000000000000E+000
 -0.285000000000000         0.000000000000000E+000
 -9.499999999999975E-002    0.000000000000000E+000
  9.500000000000020E-002    0.000000000000000E+000
  0.285000000000000         0.000000000000000E+000
  0.475000000000000         0.000000000000000E+000
  0.665000000000000         0.000000000000000E+000
  0.855000000000000         0.000000000000000E+000
   1.04500000000000         0.000000000000000E+000
   1.23500000000000         0.000000000000000E+000
   1.42500000000000         0.000000000000000E+000
   1.61500000000000         0.000000000000000E+000
   1.80500000000000         0.000000000000000E+000
   1.99500000000000         0.000000000000000E+000
   2.18500000000000         0.000000000000000E+000
   2.37500000000000         0.000000000000000E+000
   2.56500000000000         0.000000000000000E+000
   2.75500000000000         0.000000000000000E+000
   2.94500000000000         0.000000000000000E+000
   3.13500000000000         0.000000000000000E+000
   3.32500000000000         0.000000000000000E+000
   3.51500000000000         0.000000000000000E+000
   3.70500000000000         0.000000000000000E+000
   3.89500000000000         0.000000000000000E+000
   4.08500000000000         0.000000000000000E+000
   4.27500000000000         0.000000000000000E+000
   4.46500000000000         0.000000000000000E+000
   4.65500000000000         0.000000000000000E+000
   4.84500000000000         0.000000000000000E+000
   5.03500000000000         0.000000000000000E+000
   5.22500000000000         0.000000000000000E+000
   5.41500000000000         0.000000000000000E+000
   5.60500000000000         0.000000000000000E+000
   5.79500000000000         0.000000000000000E+000
   5.98500000000000         0.000000000000000E+000
   6.17500000000000        -1.341373931581910E-176
   6.36500000000000         1.081966433033875E-169
   6.55500000000000         3.219771333155153E-165
   6.74500000000000         1.515335787119340E-163
   6.93500000000000         5.248967493708973E-162
   7.12500000000000         1.597019821952306E-160
   7.31500000000000         3.599605483308018E-159
   7.50500000000000         5.300713020208469E-158
   7.69500000000000         3.601440738123175E-157
   7.88500000000000        -4.661909686915929E-156
   8.07500000000000        -1.990078392284709E-154
   8.26500000000000        -3.862040454113901E-153
   8.45500000000000        -5.509375342655215E-152
   8.64500000000000        -6.445113779576076E-151
   8.83500000000000        -6.487575918280513E-150
   9.02500000000000        -5.776074856531610E-149
   9.21500000000000        -4.632508600457149E-148
   9.40500000000000        -3.391347940368476E-147
   9.59500000000000        -2.289268484654873E-146
   9.78500000000000        -1.436444153078324E-145
   9.97500000000000        -8.433557786414030E-145
   10.1650000000000        -4.658539021295863E-144
   10.3550000000000        -2.432332875578310E-143
   10.5450000000000        -1.205182931829216E-142
   10.7350000000000        -5.686186413388961E-142
   10.9250000000000        -2.562182324113032E-141
   11.1150000000000        -1.105446726469076E-140
   11.3050000000000        -4.577060587144983E-140
   11.4950000000000        -1.822332154833805E-139
   11.6850000000000        -6.989416172129304E-139
   11.8750000000000        -2.586623631312453E-138
   12.0650000000000        -9.250155926724085E-138
   12.2550000000000        -3.200941972902899E-137
   12.4450000000000        -1.073138976853686E-136
   12.6350000000000        -3.489515795924594E-136
   12.8250000000000        -1.101612028871321E-135
   13.0150000000000        -3.379175344972499E-135
   13.2050000000000        -1.007919430969704E-134
   13.3950000000000        -2.925287351396299E-134
   13.5850000000000        -8.267608899950576E-134
   13.7750000000000        -2.278099225746611E-133
   13.9650000000000        -6.132596148074277E-133
   14.1550000000000        -1.618862671466517E-132
   14.3450000000000        -4.217500189848897E-132
   14.5350000000000        -1.095482947288718E-131
   14.7250000000000        -2.877812792287935E-131
   14.9150000000000        -7.772507197307503E-131
   15.1050000000000        -2.187411605084490E-130
   15.2950000000000        -6.441016492442504E-130
   15.4850000000000        -1.969387994613958E-129
   15.6750000000000        -6.156799893242882E-129
   15.8650000000000        -1.935197910859854E-128
   16.0550000000000        -6.032019602220627E-128
   16.2450000000000        -1.846939403334185E-127
   16.4350000000000        -5.523215850846791E-127
   16.6250000000000        -1.608121853549998E-126
   16.8150000000000        -4.551966293023191E-126
   17.0050000000000        -1.252079994829298E-125
   17.1950000000000        -3.347057897188156E-125
   17.3850000000000        -8.698945689465346E-125
   17.5750000000000        -2.199250996849358E-124
   17.7650000000000        -5.411721801338005E-124
   17.9550000000000        -1.296832302607594E-123
   18.1450000000000        -3.027771285435542E-123
   18.3350000000000        -6.889825835674183E-123
   18.5250000000000        -1.528375353139776E-122
   18.7150000000000        -3.305182951485807E-122
   18.9050000000000        -6.966309823875226E-122
   19.0950000000000        -1.430227129139566E-121
   19.2850000000000        -2.857306396638902E-121
   19.4750000000000        -5.545374225102012E-121
   19.6650000000000        -1.042751734357819E-120
   19.8550000000000        -1.891920201233822E-120
   20.0450000000000        -3.289904515517366E-120
   20.2350000000000        -5.420728513165428E-120
   20.4250000000000        -8.284066187068609E-120
   20.6150000000000        -1.120463761002574E-119
   20.8050000000000        -1.166139267819776E-119
   20.9950000000000        -2.712599353675861E-120
   21.1850000000000         3.233297859871124E-119
   21.3750000000000         1.303988803624149E-118
   21.5650000000000         3.683336313657460E-118
   21.7550000000000         8.982776734603147E-118
   21.9450000000000         2.008275046408520E-117
   22.1350000000000         4.220883261756695E-117
   22.3250000000000         8.443911859864240E-117
   22.5150000000000         1.618265382769172E-116
   22.7050000000000         2.980345288216364E-116
   22.8950000000000         5.278892923062077E-116
   23.0850000000000         8.982158491444156E-116
   23.2750000000000         1.463419054035985E-115
   23.4650000000000         2.269145796578295E-115
   23.6550000000000         3.312881997767349E-115
   23.8450000000000         4.465122314739176E-115
   24.0350000000000         5.331322441724878E-115
   24.2250000000000         5.039685618833193E-115
   24.4150000000000         1.966777385865384E-115
   24.6050000000000        -6.511875628846477E-115
   24.7950000000000        -2.399116983884076E-114
   24.9850000000000        -5.414200627645375E-114
   25.1750000000000        -9.778848533064414E-114
   25.3650000000000        -1.458625581048331E-113
   25.5550000000000        -1.648157622329682E-113
   25.7450000000000        -6.947078624489016E-114
   25.9350000000000         3.230260348868349E-113
   26.1250000000000         1.364136522149256E-112
   26.3150000000000         3.670753122829208E-112
   26.5050000000000         8.233808167933110E-112
   26.6950000000000         1.648998453017135E-111
   26.8850000000000         3.023931946598138E-111
   27.0750000000000         5.116878134510496E-111
   27.2650000000000         7.954037145540804E-111
   27.4550000000000         1.112989709041009E-110
   27.6450000000000         1.324435883750463E-110
   27.8350000000000         1.090264592376756E-110
   28.0250000000000        -2.925937729110348E-111
   28.2150000000000        -4.139338158152761E-110
   28.4050000000000        -1.271955046960712E-109
   28.5950000000000        -2.966836496679434E-109
   28.7850000000000        -6.036418971634514E-109
   28.9750000000000        -1.120180291912571E-108
   29.1650000000000        -1.929464650258472E-108
   29.3550000000000        -3.100476006539514E-108
   29.5450000000000        -4.627997542730516E-108
   29.7350000000000        -6.311020378194571E-108
   29.9250000000000        -7.529799102324836E-108
   30.1150000000000        -6.867491143330798E-108
   30.3050000000000        -1.511630462452026E-108
   30.4950000000000         1.362506844779063E-107
   30.6850000000000         4.708338274360417E-107
   30.8750000000000         1.122345302835582E-106
   31.0650000000000         2.284872555553205E-106
   31.2550000000000         4.214361352979683E-106
   31.4450000000000         7.201348317300817E-106
   31.6350000000000         1.148150114759414E-105
   31.8250000000000         1.702723690033923E-105
   32.0150000000000         2.313129368857069E-105
   32.2050000000000         2.765352526413760E-105
   32.3950000000000         2.576418681881222E-105
   32.5850000000000         8.002959156471542E-106
   32.7750000000000        -4.247094976672454E-105
   32.9650000000000        -1.533521313254227E-104
   33.1550000000000        -3.667975531657813E-104
   33.3450000000000        -7.415791454034064E-104
   33.5350000000000        -1.350405686601862E-103
   33.7250000000000        -2.266152136905317E-103
   33.9150000000000        -3.526470806140833E-103
   34.1050000000000        -5.060603530362970E-103
   34.2950000000000        -6.555798690272581E-103
   34.4850000000000        -7.235481957425428E-103
   34.6750000000000        -5.521403087843047E-103
   34.8650000000000         1.434929741616376E-103
   35.0550000000000         1.832746640476658E-102
   35.2450000000000         5.227022262759394E-102
   35.4350000000000         1.131113904186930E-101
   35.6250000000000         2.129764274751515E-101
   35.8150000000000         3.641564513428627E-101
   36.0050000000000         5.739581661856471E-101
   36.1950000000000         8.345485251332978E-101
   36.3850000000000         1.105298470435992E-100
   36.5750000000000         1.284948433207014E-100
   36.7650000000000         1.171610938480282E-100
   36.9550000000000         4.110344224390960E-101
   37.1450000000000        -1.561112798165827E-100
   37.3350000000000        -5.567367894041420E-100
   37.5250000000000        -1.269545312748096E-099
   37.7150000000000        -2.420904088289257E-099
   37.9050000000000        -4.127610797915485E-099
   38.0950000000000        -6.439267013055329E-099
   38.2850000000000        -9.234660114786369E-099
   38.4750000000000        -1.205519681717800E-098
   38.6650000000000        -1.386162283640398E-098
   38.8550000000000        -1.271226643885374E-098
   39.0450000000000        -5.387630242311259E-099
   39.2350000000000         1.296562952065302E-098
   39.4250000000000         4.902122632143766E-098
   39.6150000000000         1.110291555365123E-097
   39.8050000000000         2.077361058088883E-097
   39.9950000000000         3.459026093270358E-097
   40.1850000000000         5.257020166235649E-097
   40.3750000000000         7.332213459089442E-097
   40.5650000000000         9.294098266067574E-097
   40.7550000000000         1.035296142097168E-096
   40.9450000000000         9.143275602104788E-097
   41.1350000000000         3.545121694449242E-097
   41.3250000000000        -9.441057140728626E-097
   41.5150000000000        -3.367110888839427E-096
   41.7050000000000        -7.353961923473645E-096
   41.8950000000000        -1.331671319428637E-095
   42.0850000000000        -2.148426984970308E-095
   42.2750000000000        -3.164522406028038E-095
   42.4650000000000        -4.276644944594860E-095
   42.6550000000000        -5.247944879705393E-095
   42.8450000000000        -5.645756782799969E-095
   43.0350000000000        -4.776058757544378E-095
   43.2250000000000        -1.630385531716094E-095
   43.4150000000000         5.128135115796154E-095
   43.6050000000000         1.709961346473620E-094
   43.7950000000000         3.594896040014509E-094
   43.9850000000000         6.300830899904257E-094
   44.1750000000000         9.861027939716170E-094
   44.3650000000000         1.410930004136039E-093
   44.5550000000000         1.854533991428337E-093
   44.7450000000000         2.216963917665053E-093
   44.9350000000000         2.330445153093214E-093
   45.1250000000000         1.943417819269237E-093
   45.3150000000000         7.120548137652914E-094
   45.5050000000000        -1.792651523438122E-093
   45.6950000000000        -6.051594697213581E-093
   45.8850000000000        -1.252547032424240E-092
   46.0750000000000        -2.153087471857219E-092
   46.2650000000000        -3.305373759891842E-092
   46.4550000000000        -4.649531972016355E-092
   46.6450000000000        -6.035716795640481E-092
   46.8350000000000        -7.188842048717449E-092
   47.0250000000000        -7.674157714365571E-092
   47.2150000000000        -6.870982805042372E-092
   47.4050000000000        -3.964706270393855E-092
   47.5950000000000         2.030428532516033E-092
   47.7850000000000         1.220388303399501E-091
   47.9750000000000         2.762321003076436E-091
   48.1650000000000         4.913929465986355E-091
   48.3550000000000         7.711617830059693E-091
   48.5450000000000         1.110851692448220E-090
   48.7350000000000         1.493281547124695E-090
   48.9250000000000         1.883962210517005E-090
   49.1150000000000         2.225628299564623E-090
   49.3050000000000         2.431923357583830E-090
   49.4950000000000         2.379738988970808E-090
   49.6850000000000         1.899338519579104E-090
   49.8750000000000         7.611402218268800E-091
   50.0650000000000        -1.341754529389106E-090
   50.2550000000000        -4.814952133808755E-090
   50.4450000000000        -1.018463742917431E-089
   50.6350000000000        -1.811053798719698E-089
   50.8250000000000        -2.937081849101571E-089
   51.0150000000000        -4.478551692256537E-089
   51.2050000000000        -6.502681477655229E-089
   51.3950000000000        -9.024419775686846E-089
   51.5850000000000        -1.194154928964344E-088
   51.7750000000000        -1.493300052925487E-088
   51.9650000000000        -1.731316771569464E-088
   52.1550000000000        -1.784177843416165E-088
   52.3450000000000        -1.450257631144509E-088
   52.5350000000000        -4.287170089139660E-089
   52.7250000000000         1.694526175806556E-088
   52.9150000000000         5.441594218793902E-088
   53.1050000000000         1.140114236063357E-087
   53.2950000000000         2.012801007883899E-087
   53.4850000000000         3.195751534738813E-087
   53.6750000000000         4.670781930803447E-087
   53.8650000000000         6.325108499258086E-087
   54.0550000000000         7.895312374017375E-087
   54.2450000000000         8.901663559394724E-087
   54.4350000000000         8.581930298756300E-087
   54.6250000000000         5.841718331089869E-087
   54.8150000000000        -7.515873322428679E-088
   55.0050000000000        -1.289297264960549E-086
   55.1950000000000        -3.233323718446510E-086
   55.3850000000000        -6.048647026322273E-086
   55.5750000000000        -9.779873517295790E-086
   55.7650000000000        -1.428428504041057E-085
   55.9550000000000        -1.911446285030143E-085
   56.1450000000000        -2.338166717939049E-085
   56.3350000000000        -2.561825205886984E-085
   56.5250000000000        -2.367176917012972E-085
   56.7150000000000        -1.468077156806382E-085
   56.9050000000000         4.799322256664403E-086
   57.0950000000000         3.843630693964497E-085
   57.2850000000000         8.943606424559605E-085
   57.4750000000000         1.594503667014800E-084
   57.6650000000000         2.470312274385602E-084
   57.8550000000000         3.456576547332313E-084
   58.0450000000000         4.414790584600254E-084
   58.2350000000000         5.110892427800134E-084
   58.4250000000000         5.198626129628774E-084
   58.6150000000000         4.216330457686572E-084
   58.8050000000000         1.607398538516302E-084
   58.9950000000000        -3.223554503138229E-084
   59.1850000000000        -1.080649575164498E-083
   59.3750000000000        -2.144376361881380E-083
   59.5650000000000        -3.498606475974119E-083
   59.7550000000000        -5.055421409213432E-083
   59.9450000000000        -6.623145285388535E-083
   60.1350000000000        -7.877457472234135E-083
   60.3250000000000        -8.342036510336205E-083
   60.5150000000000        -7.389386690670112E-083
   60.7050000000000        -4.275108185871986E-083
   60.8950000000000         1.779761341282298E-083
   61.0850000000000         1.144471465295165E-082
   61.2750000000000         2.506516110363223E-082
   61.4650000000000         4.237817001738783E-082
   61.6550000000000         6.217557839911014E-082
   61.8450000000000         8.195424109187284E-082
   62.0350000000000         9.762192362274918E-082
   62.2250000000000         1.033594172886260E-081
   62.4150000000000         9.176984169099405E-082
   62.6050000000000         5.446682814563176E-082
   62.7950000000000        -1.674661933273729E-082
   62.9850000000000        -1.279907492811625E-081
   63.1750000000000        -2.806778338513686E-081
   63.3650000000000        -4.682456742941015E-081
   63.5550000000000        -6.725771769039009E-081
   63.7450000000000        -8.607055280045765E-081
   63.9350000000000        -9.827277883808189E-081
   64.1250000000000        -9.721743878015555E-081
   64.3150000000000        -7.503356087486782E-081
   64.5050000000000        -2.361252931233688E-081
   64.6950000000000         6.371645846101861E-081
   64.8850000000000         1.897544943311396E-080
   65.0750000000000         3.503048317080667E-080
   65.2650000000000         5.306059453208756E-080
   65.4550000000000         7.018511541948508E-080
   65.6450000000000         8.186449834463147E-080
   65.8350000000000         8.185925930080011E-080
   66.0250000000000         6.255229905633645E-080
   66.2150000000000         1.580147591259106E-080
   66.4050000000000        -6.552009437863862E-080
   66.5950000000000        -1.851890424079826E-079
   66.7850000000000        -3.405022307929545E-079
   66.9750000000000        -5.185298912637934E-079
   67.1650000000000        -6.921819882558507E-079
   67.3550000000000        -8.168425476666888E-079
   67.5450000000000        -8.286972225854432E-079
   67.7350000000000        -6.462465293270040E-079
   67.9250000000000        -1.767804524325278E-079
   68.1150000000000         6.703242086853148E-079
   68.3050000000000         1.961878155512302E-078
   68.4950000000000         3.709880157555594E-078
   68.6850000000000         5.831823348874552E-078
   68.8750000000000         8.105099459403104E-078
   69.0650000000000         1.012133177151897E-077
   69.2550000000000         1.125022509464596E-077
   69.4450000000000         1.062667867759820E-077
   69.6350000000000         7.178870245009955E-078
   69.8250000000000        -2.821346771216581E-079
   70.0150000000000        -1.289022422845281E-077
   70.2050000000000        -3.145196900183486E-077
   70.3950000000000        -5.606578427300697E-077
   70.5850000000000        -8.564047722228639E-077
   70.7750000000000        -1.173460438188567E-076
   70.9650000000000        -1.460632869280876E-076
   71.1550000000000        -1.639400884379344E-076
   71.3450000000000        -1.602075617094705E-076
   71.5350000000000        -1.214526083201863E-076
   71.7250000000000        -3.257511729853324E-077
   71.9150000000000         1.213346737143062E-076
   72.1050000000000         3.519960338686648E-076
   72.2950000000000         6.637026434542420E-076
   72.4850000000000         1.047905115457715E-075
   72.6750000000000         1.476915351482612E-075
   72.8650000000000         1.897379422420652E-075
   73.0550000000000         2.224588535281681E-075
   73.2450000000000         2.339170006599080E-075
   73.4350000000000         2.088164757946910E-075
   73.6250000000000         1.292866714369106E-075
   73.8150000000000        -2.340473627693472E-076
   74.0050000000000        -2.659779998715755E-075
   74.1950000000000        -6.089490589317162E-075
   74.3850000000000        -1.051104770571860E-074
   74.5750000000000        -1.572857896801856E-074
   74.7650000000000        -2.129009474427632E-074
   74.9550000000000        -2.641844700792665E-074
   75.1450000000000        -2.995946893062219E-074
   75.3350000000000        -3.036586432796416E-074
   75.5250000000000        -2.573954945369829E-074
   75.7150000000000        -1.395767508482886E-074
   75.9050000000000         7.092811740524715E-075
   76.0950000000000         3.915194887050965E-074
   76.2850000000000         8.308540747036645E-074
   76.4750000000000         1.382534197099068E-073
   76.6650000000000         2.017843812591796E-073
   76.8550000000000         2.678215658401220E-073
   77.0450000000000         3.268521169795503E-073
   77.2350000000000         3.652717371019593E-073
   77.4250000000000         3.653809388459315E-073
   77.6150000000000         3.060416066384548E-073
   77.8050000000000         1.642358057109705E-073
   77.9950000000000        -8.224981559694697E-074
   78.1850000000000        -4.508541527290513E-073
   78.3750000000000        -9.489473137859379E-073
   78.5650000000000        -1.567360918458472E-072
   78.7550000000000        -2.273151485314815E-072
   78.9450000000000        -3.002331116436503E-072
   79.1350000000000        -3.653674291927634E-072
   79.3250000000000        -4.085099542516450E-072
   79.5150000000000        -4.114478089139778E-072
   79.7050000000000        -3.526966854561542E-072
   79.8950000000000        -2.091011413030594E-072
   80.0850000000000         4.150864808423477E-073
   80.2750000000000         4.164797658188729E-072
   80.4650000000000         9.233106703553039E-072
   80.6550000000000         1.553600254229979E-071
   80.8450000000000         2.276365581543206E-071
   81.0350000000000         3.031403591045836E-071
   81.2250000000000         3.723688267960780E-071
   81.4150000000000         4.220116114045165E-071
   81.6050000000000         4.350195429973710E-071
   81.7950000000000         3.912460884898134E-071
   81.9850000000000         2.688413495851372E-071
   82.1750000000000         4.655587424143924E-072
   82.3650000000000        -2.929437392466374E-071
   82.5550000000000        -7.587402725536446E-071
   82.7450000000000        -1.346444079646412E-070
   82.9350000000000        -2.032399315736667E-070
   83.1250000000000        -2.767856384731514E-070
   83.3150000000000        -3.473898145169012E-070
   83.5050000000000        -4.038161172909310E-070
   83.6950000000000        -4.314619402404753E-070
   83.8850000000000        -4.127853524789015E-070
   84.0750000000000        -3.283264571075671E-070
   84.2650000000000        -1.584547255789956E-070
   84.4550000000000         1.140639961806558E-070
   84.6450000000000         5.006537366653115E-070
   84.8350000000000         1.002739891365224E-069
   85.0250000000000         1.606990545310379E-069
   85.2150000000000         2.280355672067315E-069
   85.4050000000000         2.965458938598425E-069
   85.5950000000000         3.577093074916842E-069
   85.7850000000000         4.000755062998158E-069
   85.9750000000000         4.094304211661578E-069
   86.1650000000000         3.693900354882419E-069
   86.3550000000000         2.625341576670747E-069
   86.5450000000000         7.217290019835149E-070
   86.7350000000000        -2.152000552103369E-069
   86.9250000000000        -6.067749391579546E-069
   87.1150000000000        -1.099708369638795E-068
   87.3050000000000        -1.677027004652711E-068
   87.4950000000000        -2.303492961157921E-068
   87.6850000000000        -2.921921987541079E-068
   87.8750000000000        -3.450600800801959E-068
   88.0650000000000        -3.782594391319747E-068
   88.2550000000000        -3.787846020764768E-068
   88.4450000000000        -3.319025449955223E-068
   88.6350000000000        -2.222043587843425E-068
   88.8250000000000        -3.519904118431771E-069
   89.0150000000000         2.405066371257751E-068
   89.2050000000000         6.104492417714141E-068
   89.3950000000000         1.071049675006140E-067
   89.5850000000000         1.606026674950693E-067
   89.7750000000000         2.182769516580940E-067
   89.9650000000000         2.749086714383416E-067
   90.1550000000000         3.230885425894215E-067
   90.3450000000000         3.531469201068898E-067
   90.5350000000000         3.533251830766457E-067
   90.7250000000000         3.102749077483020E-067
   90.9150000000000         2.099699733195915E-067
   91.1050000000000         3.910504760548082E-068
   91.2950000000000        -2.129718779972413E-067
   91.4850000000000        -5.517883696611949E-067
   91.6750000000000        -9.747964698597421E-067
   91.8650000000000        -1.468084882282990E-066
   92.0550000000000        -2.003003141413005E-066
   92.2450000000000        -2.533069416506804E-066
   92.4350000000000        -2.991666734661797E-066
   92.6250000000000        -3.291163839933605E-066
   92.8150000000000        -3.324209382461114E-066
   93.0050000000000        -2.968018757293807E-066
   93.1950000000000        -2.092473457906305E-066
   93.3850000000000        -5.727508805141311E-067
   93.5750000000000         1.693036163590276E-066
   93.7650000000000         4.761118938698492E-066
   93.9550000000000         8.614802951326265E-066
   94.1450000000000         1.313399070753615E-065
   94.3350000000000         1.806384749542622E-065
   94.5250000000000         2.298612845289613E-065
   94.7150000000000         2.729793468050757E-065
   94.9050000000000         3.020387353134997E-065
   95.0950000000000         3.072858872121150E-065
   95.2850000000000         2.775717378950140E-065
   95.4750000000000         2.011081761843738E-065
   95.6650000000000         6.663854475190752E-066
   95.8550000000000        -1.349409733390309E-065
   96.0450000000000        -4.085128848579943E-065
   96.2350000000000        -7.522847975279977E-065
   96.4250000000000        -1.155088607841943E-064
   96.6150000000000        -1.593662113507733E-064
   96.8050000000000        -2.030245405311010E-064
   96.9950000000000        -2.410929635411041E-064
   97.1850000000000        -2.665291118933536E-064
   97.3750000000000        -2.707912678354915E-064
   97.5650000000000        -2.442416440283796E-064
   97.7550000000000        -1.768585018821030E-064
   97.9450000000000        -5.930074081600744E-065
   98.1350000000000         1.156569906495683E-064
   98.3250000000000         3.513393458035815E-064
   98.5150000000000         6.451086995174991E-064
   98.7050000000000         9.861655906194311E-064
   98.8950000000000         1.353425332609756E-063
   99.0850000000000         1.713765115348372E-063
   99.2750000000000         2.021012601457888E-063
   99.4650000000000         2.216109091503563E-063
   99.6550000000000         2.228913959662126E-063
   99.8450000000000         1.982106353096175E-063
   100.035000000000         1.397568333500838E-063
   100.225000000000         4.054848464159221E-064
   100.415000000000        -1.043842468287985E-063
   100.605000000000        -2.965804989739771E-063
   100.795000000000        -5.325685081709065E-063
   100.985000000000        -8.022511546537235E-063
   101.175000000000        -1.087439171407532E-062
   101.365000000000        -1.360768470420942E-062
   101.555000000000        -1.585285228629075E-062
   101.745000000000        -1.715013524708884E-062
   101.935000000000        -1.696825333812664E-062
   102.125000000000        -1.473900782567156E-062
   102.315000000000        -9.909873274458226E-063
   102.505000000000        -2.015313359464347E-063
   102.695000000000         9.234406351582259E-063
   102.885000000000         2.385070290077262E-062
   103.075000000000         4.145734431578859E-062
   103.265000000000         6.118463154753883E-062
   103.455000000000         8.158093503536615E-062
   103.645000000000         1.005586101041871E-061
   103.835000000000         1.153936656423772E-061
   104.025000000000         1.227994863242757E-061
   104.215000000000         1.190937712608270E-061
   104.405000000000         1.004740252580014E-061
   104.595000000000         6.340988943784885E-062
   104.785000000000         5.149983004502550E-063
   104.975000000000        -7.567329479189952E-062
   105.165000000000        -1.783750122710942E-061
   105.355000000000        -2.995388178551390E-061
   105.545000000000        -4.324023994919545E-061
   105.735000000000        -5.664011838838503E-061
   105.925000000000        -6.869796041884089E-061
   106.115000000000        -7.757875136238250E-061
   106.305000000000        -8.113768877320147E-061
   106.495000000000        -7.704973725764962E-061
   106.685000000000        -6.300554805322801E-061
   106.875000000000        -3.697492483569257E-061
   107.065000000000         2.468257744809334E-062
   107.255000000000         5.577486907713080E-061
   107.445000000000         1.220287443968699E-060
   107.635000000000         1.985711385408593E-060
   107.825000000000         2.806890006531590E-060
   108.015000000000         3.614236717206505E-060
   108.205000000000         4.315622506619086E-060
   108.395000000000         4.798743792510731E-060
   108.585000000000         4.936507937472556E-060
   108.775000000000         4.595851221068716E-060
   108.965000000000         3.650159671474312E-060
   109.155000000000         1.995119382946875E-060
   109.345000000000        -4.326137787537515E-061
   109.535000000000        -3.635045724407093E-060
   109.725000000000        -7.532448254402096E-060
   109.915000000000        -1.194514879240317E-059
   110.105000000000        -1.658018793470450E-059