  -1.42500000000000         0.000000000000000E+000
  -1.23500000000000         0.000000000000000E+000
  -1.04500000000000         0.000000000000000E+000
 -0.855000000000000         0.000000000000000E+000
 -0.665000000000000         0.000000000000000E+000
 -0.475000000000000         0.000000000000000E+000
 -0.285000000000000         0.000000000000000E+000
 -9.499999999999975E-002    0.000000000000000E+000
  9.500000000000020E-002    0.000000000000000E+000
  0.285000000000000         0.000000000000000E+000
  0.475000000000000         0.000000000000000E+000
  0.665000000000000         0.000000000000000E+000
  0.855000000000000         0.000000000000000E+000
   1.04500000000000         0.000000000000000E+000
   1.23500000000000         0.000000000000000E+000
   1.42500000000000         0.000000000000000E+000
   1.61500000000000         0.000000000000000E+000
   1.80500000000000         0.000000000000000E+000
   1.99500000000000         0.000000000000000E+000
   2.18500000000000         0.000000000000000E+000
   2.37500000000000         0.000000000000000E+000
   2.56500000000000         0.000000000000000E+000
   2.75500000000000         0.000000000000000E+000
   2.94500000000000         0.000000000000000E+000
   3.13500000000000         0.000000000000000E+000
   3.32500000000000         0.000000000000000E+000
   3.51500000000000         0.000000000000000E+000
   3.70500000000000         0.000000000000000E+000
   3.89500000000000         0.000000000000000E+000
   4.08500000000000         0.000000000000000E+000
   4.27500000000000         0.000000000000000E+000
   4.46500000000000         0.000000000000000E+000
   4.65500000000000         0.000000000000000E+000
   4.84500000000000         0.000000000000000E+000
   5.03500000000000         0.000000000000000E+000
   5.22500000000000         0.000000000000000E+000
   5.41500000000000         0.000000000000000E+000
   5.60500000000000         0.000000000000000E+000
   5.79500000000000         0.000000000000000E+000
   5.98500000000000         0.000000000000000E+000
   6.17500000000000         3.400210477022850E-176
   6.36500000000000        -1.248730180326029E-169
   6.55500000000000        -3.535468766181674E-165
   6.74500000000000        -1.606977528426528E-163
   6.93500000000000        -5.388048014821454E-162
   7.12500000000000        -1.552692030304496E-160
   7.31500000000000        -3.232402304722433E-159
   7.50500000000000        -4.170582185356503E-158
   7.69500000000000        -1.559260507365877E-157
   7.88500000000000         6.847378586558880E-156
   8.07500000000000         2.046469877615206E-154
   8.26500000000000         3.557940158290165E-153
   8.45500000000000         4.736388240736166E-152
   8.64500000000000         5.247901730581257E-151
   8.83500000000000         5.040465396287500E-150
   9.02500000000000         4.301208224542053E-149
   9.21500000000000         3.316301787067895E-148
   9.40500000000000         2.339111826773575E-147
   9.59500000000000         1.523906971402726E-146
   9.78500000000000         9.241168653712226E-146
   9.97500000000000         5.249399454501931E-145
   10.1650000000000         2.808075304623571E-144
   10.3550000000000         1.420930623318255E-143
   10.5450000000000         6.827557823620904E-143
   10.7350000000000         3.125462381199356E-142
   10.9250000000000         1.366941368824191E-141
   11.1150000000000         5.725780138454412E-141
   11.3050000000000         2.301904611210473E-140
   11.4950000000000         8.898211940767707E-140
   11.6850000000000         3.312594730575571E-139
   11.8750000000000         1.189259112225689E-138
   12.0650000000000         4.122240672643251E-138
   12.2550000000000         1.380898560304486E-137
   12.4450000000000         4.474020449556507E-137
   12.6350000000000         1.402743619013750E-136
   12.8250000000000         4.257085875043642E-136
   13.0150000000000         1.250358174363395E-135
   13.2050000000000         3.551551834651844E-135
   13.3950000000000         9.739294970487899E-135
   13.5850000000000         2.570058412352516E-134
   13.7750000000000         6.486740341789155E-134
   13.9650000000000         1.547986652132695E-133
   14.1550000000000         3.411098241893414E-133
   14.3450000000000         6.557109361234339E-133
   14.5350000000000         9.038031342062025E-133
   14.7250000000000        -2.871838874525666E-133
   14.9150000000000        -9.126877733454371E-132
   15.1050000000000        -4.964052823360162E-131
   15.2950000000000        -2.072472652499728E-130
   15.4850000000000        -7.689986174212934E-130
   15.6750000000000        -2.658694541047786E-129
   15.8650000000000        -8.742118048665158E-129
   16.0550000000000        -2.761649589322311E-128
   16.2450000000000        -8.425928313209219E-128
   16.4350000000000        -2.489753984540740E-127
   16.6250000000000        -7.134352426904832E-127
   16.8150000000000        -1.983373981833760E-126
   17.0050000000000        -5.348678081405261E-126
   17.1950000000000        -1.398371989865572E-125
   17.3850000000000        -3.540683465821047E-125
   17.5750000000000        -8.669075455489665E-125
   17.7650000000000        -2.047928837059494E-124
   17.9550000000000        -4.652691265469949E-124
   18.1450000000000        -1.011619719145904E-123
   18.3350000000000        -2.088756807697221E-123
   18.5250000000000        -4.041735057165706E-123
   18.7150000000000        -7.146081188548157E-123
   18.9050000000000        -1.089062738883555E-122
   19.0950000000000        -1.175071418077211E-122
   19.2850000000000         2.803195727950949E-123
   19.4750000000000         6.901364321802247E-122
   19.6650000000000         2.805227416629041E-121
   19.8550000000000         8.611516506470083E-121
   20.0450000000000         2.314037102906031E-120
   20.2350000000000         5.712091605162102E-120
   20.4250000000000         1.323540772427180E-119
   20.6150000000000         2.911294686425307E-119
   20.8050000000000         6.117561719766958E-119
   20.9950000000000         1.232401658668410E-118
   21.1850000000000         2.384456470429137E-118
   21.3750000000000         4.433371613019350E-118
   21.5650000000000         7.917873305410166E-118
   21.7550000000000         1.356688999843881E-117
   21.9450000000000         2.226024635265683E-117
   22.1350000000000         3.489692718904303E-117
   22.3250000000000         5.217807288823491E-117
   22.5150000000000         7.447597288134215E-117
   22.7050000000000         1.023829098696547E-116
   22.8950000000000         1.394231311885568E-116
   23.0850000000000         1.999899103874907E-116
   23.2750000000000         3.278325543421811E-116
   23.4650000000000         6.324527401021442E-116
   23.6550000000000         1.349151975587932E-115
   23.8450000000000         2.913887920335086E-115
   24.0350000000000         5.994817920332982E-115
   24.2250000000000         1.129264667397696E-114
   24.4150000000000         1.862261014107072E-114
   24.6050000000000         2.416091389543504E-114
   24.7950000000000         1.350574975391918E-114
   24.9850000000000        -5.405700222105781E-114
   25.1750000000000        -2.785832181443687E-113
   25.3650000000000        -8.845579532015274E-113
   25.5550000000000        -2.342133574735254E-112
   25.7450000000000        -5.581155002205914E-112
   25.9350000000000        -1.234891930750696E-111
   26.1250000000000        -2.577373101223408E-111
   26.3150000000000        -5.119257953402823E-111
   26.5050000000000        -9.725966419850879E-111
   26.6950000000000        -1.772326511369731E-110
   26.8850000000000        -3.100717104664759E-110
   27.0750000000000        -5.204928010178634E-110
   27.2650000000000        -8.362835675962929E-110
   27.4550000000000        -1.279923261532518E-109
   27.6450000000000        -1.849842038501699E-109
   27.8350000000000        -2.484742773478264E-109
   28.0250000000000        -3.003019464162787E-109
   28.2150000000000        -3.010065544948825E-109
   28.4050000000000        -1.772241564169876E-109
   28.5950000000000         1.927389808811738E-109
   28.7850000000000         9.902013119391688E-109
   28.9750000000000         2.453031971102711E-108
   29.1650000000000         4.836711923031219E-108
   29.3550000000000         8.302977436401521E-108
   29.5450000000000         1.268003220916439E-107
   29.7350000000000         1.701770447036219E-107
   29.9250000000000         1.884793670986691E-107
   30.1150000000000         1.307376816100879E-107
   30.3050000000000        -9.519058390113496E-108
   30.4950000000000        -6.395260975082586E-107
   30.6850000000000        -1.724078775799514E-106
   30.8750000000000        -3.640476612559520E-106
   31.0650000000000        -6.710915257183408E-106
   31.2550000000000        -1.117436348964194E-105
   31.4450000000000        -1.694203422012117E-105
   31.6350000000000        -2.314511442692109E-105
   31.8250000000000        -2.738196658711384E-105
   32.0150000000000        -2.457474707404168E-105
   32.2050000000000        -5.389971392189188E-106
   32.3950000000000         4.569981088703006E-105
   32.5850000000000         1.523847682522288E-104
   32.7750000000000         3.477457345786595E-104
   32.9650000000000         6.732706361280289E-104
   33.1550000000000         1.173187184648885E-103
   33.3450000000000         1.880352175219448E-103
   33.5350000000000         2.788508775362332E-103
   33.7250000000000         3.804522800044580E-103
   33.9150000000000         4.673959121070902E-103
   34.1050000000000         4.875276502678762E-103
   34.2950000000000         3.483840380497830E-103
   34.4850000000000        -9.806161105395593E-104
   34.6750000000000        -1.068747058053450E-102
   34.8650000000000        -2.853936619102173E-102
   35.0550000000000        -5.800724704768672E-102
   35.2450000000000        -1.025724775944861E-101
   35.4350000000000        -1.645194893653352E-101
   35.6250000000000        -2.427556086574119E-101
   35.8150000000000        -3.293023199842563E-101
   36.0050000000000        -4.041514275656296E-101
   36.1950000000000        -4.283807932725184E-101
   36.3850000000000        -3.358728060877484E-101
   36.5750000000000        -2.479037364522007E-102
   36.7650000000000         6.487378621314922E-101
   36.9550000000000         1.870390993938240E-100
   37.1450000000000         3.854069687669999E-100
   37.3350000000000         6.805172832323322E-100
   37.5250000000000         1.084792508603860E-099
   37.7150000000000         1.590163537805315E-099
   37.9050000000000         2.149054540088930E-099
   38.0950000000000         2.647586049709660E-099
   38.2850000000000         2.870951147244785E-099
   38.4750000000000         2.463081485086646E-099
   38.6650000000000         8.863640620110709E-100
   38.8550000000000        -2.607296482332405E-099
   39.0450000000000        -8.975064007354107E-099
   39.2350000000000        -1.932252150872450E-098
   39.4250000000000        -3.474342847034476E-098
   39.6150000000000        -5.600794102139275E-098
   39.8050000000000        -8.303849018212200E-098
   39.9950000000000        -1.141110711045686E-097
   40.1850000000000        -1.447327191111127E-097
   40.3750000000000        -1.661832134954452E-097
   40.5650000000000        -1.637831252126764E-097
   40.7550000000000        -1.150760209314340E-097
   40.9450000000000         1.169455719927684E-098
   41.1350000000000         2.581597522598315E-097
   41.3250000000000         6.744397081348340E-097
   41.5150000000000         1.314352433952536E-096
   41.7050000000000         2.225302749372090E-096
   41.8950000000000         3.430513064889611E-096
   42.0850000000000         4.901023751969818E-096
   42.2750000000000         6.515073979036078E-096
   42.4650000000000         8.003403476693704E-096
   42.6550000000000         8.881133433489113E-096
   42.8450000000000         8.370736013762991E-096
   43.0350000000000         5.326793364588542E-096
   43.2250000000000        -1.817650163126118E-096
   43.4150000000000        -1.505096160560414E-095
   43.6050000000000        -3.668130638330247E-095
   43.7950000000000        -6.906814919827626E-095
   43.9850000000000        -1.141040243156687E-094
   44.1750000000000        -1.723509491532332E-094
   44.3650000000000        -2.417348425676272E-094
   44.5550000000000        -3.157224201128939E-094
   44.7450000000000        -3.809621272144205E-094
   44.9350000000000        -4.144807118951566E-094
   45.1250000000000        -3.807086937903332E-094
   45.3150000000000        -2.288786198035076E-094
   45.5050000000000         1.082893973313185E-094
   45.6950000000000         7.132327755912432E-094
   45.8850000000000         1.677602915144858E-093
   46.0750000000000         3.089271601076662E-093
   46.2650000000000         5.009395482906917E-093
   46.4550000000000         7.436510664532713E-093
   46.6450000000000         1.025504730440589E-092
   46.8350000000000         1.316696479407774E-092
   47.0250000000000         1.560781748648371E-092
   47.2150000000000         1.665290771424800E-092
   47.4050000000000         1.492567332381801E-092
   47.5950000000000         8.529361603918053E-093
   47.7850000000000        -4.965653546575706E-093
   47.9750000000000        -2.843334248795978E-092
   48.1650000000000        -6.494280156809857E-092
   48.3550000000000        -1.172764557476888E-091
   48.5450000000000        -1.871363141265514E-091
   48.7350000000000        -2.739612739312176E-091
   48.9250000000000        -3.732971622688430E-091
   49.1150000000000        -4.747042225842981E-091
   49.3050000000000        -5.592632208908700E-091
   49.4950000000000        -5.968607332337839E-091
   49.6850000000000        -5.436049399332743E-091
   49.8750000000000        -3.399507959029550E-091
   50.0650000000000         8.960276389828049E-092
   50.2550000000000         8.340511556337377E-091
   50.4450000000000         1.989114566667028E-090
   50.6350000000000         3.644289484237960E-090
   50.8250000000000         5.861617099580774E-090
   51.0150000000000         8.644028190246811E-090
   51.2050000000000         1.189142475553282E-089
   51.3950000000000         1.534347537218538E-089
   51.5850000000000         1.850965077479262E-089
   51.7750000000000         2.058955457595533E-089
   51.9650000000000         2.039036872325961E-089
   52.1550000000000         1.625347275822881E-089
   52.3450000000000         6.009184055701416E-090
   52.5350000000000        -1.301285214783988E-089
   52.7250000000000        -4.387998896485038E-089
   52.9150000000000        -8.981085312209024E-089
   53.1050000000000        -1.537276015328409E-088
   53.2950000000000        -2.375365247394002E-088
   53.4850000000000        -3.410616928482068E-088
   53.6750000000000        -4.605582722689799E-088
   53.8650000000000        -5.867467843321972E-088
   54.0550000000000        -7.023439868196372E-088
   54.2450000000000        -7.791297728576558E-088
   54.4350000000000        -7.746950660126574E-088
   54.6250000000000        -6.291791626648577E-088
   54.8150000000000        -2.625457608172393E-088
   55.0050000000000         4.267132083624402E-088
   55.1950000000000         1.560096745274375E-087
   55.3850000000000         3.272893220517122E-087
   55.5750000000000         5.700589215330158E-087
   55.7650000000000         8.954403914284158E-087
   55.9550000000000         1.308165965268730E-086
   56.1450000000000         1.800610655765397E-086
   56.3350000000000         2.344328076477531E-086
   56.5250000000000         2.878702212441117E-086
   56.7150000000000         3.296616610704669E-086
   56.9050000000000         3.427615160603664E-086
   57.0950000000000         3.020004197235768E-086
   57.2850000000000         1.724848850629060E-086
   57.4750000000000        -9.130498955195255E-087
   57.6650000000000        -5.449312916428781E-086
   57.8550000000000        -1.250803178487500E-085
   58.0450000000000        -2.270887822810444E-085
   58.2350000000000        -3.653530292573610E-085
   58.4250000000000        -5.412428700952709E-085
   58.6150000000000        -7.495979737906786E-085
   58.8050000000000        -9.745929276236896E-085
   58.9950000000000        -1.184580696810417E-084
   59.1850000000000        -1.326228585718947E-084
   59.3750000000000        -1.318664431315796E-084
   59.5650000000000        -1.048904667457711E-084
   59.7550000000000        -3.705273430334080E-085
   59.9450000000000         8.916724300932095E-085
   60.1350000000000         2.927564340593063E-084
   60.3250000000000         5.914102057724118E-084
   60.5150000000000         9.970261965934472E-084
   60.7050000000000         1.509133142161418E-083
   60.8950000000000         2.106151249633327E-083
   61.0850000000000         2.734765581186348E-083
   61.2750000000000         3.298282776997108E-083
   61.4650000000000         3.645642967838212E-083
   61.6550000000000         3.563738879981159E-083
   61.8450000000000         2.776755211518300E-083
   62.0350000000000         9.572019858376923E-084
   62.2250000000000        -2.246102464468773E-083
   62.4150000000000        -7.158013440251117E-083
   62.6050000000000        -1.400128614746358E-082
   62.7950000000000        -2.279433533621903E-082
   62.9850000000000        -3.322682451236840E-082
   63.1750000000000        -4.452448859599295E-082
   63.3650000000000        -5.532346199728063E-082
   63.5550000000000        -6.358401677532898E-082
   63.7450000000000        -6.658217097398691E-082
   63.9350000000000        -6.102231539536798E-082
   64.1250000000000        -4.331116556261610E-082
   64.3150000000000        -1.001880022594624E-082
   64.5050000000000         4.147763282773122E-082
   64.6950000000000         1.122202339952144E-081
   64.8850000000000         2.008849921891883E-081
   65.0750000000000         3.031799051301679E-081
   65.2650000000000         4.116961460342876E-081
   65.4550000000000         5.165306178984874E-081
   65.6450000000000         6.069879462416512E-081
   65.8350000000000         6.745583590132533E-081
   66.0250000000000         7.171087520053584E-081
   66.2150000000000         7.437767854343057E-081
   66.4050000000000         7.794019164101342E-081
   66.5950000000000         8.664841791789132E-081
   66.7850000000000         1.061719936334453E-080
   66.9750000000000         1.423307397705197E-080
   67.1650000000000         1.984746138547510E-080
   67.3550000000000         2.711207717472991E-080
   67.5450000000000         3.436281203851406E-080
   67.7350000000000         3.780619160705102E-080
   67.9250000000000         3.060313284642943E-080
   68.1150000000000         2.020980346000740E-081
   68.3050000000000        -6.305346098999279E-080
   68.4950000000000        -1.838045477571527E-079
   68.6850000000000        -3.818023614940982E-079
   68.8750000000000        -6.772489930541738E-079
   69.0650000000000        -1.082434128311964E-078
   69.2550000000000        -1.591797245268018E-078
   69.4450000000000        -2.168344808943456E-078
   69.6350000000000        -2.726839728129656E-078
   69.8250000000000        -3.115242671117985E-078
   70.0150000000000        -3.097381320836270E-078
   70.2050000000000        -2.341727276425368E-078
   70.3950000000000        -4.233364488768330E-079
   70.5850000000000         3.151828059225955E-078
   70.7750000000000         8.889297450893174E-078
   70.9650000000000         1.720383654805280E-077
   71.1550000000000         2.826272559354142E-077
   71.3450000000000         4.176953130142748E-077
   71.5350000000000         5.669231998603249E-077
   71.7250000000000         7.095449745058885E-077
   71.9150000000000         8.112643570973466E-077
   72.1050000000000         8.218145258422651E-077
   72.2950000000000         6.740894182058844E-077
   72.4850000000000         2.860712213365287E-077
   72.6750000000000        -4.329762335042985E-077
   72.8650000000000        -1.570466082628757E-076
   73.0550000000000        -3.191142622236285E-076
   73.2450000000000        -5.309462606781800E-076
   73.4350000000000        -7.853716030025957E-076
   73.6250000000000        -1.062348833701676E-075
   73.8150000000000        -1.324433445828657E-075
   74.0050000000000        -1.512646644314665E-075
   74.1950000000000        -1.543770091882056E-075
   74.3850000000000        -1.310453561313794E-075
   74.5750000000000        -6.858460950189917E-076
   74.7650000000000         4.653361228746060E-076
   74.9550000000000         2.267418714982227E-075
   75.1450000000000         4.804553642603005E-075
   75.3350000000000         8.081060321086629E-075
   75.5250000000000         1.197221179601882E-074
   75.7150000000000         1.616857638343908E-074
   75.9050000000000         2.011997404765798E-074
   76.0950000000000         2.298867358254317E-074
   76.2850000000000         2.362536296932372E-074
   76.4750000000000         2.058517915677658E-074
   76.6650000000000         1.220394871134464E-074
   76.8550000000000        -3.244218060893205E-075
   77.0450000000000        -2.728891875654690E-074
   77.2350000000000        -6.089245174808324E-074
   77.4250000000000        -1.039653801602497E-073
   77.6150000000000        -1.547870780023390E-073
   77.8050000000000        -2.093756160793017E-073
   77.9950000000000        -2.608838473284854E-073
   78.1850000000000        -2.991356788679120E-073
   78.3750000000000        -3.104545694843123E-073
   78.5650000000000        -2.779694947839397E-073
   78.7550000000000        -1.826040286061371E-073
   78.9450000000000        -4.951867461731849E-075
   79.1350000000000         2.717942219508176E-073
   79.3250000000000         6.577749420612401E-073
   79.5150000000000         1.151310830061568E-072
   79.7050000000000         1.732913878963715E-072
   79.8950000000000         2.358975956364090E-072
   80.0850000000000         2.955956105552382E-072
   80.2750000000000         3.416226067702995E-072
   80.4650000000000         3.597057877144088E-072
   80.6550000000000         3.324492578202424E-072
   80.8450000000000         2.403941917835400E-072
   81.0350000000000         6.392591872772085E-073
   81.2250000000000        -2.138420795314242E-072
   81.4150000000000        -6.031615881997886E-072
   81.6050000000000        -1.102806431337259E-071
   81.7950000000000        -1.694559891807252E-071
   81.9850000000000        -2.337527378717879E-071
   82.1750000000000        -2.963029762038398E-071
   82.3650000000000        -3.471104059865329E-071
   82.5550000000000        -3.729884793263876E-071
   82.7450000000000        -3.579314036321033E-071
   82.9350000000000        -2.840673030017131E-071
   83.1250000000000        -1.333278316087069E-071
   83.3150000000000         1.100724755134134E-071
   83.5050000000000         4.563265392794357E-071
   83.6950000000000         9.059822317134528E-071
   83.8850000000000         1.445378081152366E-070
   84.0750000000000         2.041972638266274E-070
   84.2650000000000         2.640167137056182E-070
   84.4550000000000         3.158416614390076E-070
   84.6450000000000         3.488595187888233E-070
   84.8350000000000         3.498692894608784E-070
   85.0250000000000         3.039934613774388E-070
   85.2150000000000         1.959283513211823E-070
   85.4050000000000         1.179812880537549E-071
   85.5950000000000        -2.583747773870079E-070
   85.7850000000000        -6.176459755030946E-070
   85.9750000000000        -1.058733644440081E-069
   86.1650000000000        -1.560490153843865E-069
   86.3550000000000        -2.084668105653904E-069
   86.5450000000000        -2.573515729499293E-069
   86.7350000000000        -2.948846779228505E-069
   86.9250000000000        -3.113302453370922E-069
   87.1150000000000        -2.954534118335229E-069
   87.3050000000000        -2.352961532660778E-069
   87.4950000000000        -1.193579342907762E-069
   87.6850000000000         6.180226429578604E-070
   87.8750000000000         3.135701179992866E-069
   88.0650000000000         6.349710303718794E-069
   88.2550000000000         1.016208868592767E-068
   88.4450000000000         1.436276153515838E-068
   88.6350000000000         1.860939416884229E-068
   88.8250000000000         2.241472147084546E-068
   89.0150000000000         2.514559362051444E-068
   89.2050000000000         2.603821267389837E-068
   89.3950000000000         2.423387152446388E-068
   89.5850000000000         1.883883744994055E-068
   89.7750000000000         9.010756298061949E-069
   89.9650000000000        -5.927968745467814E-069
   90.1550000000000        -2.635196303033951E-068
   90.3450000000000        -5.217519462095679E-068
   90.5350000000000        -8.268293354079700E-068
   90.7250000000000        -1.163665849583928E-067
   90.9150000000000        -1.507788596052594E-067
   91.1050000000000        -1.824308011625474E-067
   91.2950000000000        -2.067557109893137E-067
   91.4850000000000        -2.181675863678689E-067
   91.6750000000000        -2.102428637291346E-067
   91.8650000000000        -1.760535313072335E-067
   92.0550000000000        -1.086764940548882E-067
   92.2450000000000        -1.897826371106555E-069
   92.4350000000000         1.488794422404245E-067
   92.6250000000000         3.455298394810188E-067
   92.8150000000000         5.859278364033200E-067
   93.0050000000000         8.625494571216007E-067
   93.1950000000000         1.161036875349180E-066
   93.3850000000000         1.458849067506269E-066
   93.5750000000000         1.724167379142992E-066
   93.7650000000000         1.915275635993327E-066
   93.9550000000000         1.980687109048334E-066
   94.1450000000000         1.860339979953071E-066
   94.3350000000000         1.488220985724374E-066
   94.5250000000000         7.967925325136347E-067
   94.7150000000000        -2.764226793246470E-067
   94.9050000000000        -1.779821041043303E-066
   95.0950000000000        -3.736132351102953E-066
   95.2850000000000        -6.128382934095803E-066
   95.4750000000000        -8.883874984311118E-066
   95.6650000000000        -1.185712399350635E-065
   95.8550000000000        -1.481328986072212E-065
   96.0450000000000        -1.741433083179746E-065
   96.2350000000000        -1.921085901531309E-065
   96.4250000000000        -1.964340788471470E-065
   96.6150000000000        -1.805742727900473E-065
   96.8050000000000        -1.373665520976310E-065
   96.9950000000000        -5.959400465787046E-066
   97.1850000000000         5.918495979898203E-066
   97.3750000000000         2.235187763133673E-065
   97.5650000000000         4.346619671101006E-065
   97.7550000000000         6.889353018219088E-065
   97.9450000000000         9.759414450626859E-065
   98.1350000000000         1.276792449487625E-064
   98.3250000000000         1.562575188140385E-064
   98.5150000000000         1.793352925423733E-064
   98.7050000000000         1.918067322560721E-064
   98.8950000000000         1.875753974255672E-064
   99.0850000000000         1.598502123372478E-064
   99.2750000000000         1.016559574779620E-064
   99.4650000000000         6.589038854629713E-066
   99.6550000000000        -1.301679801186358E-064
   99.8450000000000        -3.105859833618107E-064
   100.035000000000        -5.323319456753112E-064
   100.225000000000        -7.872086320097787E-064
   100.415000000000        -1.059637720441806E-063
   100.605000000000        -1.325388742760989E-063
   100.795000000000        -1.550810460240229E-063
   100.985000000000        -1.692866243649108E-063
   101.175000000000        -1.700301387761407E-063
   101.365000000000        -1.516267329129078E-063
   101.555000000000        -1.082684084924965E-063
   101.745000000000        -3.465270488515101E-064
   101.935000000000         7.319312089842161E-064
   102.125000000000         2.169114128662429E-063
   102.315000000000         3.946843920386890E-063
   102.505000000000         6.000567676875409E-063
   102.695000000000         8.208294918204270E-063
   102.885000000000         1.038181300127193E-062
   103.075000000000         1.226208601699624E-062
   103.265000000000         1.352098811920122E-062
   103.455000000000         1.377160974433836E-062
   103.645000000000         1.258923591281503E-062
   103.835000000000         9.544662010112856E-063
   104.025000000000         4.250725995065225E-063
   104.215000000000        -3.578241449793740E-063
   104.405000000000        -1.405592275817667E-062
   104.595000000000        -2.704628659171285E-062
   104.785000000000        -4.208464851143868E-062
   104.975000000000        -5.830586723832116E-062
   105.165000000000        -7.439025110112589E-062
   105.355000000000        -8.853958963360142E-062
   105.545000000000        -9.849683913985299E-062
   105.735000000000        -1.016230022207056E-061
   105.925000000000        -9.504326756680456E-062
   106.115000000000        -7.587117001522482E-062
   106.305000000000        -4.151412845799033E-062
   106.495000000000         9.943901703606434E-063
   106.685000000000         7.929668586262113E-062
   106.875000000000         1.657324666319221E-061
   107.065000000000         2.663515371962889E-061
   107.255000000000         3.757358670351813E-061
   107.445000000000         4.856338126319496E-061
   107.635000000000         5.848320107211999E-061
   107.825000000000         6.592910464142719E-061
   108.015000000000         6.926194724488929E-061
   108.205000000000         6.669503570833347E-061
   108.395000000000         5.642641706132522E-061
   108.585000000000         3.681704353153742E-061
   108.775000000000         6.611792037891757E-062
   108.965000000000        -3.480499023964459E-061
   109.155000000000        -8.713387676854568E-061
   109.345000000000        -1.488857504472357E-060
   109.535000000000        -2.171357973598510E-060
   109.725000000000        -2.873395391178436E-060
   109.915000000000        -3.532486541207448E-060
   110.105000000000        -4.069662723928446E-060