  -1.42500000000000         0.000000000000000E+000
  -1.23500000000000         0.000000000000000E+000
  -1.04500000000000         0.000000000000000E+000
 -0.855000000000000         0.000000000000000E+000
 -0.665000000000000         0.000000000000000E+000
 -0.475000000000000         0.000000000000000E+000
 -0.285000000000000         0.000000000000000E+000
 -9.499999999999975E-002    0.000000000000000E+000
  9.500000000000020E-002    0.000000000000000E+000
  0.285000000000000         0.000000000000000E+000
  0.475000000000000         0.000000000000000E+000
  0.665000000000000         0.000000000000000E+000
  0.855000000000000         0.000000000000000E+000
   1.04500000000000         0.000000000000000E+000
   1.23500000000000         0.000000000000000E+000
   1.42500000000000         0.000000000000000E+000
   1.61500000000000         0.000000000000000E+000
   1.80500000000000         0.000000000000000E+000
   1.99500000000000         0.000000000000000E+000
   2.18500000000000         0.000000000000000E+000
   2.37500000000000         0.000000000000000E+000
   2.56500000000000         0.000000000000000E+000
   2.75500000000000         0.000000000000000E+000
   2.94500000000000         0.000000000000000E+000
   3.13500000000000         0.000000000000000E+000
   3.32500000000000         0.000000000000000E+000
   3.51500000000000         0.000000000000000E+000
   3.70500000000000         0.000000000000000E+000
   3.89500000000000         0.000000000000000E+000
   4.08500000000000         0.000000000000000E+000
   4.27500000000000         0.000000000000000E+000
   4.46500000000000         0.000000000000000E+000
   4.65500000000000         0.000000000000000E+000
   4.84500000000000         0.000000000000000E+000
   5.03500000000000         0.000000000000000E+000
   5.22500000000000         0.000000000000000E+000
   5.41500000000000         0.000000000000000E+000
   5.60500000000000         0.000000000000000E+000
   5.79500000000000         0.000000000000000E+000
   5.98500000000000         0.000000000000000E+000
   6.17500000000000         0.000000000000000E+000
   6.36500000000000         1.671257577202893E-177
   6.55500000000000         1.920815737234764E-171
   6.74500000000000         5.624982790721400E-167
   6.93500000000000         2.494403619007049E-165
   7.12500000000000         8.754811821273163E-164
   7.31500000000000         2.732670253661278E-162
   7.50500000000000         6.060552769364383E-161
   7.69500000000000         8.267317402477130E-160
   7.88500000000000         3.712484811255533E-159
   8.07500000000000        -1.244725040612702E-157
   8.26500000000000        -3.938162552053588E-156
   8.45500000000000        -6.960335279807122E-155
   8.64500000000000        -9.302841107473498E-154
   8.83500000000000        -1.025934887603568E-152
   9.02500000000000        -9.727153395432492E-152
   9.21500000000000        -8.120713193228666E-151
   9.40500000000000        -6.062108903439392E-150
   9.59500000000000        -4.087843239204766E-149
   9.78500000000000        -2.505812595762923E-148
   9.97500000000000        -1.400150414973831E-147
   10.1650000000000        -7.120356699933481E-147
   10.3550000000000        -3.268730925685296E-146
   10.5450000000000        -1.325920510471200E-145
   10.7350000000000        -4.491878044749431E-145
   10.9250000000000        -1.036041231352371E-144
   11.1150000000000         7.428213263917750E-145
   11.3050000000000         2.916999066563758E-143
   11.4950000000000         2.407217128929438E-142
   11.6850000000000         1.492799514560968E-141
   11.8750000000000         8.024978827438643E-141
   12.0650000000000         3.926623823296066E-140
   12.2550000000000         1.789503787258191E-139
   12.4450000000000         7.695252685405836E-139
   12.6350000000000         3.148138619051438E-138
   12.8250000000000         1.232172379360463E-137
   13.0150000000000         4.633046367631273E-137
   13.2050000000000         1.678896501666552E-136
   13.3950000000000         5.878497833344688E-136
   13.5850000000000         1.993172425935422E-135
   13.7750000000000         6.556844113837214E-135
   13.9650000000000         2.096386916881731E-134
   14.1550000000000         6.524821507826264E-134
   14.3450000000000         1.979816803488790E-133
   14.5350000000000         5.864306127354832E-133
   14.7250000000000         1.697609335128490E-132
   14.9150000000000         4.806948305952966E-132
   15.1050000000000         1.332100951847556E-131
   15.2950000000000         3.612914274282178E-131
   15.4850000000000         9.584634257114554E-131
   15.6750000000000         2.483613909175884E-130
   15.8650000000000         6.270723392200217E-130
   16.0550000000000         1.536678136589693E-129
   16.2450000000000         3.632913585483340E-129
   16.4350000000000         8.206581503818266E-129
   16.6250000000000         1.742530941819978E-128
   16.8150000000000         3.368697628085129E-128
   17.0050000000000         5.485185550233048E-128
   17.1950000000000         5.486387532537902E-128
   17.3850000000000        -8.113206807274729E-128
   17.5750000000000        -7.520725046779474E-127
   17.7650000000000        -3.187394549575889E-126
   17.9550000000000        -1.089190294342867E-125
   18.1450000000000        -3.328926366231616E-125
   18.3350000000000        -9.453186306813885E-125
   18.5250000000000        -2.539968130208392E-124
   18.7150000000000        -6.522653373934251E-124
   18.9050000000000        -1.610716933929546E-123
   19.0950000000000        -3.839983416790043E-123
   19.2850000000000        -8.861683650023027E-123
   19.4750000000000        -1.983322172199454E-122
   19.6650000000000        -4.310703976447689E-122
   19.8550000000000        -9.108032558927799E-122
   20.0450000000000        -1.872339525088156E-121
   20.2350000000000        -3.747731951012201E-121
   20.4250000000000        -7.310759630043401E-121
   20.6150000000000        -1.391514026131406E-120
   20.8050000000000        -2.588944521843662E-120
   20.9950000000000        -4.721431670551912E-120
   21.1850000000000        -8.475929290392474E-120
   21.3750000000000        -1.507216083859426E-119
   21.5650000000000        -2.677550246846577E-119
   21.7550000000000        -4.801387193855821E-119
   21.9450000000000        -8.782123974523930E-119
   22.1350000000000        -1.650906013652350E-118
   22.3250000000000        -3.195165421392405E-118
   22.5150000000000        -6.334895053030591E-118
   22.7050000000000        -1.273889474495556E-117
   22.8950000000000        -2.567645020119421E-117
   23.0850000000000        -5.129720577157034E-117
   23.2750000000000        -1.006231501973240E-116
   23.4650000000000        -1.922801109938739E-116
   23.6550000000000        -3.554232958772251E-116
   23.8450000000000        -6.308301662687618E-116
   24.0350000000000        -1.064840440624201E-115
   24.2250000000000        -1.684193904618286E-115
   24.4150000000000        -2.427494216055516E-115
   24.6050000000000        -2.987738473907667E-115
   24.7950000000000        -2.486278747124099E-115
   24.9850000000000         1.151199738918901E-115
   25.1750000000000         1.230996434823459E-114
   25.3650000000000         3.955009861344991E-114
   25.5550000000000         9.849950743631757E-114
   25.7450000000000         2.159452708813258E-113
   25.9350000000000         4.348578427875379E-113
   26.1250000000000         8.189773521944476E-113
   26.3150000000000         1.453222044616399E-112
   26.5050000000000         2.431598370473284E-112
   26.6950000000000         3.816093827007795E-112
   26.8850000000000         5.536304886045386E-112
   27.0750000000000         7.178005721794786E-112
   27.2650000000000         7.577370113973558E-112
   27.4550000000000         4.095478183734632E-112
   27.6450000000000        -8.601310135669657E-112
   27.8350000000000        -4.047246976829010E-111
   28.0250000000000        -1.089684863498693E-110
   28.2150000000000        -2.429552754070893E-110
   28.4050000000000        -4.875023558281143E-110
   28.5950000000000        -9.085871881800891E-110
   28.7850000000000        -1.595248901213387E-109
   28.9750000000000        -2.653933603078745E-109
   29.1650000000000        -4.185012851031148E-109
   29.3550000000000        -6.223872320817077E-109
   29.5450000000000        -8.617728200139570E-109
   29.7350000000000        -1.079409626876811E-108
   29.9250000000000        -1.135876544454048E-108
   30.1150000000000        -7.444733736366053E-109
   30.3050000000000         6.270041433752895E-109
   30.4950000000000         3.892627262073863E-108
   30.6850000000000         1.051693129414848E-107
   30.8750000000000         2.268420089598628E-107
   31.0650000000000         4.338577515563592E-107
   31.2550000000000         7.625104239569458E-107
   31.4450000000000         1.247970868787640E-106
   31.6350000000000         1.905441897300338E-106
   31.8250000000000         2.691319364862986E-106
   32.0150000000000         3.431962029633553E-106
   32.2050000000000         3.704191208047015E-106
   32.3950000000000         2.650529693624063E-106
   32.5850000000000        -1.282400484137485E-106
   32.7750000000000        -1.067472058489729E-105
   32.9650000000000        -2.948135288201046E-105
   33.1550000000000        -6.325913865547779E-105
   33.3450000000000        -1.189860186128055E-104
   33.5350000000000        -2.039513287714095E-104
   33.7250000000000        -3.228616281811454E-104
   33.9150000000000        -4.718788468224465E-104
   34.1050000000000        -6.278465388558181E-104
   34.2950000000000        -7.306217826123869E-104
   34.4850000000000        -6.565298446821310E-104
   34.6750000000000        -1.820470046430531E-104
   34.8650000000000         1.060241631696629E-103
   35.0550000000000         3.625342529651329E-103
   35.2450000000000         8.280501363856801E-103
   35.4350000000000         1.597517446736585E-102
   35.6250000000000         2.769631428467466E-102
   35.8150000000000         4.411735401851027E-102
   36.0050000000000         6.491386044634311E-102
   36.1950000000000         8.758865589372963E-102
   36.3850000000000         1.056423037256149E-101
   36.5750000000000         1.059719583813784E-101
   36.7650000000000         6.552959883075947E-102
   36.9550000000000        -5.241602280355674E-102
   37.1450000000000        -3.015124440365484E-101
   37.3350000000000        -7.532699767734149E-101
   37.5250000000000        -1.492682095395916E-100
   37.7150000000000        -2.603863281870760E-100
   37.9050000000000        -4.139236489477205E-100
   38.0950000000000        -6.064207671343412E-100
   38.2850000000000        -8.168667210067687E-100
   38.4750000000000        -9.938333083388796E-100
   38.6650000000000        -1.038475860848981E-099
   38.8550000000000        -7.845201596196073E-100
   39.0450000000000         2.147151272492452E-101
   39.2350000000000         1.732891688591963E-099
   39.4250000000000         4.797563435931258E-099
   39.6150000000000         9.716618839284755E-099
   39.8050000000000         1.694404113023830E-098
   39.9950000000000         2.669757358443132E-098
   40.1850000000000         3.864959745540582E-098
   40.3750000000000         5.147186306751550E-098
   40.5650000000000         6.222600083017070E-098
   40.7550000000000         6.562909791763549E-098
   40.9450000000000         5.328716706253109E-098
   41.1350000000000         1.308451223544729E-098
   41.3250000000000        -7.095493889725214E-098
   41.5150000000000        -2.178642446912253E-097
   41.7050000000000        -4.473580268222444E-097
   41.8950000000000        -7.751279456132586E-097
   42.0850000000000        -1.205019508475614E-096
   42.2750000000000        -1.717449594746281E-096
   42.4650000000000        -2.253862809384142E-096
   42.6550000000000        -2.697870946606273E-096
   42.8450000000000        -2.855076401227558E-096
   43.0350000000000        -2.435497377282055E-096
   43.2250000000000        -1.044935135490261E-096
   43.4150000000000         1.805671144508582E-096
   43.6050000000000         6.661320001552192E-096
   43.7950000000000         1.404123101526736E-095
   43.9850000000000         2.430137115942416E-095
   44.1750000000000         3.743162915212043E-095
   44.3650000000000         5.278577505213409E-095
   44.5550000000000         6.875543674225485E-095
   44.7450000000000         8.241812150657095E-095
   44.9350000000000         8.921300901467768E-095
   45.1250000000000         8.272444335764494E-095
   45.3150000000000         5.467748859254274E-095
   45.5050000000000        -4.733423199891629E-096
   45.6950000000000        -1.060598100169935E-094
   45.8850000000000        -2.592546800691052E-094
   46.0750000000000        -4.717081390020444E-094
   46.2650000000000        -7.456680615741985E-094
   46.4550000000000        -1.075125711535225E-093
   46.6450000000000        -1.442308551902556E-093
   46.8350000000000        -1.813941536032525E-093
   47.0250000000000        -2.137382119340646E-093
   47.2150000000000        -2.336585482395438E-093
   47.4050000000000        -2.307635406255439E-093
   47.5950000000000        -1.913372081707592E-093
   47.7850000000000        -9.766507012428690E-094
   47.9750000000000         7.277146015851733E-094
   48.1650000000000         3.480804061935891E-093
   48.3550000000000         7.622848573384959E-093
   48.5450000000000         1.354283287832326E-092
   48.7350000000000         2.163893020350962E-092
   48.9250000000000         3.222671380335478E-092
   49.1150000000000         4.536537788617914E-092
   49.3050000000000         6.056986191053116E-092
   49.4950000000000         7.638428268462989E-092
   49.6850000000000         8.981668829507245E-092
   49.8750000000000         9.568494892604371E-092
   50.0650000000000         8.600541464564177E-092
   50.2550000000000         4.967171738238688E-092
   50.4450000000000        -2.718750317053132E-092
   50.6350000000000        -1.596412197554053E-091
   50.8250000000000        -3.605546349865968E-091
   51.0150000000000        -6.347619882945928E-091
   51.2050000000000        -9.704873320662520E-091
   51.3950000000000        -1.328312122937049E-090
   51.5850000000000        -1.629094478042703E-090
   51.7750000000000        -1.743903617238806E-090
   51.9650000000000        -1.491198099989201E-090
   52.1550000000000        -6.488933879238881E-091
   52.3450000000000         1.008932790056212E-090
   52.5350000000000         3.640130728258855E-090
   52.7250000000000         7.218688786675975E-090
   52.9150000000000         1.137281122278369E-089
   53.1050000000000         1.518757389690663E-089
   53.2950000000000         1.700408972670636E-089
   53.4850000000000         1.427726668682318E-089
   53.6750000000000         3.591839857022959E-090
   53.8650000000000        -1.902360037942143E-089
   54.0550000000000        -5.731238105951084E-089
   54.2450000000000        -1.133544136155688E-088
   54.4350000000000        -1.853367692617030E-088
   54.6250000000000        -2.645000468747434E-088
   54.8150000000000        -3.314483996848030E-088
   55.0050000000000        -3.523591245548439E-088
   55.1950000000000        -2.761143457486085E-088
   55.3850000000000        -3.397924499952521E-089
   55.5750000000000         4.559053331304321E-088
   55.7650000000000         1.276406998141329E-087
   55.9550000000000         2.488644035720999E-087
   56.1450000000000         4.096007310486560E-087
   56.3350000000000         5.993865133988568E-087
   56.5250000000000         7.906794266758440E-087
   56.7150000000000         9.319929749081325E-087
   56.9050000000000         9.417731911340163E-087
   57.0950000000000         7.051883145587714E-087
   57.2850000000000         7.692830511146082E-088
   57.4750000000000        -1.106050712647307E-086
   57.6650000000000        -2.997425424063576E-086
   57.8550000000000        -5.695902925629055E-086
   58.0450000000000        -9.178452827838292E-086
   58.2350000000000        -1.321290930361039E-085
   58.4250000000000        -1.725583704630059E-085
   58.6150000000000        -2.034929537982810E-085
   58.8050000000000        -2.104005967780017E-085
   58.9950000000000        -1.735611426977002E-085
   59.1850000000000        -6.886066660805975E-086
   59.3750000000000         1.298527517748318E-085
   59.5650000000000         4.463151240624793E-085
   59.7550000000000         8.948743330674423E-085
   59.9450000000000         1.470868373376164E-084
   60.1350000000000         2.138730480575886E-084
   60.3250000000000         2.818948980376828E-084
   60.5150000000000         3.375989687756455E-084
   60.7050000000000         3.610419961657039E-084
   60.8950000000000         3.259595474235234E-084
   61.0850000000000         2.012124775102355E-084
   61.2750000000000        -4.584446355616628E-085
   61.4650000000000        -4.436106133458788E-084
   61.6550000000000        -1.007877563874140E-083
   61.8450000000000        -1.731056581088652E-083
   62.0350000000000        -2.569829187601160E-083
   62.2250000000000        -3.432881049798298E-083
   62.4150000000000        -4.171324193068480E-083
   62.6050000000000        -4.575332587212200E-083
   62.7950000000000        -4.381188059573203E-083
   62.9850000000000        -3.293058968573265E-083
   63.1750000000000        -1.023065040570182E-083
   63.3650000000000         2.648826870117062E-083
   63.5550000000000         7.797037788247758E-083
   63.7450000000000         1.426176558335220E-082
   63.9350000000000         2.156288906277006E-082
   64.1250000000000         2.883661267757059E-082
   64.3150000000000         3.482114208016757E-082
   64.5050000000000         3.792101619236174E-082
   64.6950000000000         3.637789524710625E-082
   64.8850000000000         2.856596697861335E-082
   65.0750000000000         1.341033049437160E-082
   65.2650000000000        -9.104555804808506E-083
   65.4550000000000        -3.741131580125401E-082
   65.6450000000000        -6.794497526452812E-082
   65.8350000000000        -9.500937654103694E-082
   66.0250000000000        -1.111319226445368E-081
   66.2150000000000        -1.081188728402758E-081
   66.4050000000000        -7.897850910383525E-082
   66.5950000000000        -2.076473236945479E-082
   66.7850000000000         6.180630132024951E-082
   66.9750000000000         1.524032259696012E-081
   67.1650000000000         2.195909308860533E-081
   67.3550000000000         2.150044003039063E-081
   67.5450000000000         7.473877185944334E-082
   67.7350000000000        -2.742856266174462E-081
   67.9250000000000        -9.013102964965402E-081
   68.1150000000000        -1.850935768771265E-080
   68.3050000000000        -3.114505103068864E-080
   68.4950000000000        -4.595442067219801E-080
   68.6850000000000        -6.072759328574970E-080
   68.8750000000000        -7.169868821154756E-080
   69.0650000000000        -7.338810214202633E-080
   69.2550000000000        -5.872411493748875E-080
   69.4450000000000        -1.957816428701480E-080
   69.6350000000000         5.216798003440582E-080
   69.8250000000000         1.629569258411047E-079
   70.0150000000000         3.153219472510630E-079
   70.2050000000000         5.052562533453781E-079
   70.3950000000000         7.195357716674927E-079
   70.5850000000000         9.335397812472351E-079
   70.7750000000000         1.110281992802049E-078
   70.9650000000000         1.201449266336419E-078
   71.1550000000000         1.151173832542112E-078
   71.3450000000000         9.029612143293344E-079
   71.5350000000000         4.095968832749638E-079
   71.7250000000000        -3.550643489010689E-079
   71.9150000000000        -1.384714460624200E-078
   72.1050000000000        -2.633214566121503E-078
   72.2950000000000        -4.015965782570601E-078
   72.4850000000000        -5.425295407302527E-078
   72.6750000000000        -6.764441624683698E-078
   72.8650000000000        -8.002147532147022E-078
   73.0550000000000        -9.244757918849918E-078
   73.2450000000000        -1.081460505504489E-077
   73.4350000000000        -1.331239982251025E-077
   73.6250000000000        -1.762813271720581E-077
   73.8150000000000        -2.485159695568392E-077
   74.0050000000000        -3.602348097672286E-077
   74.1950000000000        -5.166606125230140E-077
   74.3850000000000        -7.104539064211868E-077
   74.5750000000000        -9.115204127255685E-077
   74.7650000000000        -1.054523276256894E-076
   74.9550000000000        -1.025619882543088E-076
   75.1450000000000        -6.513054646795356E-077
   75.3350000000000         3.060970662746908E-077
   75.5250000000000         2.139990024736607E-076
   75.7150000000000         5.170228127292716E-076
   75.9050000000000         9.684309884605896E-076
   76.0950000000000         1.584087561664416E-075
   76.2850000000000         2.353012397561263E-075
   76.4750000000000         3.219163030533374E-075
   76.6650000000000         4.059982293364107E-075
   76.8550000000000         4.664153941484749E-075
   77.0450000000000         4.712853195153072E-075
   77.2350000000000         3.770944884145596E-075
   77.4250000000000         1.296827823430643E-075
   77.6150000000000        -3.318458492805790E-075
   77.8050000000000        -1.067125748711523E-074
   77.9950000000000        -2.121356009938755E-074
   78.1850000000000        -3.506197563872624E-074
   78.3750000000000        -5.174684127883270E-074
   78.5650000000000        -6.991234790210125E-074
   78.7550000000000        -8.699500621348429E-074
   78.9450000000000        -9.892910198859377E-074
   79.1350000000000        -9.995287088320918E-074
   79.3250000000000        -8.261546777805134E-074
   79.5150000000000        -3.810821950444745E-074
   79.7050000000000         4.294196132003636E-074
   79.8950000000000         1.690817194175584E-073
   80.0850000000000         3.459366851154352E-073
   80.2750000000000         5.733723574069650E-073
   80.4650000000000         8.419806113024961E-073
   80.6550000000000         1.129124661599175E-072
   80.8450000000000         1.394989959323195E-072
   81.0350000000000         1.579346410228745E-072
   81.2250000000000         1.600007327074115E-072
   81.4150000000000         1.354235970353833E-072
   81.6050000000000         7.245471433373752E-073
   81.7950000000000        -4.095928163876739E-073
   81.9850000000000        -2.152835822880232E-072
   82.1750000000000        -4.566953163464950E-072
   82.3650000000000        -7.635835166174747E-072
   82.5550000000000        -1.122394347395525E-071
   82.7450000000000        -1.503156270584892E-071
   82.9350000000000        -1.855255014626777E-071
   83.1250000000000        -2.104294580727529E-071
   83.3150000000000        -2.151150545876155E-071
   83.5050000000000        -1.874553242327205E-071
   83.6950000000000        -1.138673188532642E-071
   83.8850000000000         1.928523003626057E-072
   84.0750000000000         2.235295112106492E-071
   84.2650000000000         5.053072714026496E-071
   84.4550000000000         8.622318243734234E-071
   84.6450000000000         1.278771655113268E-070
   84.8350000000000         1.721743313834372E-070
   85.0250000000000         2.136221376053181E-070
   85.2150000000000         2.442716482975139E-070
   85.4050000000000         2.536705057195033E-070
   85.5950000000000         2.291775032041222E-070
   85.7850000000000         1.567727712019650E-070
   85.9750000000000         2.248840746065516E-071
   86.1650000000000        -1.854482639250203E-070
   86.3550000000000        -4.737290757457831E-070
   86.5450000000000        -8.404044337975354E-070
   86.7350000000000        -1.270848880513873E-069
   86.9250000000000        -1.733621637683566E-069
   87.1150000000000        -2.176783795281302E-069
   87.3050000000000        -2.525435071565956E-069
   87.4950000000000        -2.681417123314610E-069
   87.6850000000000        -2.526262376978655E-069
   87.8750000000000        -1.928504106944940E-069
   88.0650000000000        -7.563560378829497E-070
   88.2550000000000         1.103532194121621E-069
   88.4450000000000         3.721078807080536E-069
   88.6350000000000         7.092179774222882E-069
   88.8250000000000         1.110426030774693E-068
   89.0150000000000         1.550103869344736E-068
   89.2050000000000         1.985107765582371E-068
   89.3950000000000         2.352623672876250E-068
   89.5850000000000         2.569751268161591E-068
   89.7750000000000         2.535670230414701E-068
   89.9650000000000         2.137252742902837E-068
   90.1550000000000         1.258897729296132E-068
   90.3450000000000        -2.028700350514356E-069
   90.5350000000000        -2.319899181703692E-068
   90.7250000000000        -5.108472413011333E-068
   90.9150000000000        -8.502186429262919E-068
   91.1050000000000        -1.232387521000627E-067
   91.2950000000000        -1.625988234799981E-067
   91.4850000000000        -1.984109090478681E-067
   91.6750000000000        -2.243610774019766E-067
   91.8650000000000        -2.326269785903421E-067
   92.0550000000000        -2.142376394368195E-067
   92.2450000000000        -1.597363793839573E-067
   92.4350000000000        -6.018967826006754E-068
   92.6250000000000         9.144153056052866E-068
   92.8150000000000         2.985908376523092E-067
   93.0050000000000         5.591104761610575E-067
   93.1950000000000         8.631692822062917E-067
   93.3850000000000         1.191235370370749E-066
   93.5750000000000         1.512429296747239E-066
   93.7650000000000         1.783603004449522E-066
   93.9550000000000         1.949553448368084E-066
   94.1450000000000         1.944804847393853E-066
   94.3350000000000         1.697376026751235E-066
   94.5250000000000         1.134875097279816E-066
   94.7150000000000         1.931199568181334E-067
   94.9050000000000        -1.172739660419855E-066
   95.0950000000000        -2.974928403825167E-066
   95.2850000000000        -5.178293596190323E-066
   95.4750000000000        -7.685256930914393E-066
   95.6650000000000        -1.032211450247337E-065
   95.8550000000000        -1.282880821171590E-065
   96.0450000000000        -1.485470832458145E-065
   96.2350000000000        -1.596323309135762E-065
   96.4250000000000        -1.564820712912833E-065
   96.6150000000000        -1.336464039322810E-065
   96.8050000000000        -8.576010153724799E-066
   96.9950000000000        -8.190763753518429E-067
   97.1850000000000         1.021429470558581E-065
   97.3750000000000         2.458089923661895E-065
   97.5650000000000         4.198071932685332E-065
   97.7550000000000         6.165031890149663E-065
   97.9450000000000         8.226640765578020E-065
   98.1350000000000         1.018740198355205E-064
   98.3250000000000         1.178565398836397E-064
   98.5150000000000         1.269668049787219E-064
   98.7050000000000         1.254392315266134E-064
   98.8950000000000         1.092018058171853E-064
   99.0850000000000         7.420329114926215E-065
   99.2750000000000         1.686461213157831E-065
   99.4650000000000        -6.534634337904674E-065
   99.6550000000000        -1.732305634252277E-064
   99.8450000000000        -3.050953154549744E-064
   100.035000000000        -4.559640921265764E-064
   100.225000000000        -6.168324844978294E-064
   100.415000000000        -7.740667320931600E-064
   100.605000000000        -9.090639901198436E-064
   100.795000000000        -9.983118585563617E-064
   100.985000000000        -1.013996045608451E-063
   101.175000000000        -9.253051967401108E-064
   101.365000000000        -7.005664859671035E-064
   101.555000000000        -3.103099704125024E-064
   101.745000000000         2.687003332140478E-064
   101.935000000000         1.048518605401187E-063
   102.125000000000         2.024320186487632E-063
   102.315000000000         3.168269607317368E-063
   102.505000000000         4.423439647148120E-063
   102.695000000000         5.698455586725181E-063
   102.885000000000         6.863729695833779E-063
   103.075000000000         7.750324627816464E-063
   103.265000000000         8.152614540776561E-063
   103.455000000000         7.835967156895833E-063
   103.645000000000         6.550611493300208E-063
   103.835000000000         4.052644950382609E-063
   104.025000000000         1.327310754839969E-064
   104.215000000000        -5.347587242636303E-063
   104.405000000000        -1.241290583204997E-062
   104.595000000000        -2.092637252018051E-062
   104.785000000000        -3.054089570778464E-062
   104.975000000000        -4.065403974743325E-062
   105.165000000000        -5.037303805707153E-062
   105.355000000000        -5.849778567608073E-062
   105.545000000000        -6.353078769975047E-062
   105.735000000000        -6.372358442614480E-062
   105.925000000000        -5.716885811707673E-062
   106.115000000000        -4.194594424913088E-062
   106.305000000000        -1.632453033496854E-062
   106.495000000000         2.097330970727532E-062
   106.685000000000         7.045906204258690E-062
   106.875000000000         1.315262842769011E-061
   107.065000000000         2.020860909978180E-061
   107.255000000000         2.782248844870016E-061
   107.445000000000         3.539306572727218E-061
   107.635000000000         4.209442550235233E-061
   107.825000000000         4.687995301636276E-061
   108.015000000000         4.851195241749465E-061
   108.205000000000         4.562326901660432E-061
   108.395000000000         3.681616851893378E-061
   108.585000000000         2.080156067142272E-061
   108.775000000000        -3.421660689162407E-062
   108.965000000000        -3.635190479034249E-061
   109.155000000000        -7.774518938271809E-061
   109.345000000000        -1.263674132169236E-060
   109.535000000000        -1.797626066086717E-060
   109.725000000000        -2.340681298919473E-060
   109.915000000000        -2.839138304136685E-060
   110.105000000000        -3.224462914294298E-060