  -1.42500000000000         0.000000000000000E+000
  -1.23500000000000         0.000000000000000E+000
  -1.04500000000000         0.000000000000000E+000
 -0.855000000000000         0.000000000000000E+000
 -0.665000000000000         0.000000000000000E+000
 -0.475000000000000         0.000000000000000E+000
 -0.285000000000000         0.000000000000000E+000
 -9.499999999999975E-002    0.000000000000000E+000
  9.500000000000020E-002    0.000000000000000E+000
  0.285000000000000         0.000000000000000E+000
  0.475000000000000         0.000000000000000E+000
  0.665000000000000         0.000000000000000E+000
  0.855000000000000         0.000000000000000E+000
   1.04500000000000         0.000000000000000E+000
   1.23500000000000         0.000000000000000E+000
   1.42500000000000         0.000000000000000E+000
   1.61500000000000         0.000000000000000E+000
   1.80500000000000         0.000000000000000E+000
   1.99500000000000         0.000000000000000E+000
   2.18500000000000         0.000000000000000E+000
   2.37500000000000         0.000000000000000E+000
   2.56500000000000         0.000000000000000E+000
   2.75500000000000         0.000000000000000E+000
   2.94500000000000         0.000000000000000E+000
   3.13500000000000         0.000000000000000E+000
   3.32500000000000         0.000000000000000E+000
   3.51500000000000         0.000000000000000E+000
   3.70500000000000         0.000000000000000E+000
   3.89500000000000         0.000000000000000E+000
   4.08500000000000         0.000000000000000E+000
   4.27500000000000         0.000000000000000E+000
   4.46500000000000         0.000000000000000E+000
   4.65500000000000         0.000000000000000E+000
   4.84500000000000         0.000000000000000E+000
   5.03500000000000         0.000000000000000E+000
   5.22500000000000         0.000000000000000E+000
   5.41500000000000         0.000000000000000E+000
   5.60500000000000         0.000000000000000E+000
   5.79500000000000         0.000000000000000E+000
   5.98500000000000         0.000000000000000E+000
   6.17500000000000         0.000000000000000E+000
   6.36500000000000         1.227475982205249E-177
   6.55500000000000        -4.507913496025000E-171
   6.74500000000000        -1.276394382873779E-166
   6.93500000000000        -6.056463246281026E-165
   7.12500000000000        -2.064938203893292E-163
   7.31500000000000        -6.012149406931606E-162
   7.50500000000000        -1.285075281939537E-160
   7.69500000000000        -1.756583075894674E-159
   7.88500000000000        -9.013589055186207E-159
   8.07500000000000         2.309197719402979E-157
   8.26500000000000         7.858609391126676E-156
   8.45500000000000         1.439279387245880E-154
   8.64500000000000         1.989833422963805E-153
   8.83500000000000         2.278066415460136E-152
   9.02500000000000         2.255322956922177E-151
   9.21500000000000         1.981020096289516E-150
   9.40500000000000         1.570835734820191E-149
   9.59500000000000         1.138776315466403E-148
   9.78500000000000         7.621773224214630E-148
   9.97500000000000         4.746538897286398E-147
   10.1650000000000         2.768123250290331E-146
   10.3550000000000         1.519874446054311E-145
   10.5450000000000         7.892496117258489E-145
   10.7350000000000         3.891260153173414E-144
   10.9250000000000         1.827618989075065E-143
   11.1150000000000         8.200770304288118E-143
   11.3050000000000         3.524398791932161E-142
   11.4950000000000         1.453859619990531E-141
   11.6850000000000         5.767533871404991E-141
   11.8750000000000         2.203967510019726E-140
   12.0650000000000         8.124407028033689E-140
   12.2550000000000         2.892613537428978E-139
   12.4450000000000         9.957830174753784E-139
   12.6350000000000         3.317426063497757E-138
   12.8250000000000         1.070297357415977E-137
   13.0150000000000         3.345660109372933E-137
   13.2050000000000         1.013481587078175E-136
   13.3950000000000         2.974507375528371E-136
   13.5850000000000         8.451418648324699E-136
   13.7750000000000         2.320624078971361E-135
   13.9650000000000         6.137819556496135E-135
   14.1550000000000         1.554324684821994E-134
   14.3450000000000         3.726273879317896E-134
   14.5350000000000         8.265339553219395E-134
   14.7250000000000         1.606713454160529E-133
   14.9150000000000         2.283219569628741E-133
   15.1050000000000        -3.350771766800757E-134
   15.2950000000000        -2.087360461531908E-132
   15.4850000000000        -1.162283948091983E-131
   15.6750000000000        -4.891916858921644E-131
   15.8650000000000        -1.821943706293381E-130
   16.0550000000000        -6.310600342262720E-130
   16.2450000000000        -2.076881199568560E-129
   16.4350000000000        -6.564462485979376E-129
   16.6250000000000        -2.004005565658226E-128
   16.8150000000000        -5.927066108831158E-128
   17.0050000000000        -1.701010672642396E-127
   17.1950000000000        -4.740187521788975E-127
   17.3850000000000        -1.282748725435027E-126
   17.5750000000000        -3.369665429852554E-126
   17.7650000000000        -8.586118373701852E-126
   17.9550000000000        -2.119559441933592E-125
   18.1450000000000        -5.060128593331650E-125
   18.3350000000000        -1.165264493084642E-124
   18.5250000000000        -2.578557334414816E-124
   18.7150000000000        -5.450916531381810E-124
   18.9050000000000        -1.090301103741469E-123
   19.0950000000000        -2.028662203081720E-123
   19.2850000000000        -3.391224084347845E-123
   19.4750000000000        -4.652590599834940E-123
   19.6650000000000        -3.422564595151421E-123
   19.8550000000000         7.934332383562930E-123
   20.0450000000000         5.037880395063427E-122
   20.2350000000000         1.763600149326134E-121
   20.4250000000000         5.085477328609446E-121
   20.6150000000000         1.318533669635487E-120
   20.8050000000000         3.179496988209565E-120
   20.9950000000000         7.248900087619515E-120
   21.1850000000000         1.576727317482243E-119
   21.3750000000000         3.289353412027452E-119
   21.5650000000000         6.602426658872647E-119
   21.7550000000000         1.277385216897091E-118
   21.9450000000000         2.384292496850559E-118
   22.1350000000000         4.294794670134938E-118
   22.3250000000000         7.465075914943770E-118
   22.5150000000000         1.251898559101788E-117
   22.7050000000000         2.026147788810844E-117
   22.8950000000000         3.169999323149356E-117
   23.0850000000000         4.817168361078557E-117
   23.2750000000000         7.186300975506599E-117
   23.4650000000000         1.073890911110991E-116
   23.6550000000000         1.657467163848196E-116
   23.8450000000000         2.728087279772646E-116
   24.0350000000000         4.850620934938066E-116
   24.2250000000000         9.137283859343688E-116
   24.4150000000000         1.750059223305499E-115
   24.6050000000000         3.258666286769280E-115
   24.7950000000000         5.639482341858263E-115
   24.9850000000000         8.507855963063722E-115
   25.1750000000000         9.424771804088983E-115
   25.3650000000000         2.848334701025501E-116
   25.5550000000000        -4.078764697445910E-114
   25.7450000000000        -1.664111494669632E-113
   25.9350000000000        -4.935143475391014E-113
   26.1250000000000        -1.266413532612240E-112
   26.3150000000000        -2.969744407227029E-112
   26.5050000000000        -6.521127403020237E-112
   26.6950000000000        -1.358358427637962E-111
   26.8850000000000        -2.704413985578372E-111
   27.0750000000000        -5.169828418302759E-111
   27.2650000000000        -9.514221862701633E-111
   27.4550000000000        -1.687759898612313E-110
   27.6450000000000        -2.886149908367700E-110
   27.8350000000000        -4.752332894022201E-110
   28.0250000000000        -7.515508020902357E-110
   28.2150000000000        -1.136277317434527E-109
   28.4050000000000        -1.629667198951472E-109
   28.5950000000000        -2.187035000934950E-109
   28.7850000000000        -2.674824030820322E-109
   28.9750000000000        -2.805150387095655E-109
   29.1650000000000        -2.049932201802911E-109
   29.3550000000000         4.513389877041024E-110
   29.5450000000000         5.949985031752060E-109
   29.7350000000000         1.602612270330838E-108
   29.9250000000000         3.224565168866542E-108
   30.1150000000000         5.526928582628443E-108
   30.3050000000000         8.301255027002768E-108
   30.4950000000000         1.073194346349399E-107
   30.6850000000000         1.085394268798039E-107
   30.8750000000000         4.752017531830554E-108
   31.0650000000000        -1.449202819565915E-107
   31.2550000000000        -5.796247800158096E-107
   31.4450000000000        -1.417723800051101E-106
   31.6350000000000        -2.867430255432768E-106
   31.8250000000000        -5.152675341626288E-106
   32.0150000000000        -8.426409421614614E-106
   32.2050000000000        -1.258729187097585E-105
   32.3950000000000        -1.694275228759511E-105
   32.5850000000000        -1.964844953119259E-105
   32.7750000000000        -1.685305664088460E-105
   32.9650000000000        -1.504042732287020E-106
   33.1550000000000         3.815004114053242E-105
   33.3450000000000         1.201561823791766E-104
   33.5350000000000         2.700430371432429E-104
   33.7250000000000         5.205950586978894E-104
   33.9150000000000         9.084903533341453E-104
   34.1050000000000         1.465115572241060E-103
   34.2950000000000         2.197738272894679E-103
   34.4850000000000         3.056127611284269E-103
   34.6750000000000         3.879116708083382E-103
   34.8650000000000         4.316288116925199E-103
   35.0550000000000         3.723188406271132E-103
   35.2450000000000         1.036027077195574E-103
   35.4350000000000        -5.354000693040931E-103
   35.6250000000000        -1.768318202936604E-102
   35.8150000000000        -3.877584083822371E-102
   36.0050000000000        -7.175631339851304E-102
   36.1950000000000        -1.193266524939216E-101
   36.3850000000000        -1.823615382264681E-101
   36.5750000000000        -2.575214322587823E-101
   36.7650000000000        -3.335762587796889E-101
   36.9550000000000        -3.862116484776487E-101
   37.1450000000000        -3.713259232944379E-101
   37.3350000000000        -2.173082823863402E-101
   37.5250000000000         1.823760977686294E-101
   37.7150000000000         9.736705735295925E-101
   37.9050000000000         2.339014086438274E-100
   38.0950000000000         4.480166288319059E-100
   38.2850000000000         7.577097054145030E-100
   38.4750000000000         1.171044118412637E-099
   38.6650000000000         1.673295773022399E-099
   38.8550000000000         2.207545170270762E-099
   39.0450000000000         2.647671164506925E-099
   39.2350000000000         2.763797348077604E-099
   39.4250000000000         2.182380505183330E-099
   39.6150000000000         3.467258945096068E-100
   39.8050000000000        -3.510815387036391E-099
   39.9950000000000        -1.036604616415699E-098
   40.1850000000000        -2.134068660815252E-098
   40.3750000000000        -3.754017821205922E-098
   40.5650000000000        -5.973888382315149E-098
   40.7550000000000        -8.785016025442138E-098
   40.9450000000000        -1.201156810413161E-097
   41.1350000000000        -1.519590283133168E-097
   41.3250000000000        -1.744828085287377E-097
   41.5150000000000        -1.726593152804910E-097
   41.7050000000000        -1.233876991665578E-097
   41.8950000000000         6.217346199707763E-099
   42.0850000000000         2.596639132084885E-097
   42.2750000000000         6.900374376633795E-097
   42.4650000000000         1.355605132761473E-096
   42.6550000000000         2.310095693368209E-096
   42.8450000000000         3.585195170923901E-096
   43.0350000000000         5.162478218576437E-096
   43.2250000000000         6.932058506690621E-096
   43.4150000000000         8.636021623915953E-096
   43.6050000000000         9.796645027178975E-096
   43.7950000000000         9.633073270004778E-096
   43.9850000000000         6.976141326772806E-096
   44.1750000000000         2.000541057451905E-097
   44.3650000000000        -1.279790237971414E-095
   44.5550000000000        -3.452248668186479E-095
   44.7450000000000        -6.764465035009092E-095
   44.9350000000000        -1.145195468107576E-094
   45.1250000000000        -1.763571969708395E-094
   45.3150000000000        -2.519384309767524E-094
   45.5050000000000        -3.357821831575717E-094
   45.6950000000000        -4.157166880947306E-094
   45.8850000000000        -4.699034898330452E-094
   46.0750000000000        -4.635288263346309E-094
   46.2650000000000        -3.456314580373489E-094
   46.4550000000000        -4.689491280712722E-095
   46.6450000000000         5.202996674127256E-094
   46.8350000000000         1.457701455321630E-093
   47.0250000000000         2.870430672296741E-093
   47.2150000000000         4.846602100533914E-093
   47.4050000000000         7.423943497255440E-093
   47.5950000000000         1.054010170096680E-092
   47.7850000000000         1.396416985857959E-092
   47.9750000000000         1.720897792316102E-092
   48.1650000000000         1.942734232392708E-092
   48.3550000000000         1.930127158808480E-092
   48.5450000000000         1.494152079975095E-092
   48.7350000000000         3.826149071448587E-093
   48.9250000000000        -1.717922464577072E-092
   49.1150000000000        -5.166062592089524E-092
   49.3050000000000        -1.032788496313130E-091
   49.4950000000000        -1.750864756158910E-091
   49.6850000000000        -2.684407740702088E-091
   49.8750000000000        -3.814192108561176E-091
   50.0650000000000        -5.066698713741230E-091
   50.2550000000000        -6.286858721154010E-091
   50.4450000000000        -7.205926261383005E-091
   50.6350000000000        -7.406923443045204E-091
   50.8250000000000        -6.292332120897502E-091
   51.0150000000000        -3.061697025801135E-091
   51.2050000000000         3.289432245974312E-091
   51.3950000000000         1.393336585449713E-090
   51.5850000000000         3.011629407237885E-090
   51.7750000000000         5.298120621996074E-090
   51.9650000000000         8.327894756946246E-090
   52.1550000000000         1.209376120280610E-089
   52.3450000000000         1.644637801523801E-089
   52.5350000000000         2.101592637208073E-089
   52.7250000000000         2.511571076638644E-089
   52.9150000000000         2.763142755906106E-089
   53.1050000000000         2.690497255402824E-089
   53.2950000000000         2.062895113365983E-089
   53.4850000000000         5.777861170199043E-090
   53.6750000000000        -2.138555590508201E-089
   53.8650000000000        -6.517512660927321E-089
   54.0550000000000        -1.301462562278566E-088
   54.2450000000000        -2.204720037706291E-088
   54.4350000000000        -3.389243361135628E-088
   54.6250000000000        -4.853431603395535E-088
   54.8150000000000        -6.544753523377460E-088
   55.0050000000000        -8.330854463014410E-088
   55.1950000000000        -9.962911934432514E-088
   55.3850000000000        -1.103177448080658E-087
   55.5750000000000        -1.091912257457394E-087
   55.7650000000000        -8.748557961607140E-088
   55.9550000000000        -3.345453535583757E-088
   56.1450000000000         6.780130025059758E-088
   56.3350000000000         2.340591805301632E-087
   56.5250000000000         4.849473043705685E-087
   56.7150000000000         8.397565780800976E-087
   56.9050000000000         1.313573711436065E-086
   57.0950000000000         1.911127752089825E-086
   57.2850000000000         2.617703944263796E-086
   57.4750000000000         3.386547179945476E-086
   57.6650000000000         4.122429314398902E-086
   57.8550000000000         4.661591252569250E-086
   58.0450000000000         4.749213243305614E-086
   58.2350000000000         4.017044730007402E-086
   58.4250000000000         1.965951781090120E-086
   58.6150000000000        -2.039027928871088E-086
   58.8050000000000        -8.750056324216644E-086
   58.9950000000000        -1.897936518828371E-085
   59.1850000000000        -3.348501036783640E-085
   59.3750000000000        -5.277834074183448E-085
   59.5650000000000        -7.683204971288258E-085
   59.7550000000000        -1.046723045334530E-084
   59.9450000000000        -1.338501630623740E-084
   60.1350000000000        -1.598090841186586E-084
   60.3250000000000        -1.751994979054022E-084
   60.5150000000000        -1.692400032637617E-084
   60.7050000000000        -1.272878629250978E-084
   60.8950000000000        -3.085601615440663E-085
   61.0850000000000         1.416078907280476E-084
   61.2750000000000         4.127968350913292E-084
   61.4650000000000         8.030537877042061E-084
   61.6550000000000         1.324918451456042E-083
   61.8450000000000         1.975434088775198E-083
   62.0350000000000         2.726190589230165E-083
   62.2250000000000         3.511502081373874E-083
   62.4150000000000         4.215729274550259E-083
   62.6050000000000         4.661552182533579E-083
   62.7950000000000         4.601928660593464E-083
   62.9850000000000         3.719429633015842E-083
   63.1750000000000         1.637442240541719E-083
   63.3650000000000        -2.051879190247749E-083
   63.5550000000000        -7.738377599139047E-083
   63.7450000000000        -1.572025901361972E-082
   63.9350000000000        -2.610575680026133E-082
   64.1250000000000        -3.869416017267571E-082
   64.3150000000000        -5.284609662190054E-082
   64.5050000000000        -6.735971175928202E-082
   64.6950000000000        -8.037598435158239E-082
   64.8850000000000        -8.934110649665555E-082
   65.0750000000000        -9.105428042369902E-082
   65.2650000000000        -8.182265977554342E-082
   65.4550000000000        -5.772880825555000E-082
   65.6450000000000        -1.498820142942123E-082
   65.8350000000000         4.966467025603117E-082
   66.0250000000000         1.386690987018620E-081
   66.2150000000000         2.535611530950862E-081
   66.4050000000000         3.953035494424890E-081
   66.5950000000000         5.651823549722974E-081
   66.7850000000000         7.663412393704650E-081
   66.9750000000000         1.005828213470306E-080
   67.1650000000000         1.296696584627304E-080
   67.3550000000000         1.659214291385868E-080
   67.5450000000000         2.119606596745207E-080
   67.7350000000000         2.704048653563581E-080
   67.9250000000000         3.424971062083410E-080
   68.1150000000000         4.256370780178849E-080
   68.3050000000000         5.095066237323351E-080
   68.4950000000000         5.706138700293978E-080
   68.6850000000000         5.653676745861284E-080
   68.8750000000000         4.222908266434895E-080
   69.0650000000000         3.472709220829398E-081
   69.2550000000000        -7.435953625475208E-080
   69.4450000000000        -2.096556622845089E-079
   69.6350000000000        -4.232290359171247E-079
   69.8250000000000        -7.352413237352210E-079
   70.0150000000000        -1.159713871980677E-078
   70.2050000000000        -1.696001885908321E-078
   70.3950000000000        -2.316826254514922E-078
   70.5850000000000        -2.952933068925976E-078
   70.7750000000000        -3.475258890398973E-078
   70.9650000000000        -3.676681073894727E-078
   71.1550000000000        -3.257044758005774E-078
   71.3450000000000        -1.817124048189977E-078
   71.5350000000000         1.130676741607352E-078
   71.7250000000000         6.125070282900457E-078
   71.9150000000000         1.368092118215982E-077
   72.1050000000000         2.416543641054060E-077
   72.2950000000000         3.761670207721195E-077
   72.4850000000000         5.350143054360655E-077
   72.6750000000000         7.041887611902601E-077
   72.8650000000000         8.577327749149498E-077
   73.0550000000000         9.545829630567411E-077
   73.2450000000000         9.362329025358028E-077
   73.4350000000000         7.262112419100411E-077
   73.6250000000000         2.326704326003424E-077
   73.8150000000000        -6.443783056756609E-077
   74.0050000000000        -1.999547517895810E-076
   74.1950000000000        -3.900782168713552E-076
   74.3850000000000        -6.359317822700715E-076
   74.5750000000000        -9.290927212322159E-076
   74.7650000000000        -1.247012704224546E-075
   74.9550000000000        -1.548134053181103E-075
   75.1450000000000        -1.767401586526801E-075
   75.3350000000000        -1.813224733374531E-075
   75.5250000000000        -1.567321602631034E-075
   75.7150000000000        -8.892216260512568E-076
   75.9050000000000         3.725639579706710E-076
   76.0950000000000         2.360680605113051E-075
   76.2850000000000         5.178688368585239E-075
   76.4750000000000         8.849571735250018E-075
   76.6650000000000         1.326358006947442E-074
   76.8550000000000         1.811815095217837E-074
   77.0450000000000         2.285560556288408E-074
   77.2350000000000         2.660793020647844E-074
   77.4250000000000         2.816203734196701E-074
   77.6150000000000         2.596299425367055E-074
   77.8050000000000         1.817613764948966E-074
   77.9950000000000         2.830821304845976E-075
   78.1850000000000        -2.193240192835603E-074
   78.3750000000000        -5.749442316868967E-074
   78.5650000000000        -1.042638543674070E-073
   78.7550000000000        -1.610679843278245E-073
   78.9450000000000        -2.244641197209235E-073
   79.1350000000000        -2.880390175293911E-073
   79.3250000000000        -3.418021439254343E-073
   79.5150000000000        -3.718195949130665E-073
   79.7050000000000        -3.602747249354763E-073
   79.8950000000000        -2.861716639272959E-073
   80.0850000000000        -1.269095708943718E-073
   80.2750000000000         1.390625375489933E-073
   80.4650000000000         5.283604070364363E-073
   80.6550000000000         1.047512065888781E-072
   80.8450000000000         1.686677906814233E-072
   81.0350000000000         2.412626050973544E-072
   81.2250000000000         3.161651451793561E-072
   81.4150000000000         3.833479861902735E-072
   81.6050000000000         4.287566938671785E-072
   81.7950000000000         4.343540893728084E-072
   81.9850000000000         3.787778727841965E-072
   82.1750000000000         2.388169178238691E-072
   82.3650000000000        -8.109411546044486E-074
   82.5550000000000        -3.803425974770964E-072
   82.7450000000000        -8.872246244449741E-072
   82.9350000000000        -1.523319888124041E-071
   83.1250000000000        -2.261963448186726E-071
   83.3150000000000        -3.048738355460155E-071
   83.5050000000000        -3.795777099073242E-071
   83.6950000000000        -4.378081962006452E-071
   83.8850000000000        -4.633327239291105E-071
   84.0750000000000        -4.366791029279756E-071
   84.2650000000000        -3.363102696854280E-071
   84.4550000000000        -1.406314027951523E-071
   84.6450000000000         1.690663038746050E-071
   84.8350000000000         6.047022968271276E-071
   85.0250000000000         1.166641103275027E-070
   85.2150000000000         1.838321549280182E-070
   85.4050000000000         2.580732130112284E-070
   85.5950000000000         3.327401835443127E-070
   85.7850000000000         3.980798246137259E-070
   85.9750000000000         4.411224459674774E-070
   86.1650000000000         4.459447827569422E-070
   86.3550000000000         3.944334249926433E-070
   86.5450000000000         2.676655486142385E-070
   86.7350000000000         4.799375440090917E-071
   86.9250000000000        -2.781314085425692E-070
   87.1150000000000        -7.166467900527378E-070
   87.3050000000000        -1.261820853234808E-069
   87.4950000000000        -1.891936827745933E-069
   87.6850000000000        -2.565141016536027E-069
   87.8750000000000        -3.216034587915343E-069
   88.0650000000000        -3.753729346696917E-069
   88.2550000000000        -4.062199563514243E-069
   88.4450000000000        -4.003818378769578E-069
   88.6350000000000        -3.426941502605697E-069
   88.8250000000000        -2.178265496946608E-069
   89.0150000000000        -1.204180461899989E-070
   89.2050000000000         2.845185334267181E-069
   89.3950000000000         6.750768192252091E-069
   89.5850000000000         1.153119381227015E-068
   89.7750000000000         1.699170146423106E-068
   89.9650000000000         2.277749741855201E-068
   90.1550000000000         2.834929370116156E-068
   90.3450000000000         3.296978411837587E-068
   90.5350000000000         3.570675000977364E-068
   90.7250000000000         3.545886200034863E-068
   90.9150000000000         3.101014027392564E-068
   91.1050000000000         2.111830171575279E-068
   91.2950000000000         4.640711235611970E-069
   91.4850000000000        -1.930076041124306E-068
   91.6750000000000        -5.111808192597817E-068
   91.8650000000000        -9.052517082133503E-068
   92.0550000000000        -1.362877921968830E-067
   92.2450000000000        -1.859736350078124E-067
   92.4350000000000        -2.357279893507389E-067
   92.6250000000000        -2.801077958287859E-067
   92.8150000000000        -3.120139751015682E-067
   93.0050000000000        -3.227681594801907E-067
   93.1950000000000        -3.023843084567233E-067
   93.3850000000000        -2.400870262331506E-067
   93.5750000000000        -1.251252926726015E-067
   93.7650000000000         5.207888327500957E-068
   93.9550000000000         2.984245096819798E-067
   94.1450000000000         6.162729407255946E-067
   94.3350000000000         1.001279645045516E-066
   94.5250000000000         1.440011126950086E-066
   94.7150000000000         1.907506819278399E-066
   94.9050000000000         2.365023652883092E-066
   95.0950000000000         2.758288946906122E-066
   95.2850000000000         3.016679863054335E-066
   95.4750000000000         3.053836155281690E-066
   95.6650000000000         2.770284560575414E-066
   95.8550000000000         2.058690789703558E-066
   96.0450000000000         8.123372548596341E-067
   96.2350000000000        -1.062673623012179E-066
   96.4250000000000        -3.631196511336794E-066
   96.6150000000000        -6.908846424299610E-066
   96.8050000000000        -1.083836946203450E-065
   96.9950000000000        -1.526378575284183E-065
   97.1850000000000        -1.990433640046408E-065
   97.3750000000000        -2.433122934321200E-065
   97.5650000000000        -2.795121950346866E-065
   97.7550000000000        -3.000207996245787E-065
   97.9450000000000        -2.956588398186998E-065
   98.1350000000000        -2.560653938460579E-065
   98.3250000000000        -1.703797404469129E-065
   98.5150000000000        -2.828512275589986E-066
   98.7050000000000         1.785495355429099E-065
   98.8950000000000         4.546264241861615E-065
   99.0850000000000         7.984180313000430E-065
   99.2750000000000         1.199915565067671E-064
   99.4650000000000         1.638110899484843E-064
   99.6550000000000         2.078684876928536E-064
   99.8450000000000         2.472268213549402E-064
   100.035000000000         2.753730010176654E-064
   100.225000000000         2.843019974415119E-064
   100.415000000000         2.648127622498054E-064
   100.605000000000         2.070706053501496E-064
   100.795000000000         1.014819148368222E-064
   100.985000000000        -6.009103329117755E-065
   101.175000000000        -2.827764528149101E-064
   101.365000000000        -5.668427524368295E-064
   101.555000000000        -9.056463026403084E-064
   101.745000000000        -1.283534748309579E-063
   101.935000000000        -1.673932820442389E-063
   102.125000000000        -2.037908175930869E-063
   102.315000000000        -2.323578511374634E-063
   102.505000000000        -2.466767781292433E-063
   102.695000000000        -2.393336558075030E-063
   102.885000000000        -2.023585888310453E-063
   103.075000000000        -1.279051769199960E-063
   103.265000000000        -9.185634487590148E-065
   103.455000000000         1.583446750551321E-063
   103.645000000000         3.755904957749157E-063
   103.835000000000         6.382834581399616E-063
   104.025000000000         9.354326503615149E-063
   104.215000000000         1.247926963425254E-062
   104.405000000000         1.547503824855237E-062
   104.595000000000         1.796338805128203E-062
   104.785000000000         1.947536690805085E-062
   104.975000000000         1.946808995355674E-062
   105.165000000000         1.735597119175923E-062
   105.355000000000         1.255836436521107E-062
   105.545000000000         4.564478352889913E-063
   105.735000000000        -6.985143552379944E-063
   105.925000000000        -2.220335583781727E-062
   106.115000000000        -4.085263008241623E-062
   106.305000000000        -6.224085356456483E-062
   106.495000000000        -8.512773708404687E-062
   106.685000000000        -1.076556457520287E-061
   106.875000000000        -1.273209440603699E-061
   107.065000000000        -1.410033003232988E-061
   107.255000000000        -1.450703660934416E-061
   107.445000000000        -1.355733670636143E-061
   107.635000000000        -1.085449873977737E-061
   107.825000000000        -6.040417214489778E-062
   108.015000000000         1.153704988353332E-062
   108.205000000000         1.084818348673695E-061
   108.395000000000         2.295035277419140E-061
   108.585000000000         3.708951571755969E-061
   108.775000000000         5.255777393241649E-061
   108.965000000000         6.826471783984118E-061
   109.155000000000         8.271520159961469E-061
   109.345000000000         9.402015240804372E-061
   109.535000000000         9.995032762532751E-061
   109.725000000000         9.804190055792071E-061
   109.915000000000         8.576051612835974E-061
   110.105000000000         6.072685528503990E-061