  -1.42500000000000         0.000000000000000E+000
  -1.23500000000000         0.000000000000000E+000
  -1.04500000000000         0.000000000000000E+000
 -0.855000000000000         0.000000000000000E+000
 -0.665000000000000         0.000000000000000E+000
 -0.475000000000000         0.000000000000000E+000
 -0.285000000000000         0.000000000000000E+000
 -9.499999999999975E-002    0.000000000000000E+000
  9.500000000000020E-002    0.000000000000000E+000
  0.285000000000000         0.000000000000000E+000
  0.475000000000000         0.000000000000000E+000
  0.665000000000000         0.000000000000000E+000
  0.855000000000000         0.000000000000000E+000
   1.04500000000000         0.000000000000000E+000
   1.23500000000000         0.000000000000000E+000
   1.42500000000000         0.000000000000000E+000
   1.61500000000000         0.000000000000000E+000
   1.80500000000000         0.000000000000000E+000
   1.99500000000000         0.000000000000000E+000
   2.18500000000000         0.000000000000000E+000
   2.37500000000000         0.000000000000000E+000
   2.56500000000000         0.000000000000000E+000
   2.75500000000000         0.000000000000000E+000
   2.94500000000000         0.000000000000000E+000
   3.13500000000000         0.000000000000000E+000
   3.32500000000000         0.000000000000000E+000
   3.51500000000000         0.000000000000000E+000
   3.70500000000000         0.000000000000000E+000
   3.89500000000000         0.000000000000000E+000
   4.08500000000000         0.000000000000000E+000
   4.27500000000000         0.000000000000000E+000
   4.46500000000000         0.000000000000000E+000
   4.65500000000000         0.000000000000000E+000
   4.84500000000000         0.000000000000000E+000
   5.03500000000000         0.000000000000000E+000
   5.22500000000000         0.000000000000000E+000
   5.41500000000000         0.000000000000000E+000
   5.60500000000000         0.000000000000000E+000
   5.79500000000000         0.000000000000000E+000
   5.98500000000000         0.000000000000000E+000
   6.17500000000000         2.343718048189942E-172
   6.36500000000000        -3.066408336880771E-165
   6.55500000000000         4.725478689342317E-162
   6.74500000000000         2.338266944293391E-160
   6.93500000000000         8.003824635519584E-159
   7.12500000000000         2.278474033181697E-157
   7.31500000000000         4.904485235383361E-156
   7.50500000000000         7.536997493957294E-155
   7.69500000000000         6.983743473115821E-154
   7.88500000000000         6.114067324052399E-147
   8.07500000000000        -3.095924605269051E-145
   8.26500000000000        -4.791593828383515E-143
   8.45500000000000        -2.253401501774583E-141
   8.64500000000000        -6.390412165599640E-140
   8.83500000000000        -1.297481332731996E-138
   9.02500000000000        -2.047305161326174E-137
   9.21500000000000        -2.636563142248682E-136
   9.40500000000000        -2.863415967813506E-135
   9.59500000000000        -2.684583120234770E-134
   9.78500000000000        -2.210872370840442E-133
   9.97500000000000        -1.620581925594335E-132
   10.1650000000000        -1.067942661589874E-131
   10.3550000000000        -6.373991447935355E-131
   10.5450000000000        -3.462954870839917E-130
   10.7350000000000        -1.716987994002676E-129
   10.9250000000000        -7.765654439153577E-129
   11.1150000000000        -3.188388481758148E-128
   11.3050000000000        -1.173387176804583E-127
   11.4950000000000        -3.756445520764591E-127
   11.6850000000000        -9.641704208644890E-127
   11.8750000000000        -1.373451102808945E-126
   12.0650000000000         4.248297281388412E-126
   12.2550000000000         4.973140293133863E-125
   12.4450000000000         2.898708039248103E-124
   12.6350000000000         1.338962267292306E-123
   12.8250000000000         5.379520265901871E-123
   13.0150000000000         1.942527790461660E-122
   13.2050000000000         6.378931397504934E-122
   13.3950000000000         1.903657685492622E-121
   13.5850000000000         5.088677470815273E-121
   13.7750000000000         1.168047156416997E-120
   13.9650000000000         2.006175609999565E-120
   14.1550000000000         7.177245701620271E-121
   14.3450000000000        -1.449107363239275E-119
   14.5350000000000        -9.054424047212096E-119
   14.7250000000000        -3.911945647401012E-118
   14.9150000000000        -1.439823411862845E-117
   15.1050000000000        -4.800849121836452E-117
   15.2950000000000        -1.489966816788323E-116
   15.4850000000000        -4.367300114302108E-116
   15.6750000000000        -1.219802369965026E-115
   15.8650000000000        -3.265712586282729E-115
   16.0550000000000        -8.415989836807550E-115
   16.2450000000000        -2.094273089094163E-114
   16.4350000000000        -5.044476410624679E-114
   16.6250000000000        -1.178394985474415E-113
   16.8150000000000        -2.673833258383759E-113
   17.0050000000000        -5.900604241993384E-113
   17.1950000000000        -1.267713540820154E-112
   17.3850000000000        -2.653726237911064E-112
   17.5750000000000        -5.415721754193398E-112
   17.7650000000000        -1.077903357956058E-111
   17.9550000000000        -2.092554084809796E-111
   18.1450000000000        -3.961588050543899E-111
   18.3350000000000        -7.310043162982819E-111
   18.5250000000000        -1.313345260379357E-110
   18.7150000000000        -2.293507773126125E-110
   18.9050000000000        -3.882384527427142E-110
   19.0950000000000        -6.342981121148299E-110
   19.2850000000000        -9.931518164028099E-110
   19.4750000000000        -1.472153646889443E-109
   19.6650000000000        -2.018114907108483E-109
   19.8550000000000        -2.426095768051965E-109
   20.0450000000000        -2.155588016632449E-109
   20.2350000000000         2.214981322132944E-111
   20.4250000000000         6.674934158369192E-109
   20.6150000000000         2.287217928122581E-108
   20.8050000000000         5.820221184717414E-108
   20.9950000000000         1.301807267669425E-107
   21.1850000000000         2.698642998856502E-107
   21.3750000000000         5.308635137290131E-107
   21.5650000000000         1.003440218475356E-106
   21.7550000000000         1.835944376630906E-106
   21.9450000000000         3.266391448534206E-106
   22.1350000000000         5.667235188522976E-106
   22.3250000000000         9.605776970218475E-106
   22.5150000000000         1.592001514325217E-105
   22.7050000000000         2.580286069089628E-105
   22.8950000000000         4.087241356116457E-105
   23.0850000000000         6.317493987475677E-105
   23.2750000000000         9.500700952073300E-105
   23.4650000000000         1.383306163623752E-104
   23.6550000000000         1.933496953360886E-104
   23.8450000000000         2.554496156496373E-104
   24.0350000000000         3.090577926080417E-104
   24.2250000000000         3.158734040786269E-104
   24.4150000000000         1.930289602146885E-104
   24.6050000000000        -2.264044065761033E-104
   24.7950000000000        -1.263336446571930E-103
   24.9850000000000        -3.514141655360787E-103
   25.1750000000000        -8.058126406623391E-103
   25.3650000000000        -1.680604760897747E-102
   25.5550000000000        -3.307616740900665E-102
   25.7450000000000        -6.253098133208321E-102
   25.9350000000000        -1.146751618032163E-101
   26.1250000000000        -2.052095891978831E-101
   26.3150000000000        -3.596633705890592E-101
   26.5050000000000        -6.188886291073401E-101
   26.6950000000000        -1.047198077212667E-100
   26.8850000000000        -1.744135998481711E-100
   27.0750000000000        -2.861058162651316E-100
   27.2650000000000        -4.623774392921635E-100
   27.4550000000000        -7.362336071033521E-100
   27.6450000000000        -1.154839606655732E-099
   27.8350000000000        -1.783907067976397E-099
   28.0250000000000        -2.712336774709138E-099
   28.2150000000000        -4.056228690257135E-099
   28.4050000000000        -5.960569924320026E-099
   28.5950000000000        -8.595691392166769E-099
   28.7850000000000        -1.214381343191504E-098
   28.9750000000000        -1.676855111348751E-098
   29.1650000000000        -2.255702476249732E-098
   29.3550000000000        -2.942020420311905E-098
   29.5450000000000        -3.693244269502588E-098
   29.7350000000000        -4.408621601533184E-098
   29.9250000000000        -4.893363894538595E-098
   30.1150000000000        -4.808367973581174E-098
   30.3050000000000        -3.602512189419236E-098
   30.4950000000000        -4.253079268114824E-099
   30.6850000000000         5.980490344161630E-098
   30.8750000000000         1.740335262965994E-097
   31.0650000000000         3.629606067782043E-097
   31.2550000000000         6.590064634931552E-097
   31.4450000000000         1.103365486328729E-096
   31.6350000000000         1.746072054349430E-096
   31.8250000000000         2.644592047465473E-096
   32.0150000000000         3.860016254200740E-096
   32.2050000000000         5.449611725716513E-096
   32.3950000000000         7.454115630776389E-096
   32.5850000000000         9.877745735153811E-096
   32.7750000000000         1.265847721804575E-095
   32.9650000000000         1.562574161613007E-095
   33.1550000000000         1.844241488059779E-095
   33.3450000000000         2.052789867460082E-095
   33.5350000000000         2.095945223641790E-095
   33.7250000000000         1.834999194683498E-095
   33.9150000000000         1.070277198847303E-095
   34.1050000000000        -4.752695717857560E-096
   34.2950000000000        -3.173259731049708E-095
   34.4850000000000        -7.505757987317375E-095
   34.6750000000000        -1.407621187779331E-094
   34.8650000000000        -2.360967895521691E-094
   35.0550000000000        -3.693365695315762E-094
   35.2450000000000        -5.492706128083310E-094
   35.4350000000000        -7.842030091534858E-094
   35.6250000000000        -1.080242043341923E-093
   35.8150000000000        -1.438602638440592E-093
   36.0050000000000        -1.851602553499023E-093
   36.1950000000000        -2.297012792352288E-093
   36.3850000000000        -2.730448826859729E-093
   36.5750000000000        -3.075591716423211E-093
   36.7650000000000        -3.212244906739061E-093
   36.9550000000000        -2.962607871947034E-093
   37.1450000000000        -2.076729908996941E-093
   37.3350000000000        -2.189430481139610E-094
   37.5250000000000         3.041799513262168E-093
   37.7150000000000         8.233313211989006E-093
   37.9050000000000         1.596718972071739E-092
   38.0950000000000         2.690331230670770E-092
   38.2850000000000         4.168161719193769E-092
   38.4750000000000         6.080870819158355E-092
   38.6650000000000         8.448508309296273E-092
   38.8550000000000         1.123575406467407E-091
   39.0450000000000         1.431813416206256E-091
   39.2350000000000         1.743786556294698E-091
   39.4250000000000         2.014848228631493E-091
   39.6150000000000         2.174835508971543E-091
   39.8050000000000         2.120485570427221E-091
   39.9950000000000         1.707354105339071E-091
   40.1850000000000         7.420748604515418E-092
   40.3750000000000        -1.023609149736799E-091
   40.5650000000000        -3.894773047221297E-091
   40.7550000000000        -8.227783360040176E-091
   40.9450000000000        -1.441242010371166E-090
   41.1350000000000        -2.283493585561134E-090
   41.3250000000000        -3.381329788729189E-090
   41.5150000000000        -4.749384590275290E-090
   41.7050000000000        -6.369709670861629E-090
   41.8950000000000        -8.170023151154024E-090
   42.0850000000000        -9.994608765416292E-090
   42.2750000000000        -1.156748420971729E-089
   42.4650000000000        -1.244870038146101E-089
   42.6550000000000        -1.198670421098058E-089
   42.8450000000000        -9.272807665442319E-090
   43.0350000000000        -3.108096949163308E-090
   43.2250000000000         8.001422346292235E-090
   43.4150000000000         2.579929619557606E-089
   43.6050000000000         5.215400474320607E-089
   43.7950000000000         8.882102940145069E-089
   43.9850000000000         1.370548037251813E-088
   44.1750000000000         1.970367768010964E-088
   44.3650000000000         2.670977808307749E-088
   44.5550000000000         3.427375407499835E-088
   44.7450000000000         4.154851324262340E-088
   44.9350000000000         4.717041469159568E-088
   45.1250000000000         4.915256875944681E-088
   45.3150000000000         4.481877349969629E-088
   45.5050000000000         3.081618479800483E-088
   45.6950000000000         3.254119719602098E-089
   45.8850000000000        -4.197776380192234E-088
   46.0750000000000        -1.086597062417164E-087
   46.2650000000000        -1.994203959281374E-087
   46.4550000000000        -3.146313860371864E-087
   46.6450000000000        -4.510522627599218E-087
   46.8350000000000        -6.003309402419351E-087
   47.0250000000000        -7.475544717046864E-087
   47.2150000000000        -8.701526214106709E-087
   47.4050000000000        -9.375664201561481E-087
   47.5950000000000        -9.121855174182271E-087
   47.7850000000000        -7.521000789874170E-087
   47.9750000000000        -4.161647697153535E-087
   48.1650000000000         1.283128378495120E-087
   48.3550000000000         8.953164127172612E-087
   48.5450000000000         1.867945457677497E-086
   48.7350000000000         2.985794245966869E-086
   48.9250000000000         4.134391624424363E-086
   49.1150000000000         5.140356187448585E-086
   49.3050000000000         5.777010184631568E-086
   49.4950000000000         5.785951511072004E-086
   49.6850000000000         4.920127700930372E-086
   49.8750000000000         3.012818084969695E-086
   50.0650000000000         7.408554254279896E-088
   50.2550000000000        -3.588797941159235E-086
   50.4450000000000        -7.238090884755149E-086
   50.6350000000000        -9.580942098000388E-086
   50.8250000000000        -8.687424259807763E-086
   51.0150000000000        -1.999097375569823E-086
   51.2050000000000         1.351100654182114E-085
   51.3950000000000         4.095683687127372E-085
   51.5850000000000         8.286472941707513E-085
   51.7750000000000         1.401459337292112E-084
   51.9650000000000         2.106868191768231E-084
   52.1550000000000         2.875821295250513E-084
   52.3450000000000         3.571205761903838E-084
   52.5350000000000         3.967474183853446E-084
   52.7250000000000         3.733738452074408E-084
   52.9150000000000         2.425706046612852E-084
   53.1050000000000        -5.064133472219532E-085
   53.2950000000000        -5.685307386520795E-084
   53.4850000000000        -1.373943370262772E-083
   53.6750000000000        -2.519132623747632E-083
   53.8650000000000        -4.029248056272668E-083
   54.0550000000000        -5.879906376748872E-083
   54.2450000000000        -7.968822472386428E-083
   54.4350000000000        -1.008231879767165E-082
   54.6250000000000        -1.185869227150064E-082
   54.8150000000000        -1.275191426161584E-082
   55.0050000000000        -1.200096819401924E-082
   55.1950000000000        -8.612271112499676E-083
   55.3850000000000        -1.365049893089841E-083
   55.5750000000000         1.114778250967329E-082
   55.7650000000000         3.042780864769587E-082
   55.9550000000000         5.790981436446429E-082
   56.1450000000000         9.470927057309690E-082
   56.3350000000000         1.412536564161434E-081
   56.5250000000000         1.967699802163951E-081
   56.7150000000000         2.585995459809688E-081
   56.9050000000000         3.213129069540241E-081
   57.0950000000000         3.756061958955886E-081
   57.2850000000000         4.069797046854234E-081
   57.4750000000000         3.942382937185432E-081
   57.6650000000000         3.079214638455819E-081
   57.8550000000000         1.088821489721516E-081
   58.0450000000000        -2.525970441311378E-081
   58.2350000000000        -8.365180614011839E-081
   58.4250000000000        -1.710752241335901E-080
   58.6150000000000        -2.945124662095532E-080
   58.8050000000000        -4.600155131995239E-080
   58.9950000000000        -6.708139900819619E-080
   59.1850000000000        -9.243896636310902E-080
   59.3750000000000        -1.208243088597205E-079
   59.5650000000000        -1.494129155327460E-079
   59.7550000000000        -1.730684417409357E-079
   59.9450000000000        -1.834658044425749E-079
   60.1350000000000        -1.681444529451853E-079
   60.3250000000000        -1.096354197688348E-079
   60.5150000000000         1.509113219433149E-080
   60.7050000000000         2.344778076134269E-079
   60.8950000000000         5.809928177528438E-079
   61.0850000000000         1.087796499798418E-078
   61.2750000000000         1.782603927186276E-078
   61.4650000000000         2.677801305287246E-078
   61.6550000000000         3.755924242557521E-078
   61.8450000000000         4.949885237081794E-078
   62.0350000000000         6.117961904638473E-078
   62.2250000000000         7.014656853585820E-078
   62.4150000000000         7.260241815183822E-078
   62.6050000000000         6.314197245828089E-078
   62.7950000000000         3.460872050045261E-078
   62.9850000000000        -2.180602468277071E-078
   63.1750000000000        -1.160613513067042E-077
   63.3650000000000        -2.581660974525338E-077
   63.5550000000000        -4.562605835687311E-077
   63.7450000000000        -7.136676051498958E-077
   63.9350000000000        -1.024752332687840E-076
   64.1250000000000        -1.369553639701684E-076
   64.3150000000000        -1.707367264681959E-076
   64.5050000000000        -1.969797271205246E-076
   64.6950000000000        -2.054261992395303E-076
   64.8850000000000        -1.819543387837392E-076
   65.0750000000000        -1.085676712038593E-076
   65.2650000000000         3.587774200614419E-077
   65.4550000000000         2.738376217018753E-076
   65.6450000000000         6.257264178333857E-076
   65.8350000000000         1.104652988404621E-075
   66.0250000000000         1.708953293967291E-075
   66.2150000000000         2.412456721913208E-075
   66.4050000000000         3.152817546206408E-075
   66.5950000000000         3.818839358893719E-075
   66.7850000000000         4.238536944113031E-075
   66.9750000000000         4.170705597979777E-075
   67.1650000000000         3.303942945475106E-075
   67.3550000000000         1.268265539077072E-075
   67.5450000000000        -2.334533165656614E-075
   67.7350000000000        -7.875144164489484E-075
   67.9250000000000        -1.560943164103886E-074
   68.1150000000000        -2.555527189717708E-074
   68.3050000000000        -3.733323729626015E-074
   68.4950000000000        -4.997743009049035E-074
   68.6850000000000        -6.173247575502574E-074
   68.8750000000000        -6.986565292160425E-074
   69.0650000000000        -7.053903256289249E-074
   69.2550000000000        -5.880423085936932E-074
   69.4450000000000        -2.879982588026577E-074
   69.6350000000000         2.575475792865285E-074
   69.8250000000000         1.106698947520579E-073
   70.0150000000000         2.299116217733292E-073
   70.2050000000000         3.836855624839797E-073
   70.3950000000000         5.659845371769351E-073
   70.5850000000000         7.617066162979582E-073
   70.7750000000000         9.435953801870648E-073
   70.9650000000000         1.069444118839135E-072
   71.1550000000000         1.080234368013319E-072
   71.3450000000000         9.001295910368585E-073
   71.5350000000000         4.394859425722352E-073
   71.7250000000000        -3.977742223998356E-073
   71.9150000000000        -1.701021066264615E-072
   72.1050000000000        -3.532753539904217E-072
   72.2950000000000        -5.900618475507530E-072
   72.4850000000000        -8.721693039796273E-072
   72.6750000000000        -1.178049867053407E-071
   72.8650000000000        -1.468418116341172E-071
   73.0550000000000        -1.682084455312463E-071
   73.2450000000000        -1.733007878201462E-071
   73.4350000000000        -1.509805163158323E-071
   73.6250000000000        -8.792748828600412E-072
   73.8150000000000         3.042559838641992E-072
   74.0050000000000         2.181860380768354E-071
   74.1950000000000         4.863476411407415E-071
   74.3850000000000         8.390716059279040E-071
   74.5750000000000         1.268887616927860E-070
   74.7650000000000         1.750968696323313E-070
   74.9550000000000         2.236871543992637E-070
   75.1450000000000         2.648444212181223E-070
   75.3350000000000         2.872975615131302E-070
   75.5250000000000         2.761072165950382E-070
   75.7150000000000         2.129152020080674E-070
   75.9050000000000         7.687803571735902E-071
   76.0950000000000        -1.534761522504452E-070
   76.2850000000000        -4.972389879454786E-070
   76.4750000000000        -9.667853280364769E-070
   76.6650000000000        -1.562040201960756E-069
   76.8550000000000        -2.263456615436433E-069
   77.0450000000000        -3.024065759062305E-069
   77.2350000000000        -3.761296239067578E-069
   77.4250000000000        -4.349666990154981E-069
   77.6150000000000        -4.615916491612385E-069
   77.8050000000000        -4.338596372282649E-069
   77.9950000000000        -3.254565163511323E-069
   78.1850000000000        -1.075077812761041E-069
   78.3750000000000         2.485835248757685E-069
   78.5650000000000         7.668401940467754E-069
   78.7550000000000         1.460818988545203E-068
   78.9450000000000         2.326147165679609E-068
   79.1350000000000         3.331748402385150E-068
   79.3250000000000         4.410337763728692E-068
   79.5150000000000         5.449159517738830E-068
   79.7050000000000         6.282391806690003E-068
   79.8950000000000         6.687111387407087E-068
   80.0850000000000         6.385142110136013E-068
   80.2750000000000         5.053422525318715E-068
   80.4650000000000         2.345619698135531E-068
   80.6550000000000        -2.072530084807425E-068
   80.8450000000000        -8.472383170776583E-068
   81.0350000000000        -1.699557490664773E-067
   81.2250000000000        -2.757271832107493E-067
   81.4150000000000        -3.983177931832716E-067
   81.6050000000000        -5.300363214031693E-067
   81.7950000000000        -6.583613702641662E-067
   81.9850000000000        -7.653210632614058E-067
   82.1750000000000        -8.273025226786060E-067
   82.3650000000000        -8.155097598294579E-067
   82.5550000000000        -6.972983466626037E-067
   82.7450000000000        -4.385976374997686E-067
   82.9350000000000        -7.576512381537757E-069
   83.1250000000000         6.203922410431803E-067
   83.3150000000000         1.456566820581732E-066
   83.5050000000000         2.491774876802964E-066
   83.6950000000000         3.689013354476217E-066
   83.8850000000000         4.976551948234977E-066
   84.0750000000000         6.242669509467475E-066
   84.2650000000000         7.333400778652278E-066
   84.4550000000000         8.054824785698749E-066
   84.6450000000000         8.181420158324770E-066
   84.8350000000000         7.471774561890026E-066
   85.0250000000000         5.692396465220528E-066
   85.2150000000000         2.649483380716072E-066
   85.4050000000000        -1.772771246438505E-066
   85.5950000000000        -7.570373126549984E-066
   85.7850000000000        -1.457914108918063E-065
   85.9750000000000        -2.244259993792387E-065
   86.1650000000000        -3.059673219401924E-065
   86.3550000000000        -3.828126779727415E-065
   86.5450000000000        -4.458717422603511E-065
   86.7350000000000        -4.854831749616248E-065
   86.9250000000000        -4.928133134570497E-065
   87.1150000000000        -4.617107584461715E-065
   87.3050000000000        -3.908941254285668E-065
   87.4950000000000        -2.862245485596433E-065
   87.6850000000000        -1.626658527823097E-065
   87.8750000000000        -4.537689267023920E-066
   88.0650000000000         3.076573847956205E-066
   88.2550000000000         2.401913650874777E-066
   88.4450000000000        -1.081777069524800E-065
   88.6350000000000        -3.992516381461335E-065
   88.8250000000000        -8.592337583039717E-065
   89.0150000000000        -1.456323126992161E-064
   89.2050000000000        -2.095228079174675E-064
   89.3950000000000        -2.594349836796557E-064
   89.5850000000000        -2.665258820346603E-064
   89.7750000000000        -1.899497408067575E-064
   89.9650000000000         2.306229767438289E-065
   90.1550000000000         4.349109786062959E-064
   90.3450000000000         1.112219623383584E-063
   90.5350000000000         2.116398199774625E-063
   90.7250000000000         3.489412589487827E-063
   90.9150000000000         5.234327310992715E-063
   91.1050000000000         7.290774787499107E-063
   91.2950000000000         9.506379633596018E-063
   91.4850000000000         1.160635311694446E-062
   91.6750000000000         1.316495647331834E-062
   91.8650000000000         1.358424690865084E-062
   92.0550000000000         1.208733504204425E-062
   92.2450000000000         7.735084464426485E-063
   92.4350000000000        -5.235303901289131E-064
   92.6250000000000        -1.375671850284815E-062
   92.8150000000000        -3.290094569224514E-062
   93.0050000000000        -5.855055388397043E-062
   93.1950000000000        -9.068369689309252E-062
   93.3850000000000        -1.283302103454205E-061
   93.5750000000000        -1.691980434758790E-061
   93.7650000000000        -2.092890957877713E-061
   93.9550000000000        -2.425523472351435E-061
   94.1450000000000        -2.606411078397575E-061
   94.3350000000000        -2.528603975285111E-061
   94.5250000000000        -2.064074377762318E-061
   94.7150000000000        -1.070196573080626E-061
   94.9050000000000         5.985369325695974E-062
   95.0950000000000         3.072531202697377E-061
   95.2850000000000         6.442131756213990E-061
   95.4750000000000         1.072556579781617E-060
   95.6650000000000         1.583052011206952E-060
   95.8550000000000         2.151127585768171E-060
   96.0450000000000         2.732481158616566E-060
   96.2350000000000         3.259103815581457E-060
   96.4250000000000         3.636423964477070E-060
   96.6150000000000         3.742469259640411E-060
   96.8050000000000         3.430107587031148E-060
   96.9950000000000         2.533534011613892E-060
   97.1850000000000         8.801781189384468E-061
   97.3750000000000        -1.690929887571958E-060
   97.5650000000000        -5.303623583806705E-060
   97.7550000000000        -1.001174921216545E-059
   97.9450000000000        -1.575969152360999E-059
   98.1350000000000        -2.233810037346544E-059
   98.3250000000000        -2.933805777609017E-059
   98.5150000000000        -3.610857890812428E-059
   98.7050000000000        -4.172413607176234E-059
   98.8950000000000        -4.497067647413654E-059
   99.0850000000000        -4.436015125541673E-059
   99.2750000000000        -3.818459482695499E-059
   99.4650000000000        -2.462093791969417E-059
   99.6550000000000        -1.896605012442590E-060
   99.8450000000000         3.147688285429187E-059
   100.035000000000         7.640000406377107E-059
   100.225000000000         1.328160770743993E-058
   100.415000000000         1.992918220944440E-058
   100.605000000000         2.725750796419543E-058
   100.795000000000         3.471717271337434E-058
   100.985000000000         4.149997872605376E-058
   101.175000000000         4.651947265267386E-058
   101.365000000000         4.841541489426254E-058
   101.555000000000         4.559200764208524E-058
   101.745000000000         3.629998219284894E-058
   101.935000000000         1.877187429877762E-058
   102.125000000000        -8.582363914621806E-059
   102.315000000000        -4.691619643312427E-058
   102.505000000000        -9.662652138810609E-058
   102.695000000000        -1.569837713360488E-057
   102.885000000000        -2.257333239812927E-057
   103.075000000000        -2.987016814136193E-057
   103.265000000000        -3.694543935048378E-057
   103.455000000000        -4.290664950820927E-057
   103.645000000000        -4.660788355566685E-057
   103.835000000000        -4.667231743503452E-057
   104.025000000000        -4.155029259804715E-057
   104.215000000000        -2.962122446143414E-057
   104.405000000000        -9.346083432512252E-058
   104.595000000000         2.052573764103754E-057
   104.785000000000         6.069591627849242E-057
   104.975000000000         1.110101511294110E-056
   105.165000000000         1.701198251975327E-056
   105.355000000000         2.351374161748903E-056
   105.545000000000         3.013216522741772E-056
   105.735000000000         3.618398077615709E-056
   105.925000000000         4.076652557975772E-056
   106.115000000000         4.276769718149414E-056
   106.305000000000         4.090322789393950E-056
   106.495000000000         3.378826274451058E-056
   106.685000000000         2.004923129694639E-056
   106.875000000000        -1.520050738288991E-057
   107.065000000000        -3.175743349761718E-056
   107.255000000000        -7.089074330040398E-056
   107.445000000000        -1.182656152531304E-055
   107.635000000000        -1.720605990691295E-055
   107.825000000000        -2.290158025365546E-055
   108.015000000000        -2.842103421042567E-055
   108.205000000000        -3.309325654388359E-055
   108.395000000000        -3.606943130646724E-055
   108.585000000000        -3.634450387544466E-055
   108.775000000000        -3.280418245993236E-055
   108.965000000000        -2.430254755089895E-055
   109.155000000000        -9.773921837600047E-056
   109.345000000000         1.161964990167874E-055
   109.535000000000         4.030731570403065E-055
   109.725000000000         7.610117969631022E-055
   109.915000000000         1.179728507313057E-054
   110.105000000000         1.638330349752871E-054