  -1.42500000000000         0.000000000000000E+000
  -1.23500000000000         0.000000000000000E+000
  -1.04500000000000         0.000000000000000E+000
 -0.855000000000000         0.000000000000000E+000
 -0.665000000000000         0.000000000000000E+000
 -0.475000000000000         0.000000000000000E+000
 -0.285000000000000         0.000000000000000E+000
 -9.499999999999975E-002    0.000000000000000E+000
  9.500000000000020E-002    0.000000000000000E+000
  0.285000000000000         0.000000000000000E+000
  0.475000000000000         0.000000000000000E+000
  0.665000000000000         0.000000000000000E+000
  0.855000000000000         0.000000000000000E+000
   1.04500000000000         0.000000000000000E+000
   1.23500000000000         0.000000000000000E+000
   1.42500000000000         0.000000000000000E+000
   1.61500000000000         0.000000000000000E+000
   1.80500000000000         0.000000000000000E+000
   1.99500000000000         0.000000000000000E+000
   2.18500000000000         0.000000000000000E+000
   2.37500000000000         0.000000000000000E+000
   2.56500000000000         0.000000000000000E+000
   2.75500000000000         0.000000000000000E+000
   2.94500000000000         0.000000000000000E+000
   3.13500000000000         0.000000000000000E+000
   3.32500000000000         0.000000000000000E+000
   3.51500000000000         0.000000000000000E+000
   3.70500000000000         0.000000000000000E+000
   3.89500000000000         0.000000000000000E+000
   4.08500000000000         0.000000000000000E+000
   4.27500000000000         0.000000000000000E+000
   4.46500000000000         0.000000000000000E+000
   4.65500000000000         0.000000000000000E+000
   4.84500000000000         0.000000000000000E+000
   5.03500000000000         0.000000000000000E+000
   5.22500000000000         0.000000000000000E+000
   5.41500000000000         0.000000000000000E+000
   5.60500000000000         0.000000000000000E+000
   5.79500000000000         0.000000000000000E+000
   5.98500000000000         0.000000000000000E+000
   6.17500000000000         2.245263369975514E-175
   6.36500000000000        -2.562050127434032E-165
   6.55500000000000         6.530951373873423E-162
   6.74500000000000         2.887356854895274E-160
   6.93500000000000         9.724961270749493E-159
   7.12500000000000         3.100972880912822E-157
   7.31500000000000         7.819044766605032E-156
   7.50500000000000         1.463496092434342E-154
   7.69500000000000         2.061484867256335E-153
   7.88500000000000         1.459823665278644E-146
   8.07500000000000         1.076724071555169E-144
   8.26500000000000         3.762141387150211E-143
   8.45500000000000         8.233671126369469E-142
   8.64500000000000         1.246773906807387E-140
   8.83500000000000         1.331857383305906E-139
   9.02500000000000         9.052954826750367E-139
   9.21500000000000         9.274245938251536E-139
   9.40500000000000        -7.698494860162432E-137
   9.59500000000000        -1.365203827940307E-135
   9.78500000000000        -1.560603024354898E-134
   9.97500000000000        -1.417009325879620E-133
   10.1650000000000        -1.092421483045204E-132
   10.3550000000000        -7.379955247443640E-132
   10.5450000000000        -4.447121254484363E-131
   10.7350000000000        -2.415795286303795E-130
   10.9250000000000        -1.189900638382067E-129
   11.1150000000000        -5.322632200964546E-129
   11.3050000000000        -2.155067891004051E-128
   11.4950000000000        -7.810609364980090E-128
   11.6850000000000        -2.465712877365331E-127
   11.8750000000000        -6.300494363894592E-127
   12.0650000000000        -9.598759815902482E-127
   12.2550000000000         1.956651854979984E-126
   12.4450000000000         2.604327019697020E-125
   12.6350000000000         1.499056903710529E-124
   12.8250000000000         6.695942158814253E-124
   13.0150000000000         2.571736060062098E-123
   13.2050000000000         8.779736189054313E-123
   13.3950000000000         2.686901948453591E-122
   13.5850000000000         7.304345747151492E-122
   13.7750000000000         1.700967132983676E-121
   13.9650000000000         3.011359123494181E-121
   14.1550000000000         1.718993026927984E-121
   14.3450000000000        -1.699843067810699E-120
   14.5350000000000        -1.096911698403152E-119
   14.7250000000000        -4.620940212880098E-119
   14.9150000000000        -1.621948650070607E-118
   15.1050000000000        -5.063518677973662E-118
   15.2950000000000        -1.442145003407873E-117
   15.4850000000000        -3.784444726532268E-117
   15.6750000000000        -9.155013690801509E-117
   15.8650000000000        -2.023241166158570E-116
   16.0550000000000        -3.981759885309620E-116
   16.2450000000000        -6.508742559802377E-116
   16.4350000000000        -6.663322941439346E-116
   16.6250000000000         7.465775990922449E-116
   16.8150000000000         7.374759197050003E-115
   17.0050000000000         2.981832111161008E-114
   17.1950000000000         9.529756494964735E-114
   17.3850000000000         2.691751599320417E-113
   17.5750000000000         6.996618279358014E-113
   17.7650000000000         1.705619616164584E-112
   17.9550000000000         3.938671178792249E-112
   18.1450000000000         8.660735760600647E-112
   18.3350000000000         1.817130521611784E-111
   18.5250000000000         3.635274978018625E-111
   18.7150000000000         6.907311470031100E-111
   18.9050000000000         1.235613763200221E-110
   19.0950000000000         2.043567338369166E-110
   19.2850000000000         3.000352826100210E-110
   19.4750000000000         3.477041175955261E-110
   19.6650000000000         1.476183528176361E-110
   19.8550000000000        -8.282915528392154E-110
   20.0450000000000        -3.844081834764201E-109
   20.2350000000000        -1.173223640308874E-108
   20.4250000000000        -3.053420405001498E-108
   20.6150000000000        -7.263351623802627E-108
   20.8050000000000        -1.625704354189269E-107
   20.9950000000000        -3.475478442615177E-107
   21.1850000000000        -7.159333726650058E-107
   21.3750000000000        -1.429040541948116E-106
   21.5650000000000        -2.774381089389487E-106
   21.7550000000000        -5.252674498248941E-106
   21.9450000000000        -9.716342688272628E-106
   22.1350000000000        -1.758388939220460E-105
   22.3250000000000        -3.116170351227946E-105
   22.5150000000000        -5.411039750156314E-105
   22.7050000000000        -9.209243555462636E-105
   22.8950000000000        -1.536231729091538E-104
   23.0850000000000        -2.511036420053095E-104
   23.2750000000000        -4.019153775682197E-104
   23.4650000000000        -6.292647571498803E-104
   23.6550000000000        -9.621139619191052E-104
   23.8450000000000        -1.432934170969460E-103
   24.0350000000000        -2.071030086013995E-103
   24.2250000000000        -2.887630095754855E-103
   24.4150000000000        -3.846575671934397E-103
   24.6050000000000        -4.810989898976821E-103
   24.7950000000000        -5.451447515134764E-103
   24.9850000000000        -5.094635552652196E-103
   25.1750000000000        -2.483176746123012E-103
   25.3650000000000         4.592532491638269E-103
   25.5550000000000         1.983990045853725E-102
   25.7450000000000         4.924492207637041E-102
   25.9350000000000         1.021477649400652E-101
   26.1250000000000         1.926599285818779E-101
   26.3150000000000         3.414289651506242E-101
   26.5050000000000         5.776672954665933E-101
   26.6950000000000         9.411927023914923E-101
   26.8850000000000         1.483935756697403E-100
   27.0750000000000         2.269894027145801E-100
   27.2650000000000         3.371777181957043E-100
   27.4550000000000         4.861496924907684E-100
   27.6450000000000         6.790105746687835E-100
   27.8350000000000         9.150675681082052E-100
   28.0250000000000         1.181485847249944E-099
   28.2150000000000         1.443048216109930E-099
   28.4050000000000         1.626366370233581E-099
   28.5950000000000         1.596495671169006E-099
   28.7850000000000         1.123582279217725E-099
   28.9750000000000        -1.629350112042329E-100
   29.1650000000000        -2.834703323275930E-099
   29.3550000000000        -7.740404294896130E-099
   29.5450000000000        -1.609580312641935E-098
   29.7350000000000        -2.958195249664922E-098
   29.9250000000000        -5.043819298831377E-098
   30.1150000000000        -8.152510362745545E-098
   30.3050000000000        -1.263156808064245E-097
   30.4950000000000        -1.887493991032634E-097
   30.6850000000000        -2.728522682277430E-097
   30.8750000000000        -3.819860080152196E-097
   31.0650000000000        -5.175417902436604E-097
   31.2550000000000        -6.768417443639943E-097
   31.4450000000000        -8.499614601396750E-097
   31.6350000000000        -1.015151578774033E-096
   31.8250000000000        -1.132536827666460E-096
   32.0150000000000        -1.135837898760338E-096
   32.2050000000000        -9.220403987057578E-097
   32.3950000000000        -3.392866985989594E-097
   32.5850000000000         8.261312039601031E-097
   32.7750000000000         2.861853828024391E-096
   32.9650000000000         6.137396953503383E-096
   33.1550000000000         1.110281124194313E-095
   33.3450000000000         1.827038498885341E-095
   33.5350000000000         2.816859737175046E-095
   33.7250000000000         4.125396741584270E-095
   33.9150000000000         5.776280016744038E-095
   34.1050000000000         7.748178908489550E-095
   34.2950000000000         9.941512105330672E-095
   34.4850000000000         1.213278559751125E-094
   34.6750000000000         1.391533274247383E-094
   34.8650000000000         1.462693259751557E-094
   35.0550000000000         1.326778373248284E-094
   35.2450000000000         8.417064700089750E-095
   35.4350000000000        -1.836713865418707E-095
   35.6250000000000        -1.992676791391287E-094
   35.8150000000000        -4.876330019713518E-094
   36.0050000000000        -9.156071390510607E-094
   36.1950000000000        -1.514677135124275E-093
   36.3850000000000        -2.309144747215267E-093
   36.5750000000000        -3.305776320137857E-093
   36.7650000000000        -4.478588319970723E-093
   36.9550000000000        -5.747834612562716E-093
   37.1450000000000        -6.952629826003491E-093
   37.3350000000000        -7.817400280203126E-093
   37.5250000000000        -7.913654865196272E-093
   37.7150000000000        -6.620584250452087E-093
   37.9050000000000        -3.090896895589544E-093
   38.0950000000000         3.767781232070526E-093
   38.2850000000000         1.528063008099673E-092
   38.4750000000000         3.294122209350334E-092
   38.6650000000000         5.826716538916682E-092
   38.8550000000000         9.254158824712256E-092
   39.0450000000000         1.364012389308981E-091
   39.2350000000000         1.892303048786656E-091
   39.4250000000000         2.483235038046215E-091
   39.6150000000000         3.077962930960069E-091
   39.8050000000000         3.572488811533429E-091
   39.9950000000000         3.802396332607035E-091
   40.1850000000000         3.526984027335444E-091
   40.3750000000000         2.415168939519573E-091
   40.5650000000000         3.695348286814856E-093
   40.7550000000000        -4.133969609431442E-091
   40.9450000000000        -1.069881577531846E-090
   41.1350000000000        -2.028362237886412E-090
   41.3250000000000        -3.344850803302523E-090
   41.5150000000000        -5.054285322765626E-090
   41.7050000000000        -7.149285789920787E-090
   41.8950000000000        -9.551011557850072E-090
   42.0850000000000        -1.207155722745102E-089
   42.2750000000000        -1.436839875952632E-089
   42.4650000000000        -1.589313958263333E-089
   42.6550000000000        -1.583936229184805E-089
   42.8450000000000        -1.309788161596343E-089
   43.0350000000000        -6.232150112451144E-090
   43.2250000000000         6.508127098834521E-090
   43.4150000000000         2.711130192745277E-089
   43.6050000000000         5.763649656094091E-089
   43.7950000000000         9.992077740678580E-089
   43.9850000000000         1.551252312989964E-088
   44.1750000000000         2.230877070180250E-088
   44.3650000000000         3.014609244443418E-088
   44.5550000000000         3.846363411782271E-088
   44.7450000000000         4.624899402089571E-088
   44.9350000000000         5.190390770567755E-088
   45.1250000000000         5.311719273252441E-088
   45.3150000000000         4.677033095816939E-088
   45.5050000000000         2.891200892008098E-088
   45.6950000000000        -5.150114637367770E-089
   45.8850000000000        -6.058051986672964E-088
   46.0750000000000        -1.425007262291357E-087
   46.2650000000000        -2.551551493152194E-087
   46.4550000000000        -4.006907954128250E-087
   46.6450000000000        -5.775037897308343E-087
   46.8350000000000        -7.781458950410019E-087
   47.0250000000000        -9.868502418615860E-087
   47.2150000000000        -1.176832697630788E-086
   47.4050000000000        -1.307657031323733E-086
   47.5950000000000        -1.323118110131336E-086
   47.7850000000000        -1.150291923103936E-086
   47.9750000000000        -7.006101622244460E-087
   48.1650000000000         1.259846381082604E-087
   48.3550000000000         1.432598342689356E-086
   48.5450000000000         3.311407866152419E-086
   48.7350000000000         5.823023305325343E-086
   48.9250000000000         8.968449435514326E-086
   49.1150000000000         1.265363948791278E-085
   49.3050000000000         1.664780745148375E-085
   49.4950000000000         2.053835251776509E-085
   49.6850000000000         2.368748450637191E-085
   49.8750000000000         2.519838635428630E-085
   50.0650000000000         2.390186772956299E-085
   50.2550000000000         1.837766601325534E-085
   50.4450000000000         7.027366231632639E-086
   50.6350000000000        -1.178234751408663E-085
   50.8250000000000        -3.948764891972510E-085
   51.0150000000000        -7.699165588032402E-085
   51.2050000000000        -1.242173718734385E-084
   51.3950000000000        -1.795557672714584E-084
   51.5850000000000        -2.392357770055014E-084
   51.7750000000000        -2.966711541804361E-084
   51.9650000000000        -3.418748855551132E-084
   52.1550000000000        -3.610739151717449E-084
   52.3450000000000        -3.367021413128722E-084
   52.5350000000000        -2.479926782844592E-084
   52.7250000000000        -7.242312741611869E-085
   52.9150000000000         2.117209608369617E-084
   53.1050000000000         6.214230650609951E-084
   53.2950000000000         1.163487090289920E-083
   53.4850000000000         1.827541487319198E-083
   53.6750000000000         2.577704304500949E-083
   53.8650000000000         3.343445737360999E-083
   54.0550000000000         4.010616783016145E-083
   54.2450000000000         4.414141176419907E-083
   54.4350000000000         4.334467871605784E-083
   54.6250000000000         3.500504339777503E-083
   54.8150000000000         1.602319335166042E-083
   55.0050000000000        -1.682693164154742E-083
   55.1950000000000        -6.646405168751365E-083
   55.3850000000000        -1.348591581375579E-082
   55.5750000000000        -2.221659259574822E-082
   55.7650000000000        -3.256191669688484E-082
   55.9550000000000        -4.382300531267885E-082
   56.1450000000000        -5.473515224367189E-082
   56.3350000000000        -6.332463129771019E-082
   56.5250000000000        -6.678634706250885E-082
   56.7150000000000        -6.141152927575038E-082
   56.9050000000000        -4.260415823930291E-082
   57.0950000000000        -5.034494707865623E-083
   57.2850000000000         5.701307808996191E-082
   57.4750000000000         1.490341882408886E-081
   57.6650000000000         2.753746749518171E-081
   57.8550000000000         4.379155890358650E-081
   58.0450000000000         6.343263553707328E-081
   58.2350000000000         8.558678324395072E-081
   58.4250000000000         1.084773493322041E-080
   58.6150000000000         1.291306437009797E-080
   58.8050000000000         1.430687606701233E-080
   58.9950000000000         1.440221562208785E-080
   59.1850000000000         1.237114839492208E-080
   59.3750000000000         7.176910192952370E-081
   59.5650000000000        -2.410444711451032E-081
   59.7550000000000        -1.776254226876987E-080
   59.9450000000000        -4.028996469374335E-080
   60.1350000000000        -7.127001368541776E-080
   60.3250000000000        -1.115843105198915E-079
   60.5150000000000        -1.613445096419384E-079
   60.7050000000000        -2.193856829658090E-079
   60.8950000000000        -2.826120605824755E-079
   61.0850000000000        -3.451907919830880E-079
   61.2750000000000        -3.976087802982212E-079
   61.4650000000000        -4.256385430250719E-079
   61.6550000000000        -4.093049771935174E-079
   61.8450000000000        -3.220094478359411E-079
   62.0350000000000        -1.300538377718676E-079
   62.2250000000000         2.070833884473637E-079
   62.4150000000000         7.352360051355256E-079
   62.6050000000000         1.502174756108945E-078
   62.7950000000000         2.551593241167163E-078
   62.9850000000000         3.913561065969540E-078
   63.1750000000000         5.590500007791215E-078
   63.3650000000000         7.537819033868918E-078
   63.5550000000000         9.638638705962116E-078
   63.7450000000000         1.167265221271695E-077
   63.9350000000000         1.328023605097432E-077
   64.1250000000000         1.392457451128807E-077
   64.3150000000000         1.285692364633019E-077
   64.5050000000000         9.093292169833114E-078
   64.6950000000000         1.414742878681462E-078
   64.8850000000000        -1.159196203139278E-077
   65.0750000000000        -3.143196781929751E-077
   65.2650000000000        -5.951272637909267E-077
   65.4550000000000        -9.683953725783676E-077
   65.6450000000000        -1.435700348967132E-076
   65.8350000000000        -1.984088823073397E-076
   66.0250000000000        -2.578402618436843E-076
   66.2150000000000        -3.152241459441903E-076
   66.4050000000000        -3.598258682280391E-076
   66.5950000000000        -3.759094823831346E-076
   66.7850000000000        -3.421042481671852E-076
   66.9750000000000        -2.313475578731138E-076
   67.1650000000000        -1.180901504061027E-077
   67.3550000000000         3.507053571803728E-076
   67.5450000000000         8.883059687935772E-076
   67.7350000000000         1.623966848313093E-075
   67.9250000000000         2.561412464336339E-075
   68.1150000000000         3.671758602490364E-075
   68.3050000000000         4.877209855150107E-075
   68.4950000000000         6.032878028979142E-075
   68.6850000000000         6.908859340295986E-075
   68.8750000000000         7.176096901962665E-075
   69.0650000000000         6.401202833093687E-075
   69.2550000000000         4.057177616859192E-075
   69.4450000000000        -4.414191602133187E-076
   69.6350000000000        -7.669231527449784E-075
   69.8250000000000        -1.807725568782680E-074
   70.0150000000000        -3.182875838764310E-074
   70.2050000000000        -4.858100814966055E-074
   70.3950000000000        -6.721815910001351E-074
   70.5850000000000        -8.555337557869894E-074
   70.7750000000000        -1.000359880992156E-073
   70.9650000000000        -1.055220220755043E-073
   71.1550000000000        -9.519275734479527E-074
   71.3450000000000        -6.073357734071598E-074
   71.5350000000000         7.090056159865511E-075
   71.7250000000000         1.173076064648798E-073
   71.9150000000000         2.769208628681606E-073
   72.1050000000000         4.882679366171767E-073
   72.2950000000000         7.455329769246531E-073
   72.4850000000000         1.030490791612831E-072
   72.6750000000000         1.307771877347473E-072
   72.8650000000000         1.520202092352336E-072
   73.0550000000000         1.585109372870752E-072
   73.2450000000000         1.392880415284400E-072
   73.4350000000000         8.094563869442743E-073
   73.6250000000000        -3.151832645100350E-073
   73.8150000000000        -2.130276961350867E-072
   74.0050000000000        -4.757041336070368E-072
   74.1950000000000        -8.249145375658143E-072
   74.3850000000000        -1.254013199366672E-071
   74.5750000000000        -1.737879449339591E-071
   74.7650000000000        -2.225618425269434E-071
   74.9550000000000        -2.633156973742182E-071
   75.1450000000000        -2.836924942915058E-071
   75.3350000000000        -2.670342988595276E-071
   75.5250000000000        -1.925396095501651E-071
   75.7150000000000        -3.620815688007573E-072
   75.9050000000000         2.271129525949230E-071
   76.0950000000000         6.202635126606047E-071
   76.2850000000000         1.158611120254267E-070
   76.4750000000000         1.843038517118619E-070
   76.6650000000000         2.651120663278924E-070
   76.8550000000000         3.526846132670907E-070
   77.0450000000000         4.369667407286702E-070
   77.2350000000000         5.024211631245303E-070
   77.4250000000000         5.272626673617709E-070
   77.6150000000000         4.832230334833586E-070
   77.8050000000000         3.361794175542162E-070
   77.9950000000000         4.803113028321962E-071
   78.1850000000000        -4.197686188089733E-070
   78.3750000000000        -1.100647138423242E-069
   78.5650000000000        -2.015032771134944E-069
   78.7550000000000        -3.160073829937030E-069
   78.9450000000000        -4.497174389347732E-069
   79.1350000000000        -5.937998907685124E-069
   79.3250000000000        -7.330160641172999E-069
   79.5150000000000        -8.444485425834912E-069
   79.7050000000000        -8.966492495269847E-069
   79.8950000000000        -8.495486912044235E-069
   80.0850000000000        -6.555308038052282E-069
   80.2750000000000        -2.621182271886549E-069
   80.4650000000000         3.832891465494065E-069
   80.6550000000000         1.326244153721940E-068
   80.8450000000000         2.595421228113833E-068
   81.0350000000000         4.190146515724812E-068
   81.2250000000000         6.065681323106874E-068
   81.4150000000000         8.117143009489650E-068
   81.6050000000000         1.016355140179201E-067
   81.7950000000000         1.193417404108346E-067
   81.9850000000000         1.306005399932947E-067
   82.1750000000000         1.307425449398574E-067
   82.3650000000000         1.142482961552946E-067
   82.5550000000000         7.504686949145293E-068
   82.7450000000000         7.021824481748973E-069
   82.9350000000000        -9.524688618222713E-068
   83.1250000000000        -2.354942232637431E-067
   83.3150000000000        -4.145507234308067E-067
   83.5050000000000        -6.289450743707002E-067
   83.6950000000000        -8.694261521061149E-067
   83.8850000000000        -1.119553180518126E-066
   84.0750000000000        -1.354555527114339E-066
   84.2650000000000        -1.540711754385106E-066
   84.4550000000000        -1.635532318926323E-066
   84.6450000000000        -1.589041432242763E-066
   84.8350000000000        -1.346429798430832E-066
   85.0250000000000        -8.522802931572043E-067
   85.2150000000000        -5.644437756091324E-068
   85.4050000000000         1.078536127526565E-066
   85.5950000000000         2.568806441305072E-066
   85.7850000000000         4.400002192686697E-066
   85.9750000000000         6.518405543770667E-066
   86.1650000000000         8.823659048656411E-066
   86.3550000000000         1.116444486530294E-065
   86.5450000000000         1.333859818847259E-065
   86.7350000000000         1.509897106724419E-065
   86.9250000000000         1.616592588506473E-065
   87.1150000000000         1.624656209002537E-065
   87.3050000000000         1.505964358106313E-065
   87.4950000000000         1.236372932505853E-065
   87.6850000000000         7.984323753716105E-066
   87.8750000000000         1.834159975613315E-066
   88.0650000000000        -6.080677184091186E-066
   88.2550000000000        -1.567675963207377E-065
   88.4450000000000        -2.683884599640558E-065
   88.6350000000000        -3.949988669817247E-065
   88.8250000000000        -5.375557531895529E-065
   89.0150000000000        -7.000570855532487E-065
   89.2050000000000        -8.910365277131777E-065
   89.3950000000000        -1.124812951412665E-064
   89.5850000000000        -1.422008095253816E-064
   89.7750000000000        -1.808680514400932E-064
   89.9650000000000        -2.313280817087764E-064
   90.1550000000000        -2.960549910534910E-064
   90.3450000000000        -3.761507492661713E-064
   90.5350000000000        -4.698870341189927E-064
   90.7250000000000        -5.707661783237923E-064
   90.9150000000000        -6.651485050954507E-064
   91.1050000000000        -7.295980378781551E-064
   91.2950000000000        -7.282386911210790E-064
   91.4850000000000        -6.105858243436241E-064
   91.6750000000000        -3.105141605851745E-064
   91.8650000000000         2.527753493398354E-064
   92.0550000000000         1.170748309562209E-063
   92.2450000000000         2.537331508590917E-063
   92.4350000000000         4.435348790532536E-063
   92.6250000000000         6.916609330291082E-063
   92.8150000000000         9.975072729774900E-063
   93.0050000000000         1.351323626031757E-062
   93.1950000000000         1.730297367443781E-062
   93.3850000000000         2.094353397413198E-062
   93.5750000000000         2.382127382416854E-062
   93.7650000000000         2.507788152303169E-062
   93.9550000000000         2.359620774455085E-062
   94.1450000000000         1.801510621903743E-062
   94.3350000000000         6.786553541506358E-063
   94.5250000000000        -1.171070646214039E-062
   94.7150000000000        -3.898723687908563E-062
   94.9050000000000        -7.617755240896636E-062
   95.0950000000000        -1.236876030877059E-061
   95.2850000000000        -1.807582307429294E-061
   95.4750000000000        -2.449605351733161E-061
   95.6650000000000        -3.116560296312987E-061
   95.8550000000000        -3.734752995687198E-061
   96.0450000000000        -4.198927323204207E-061
   96.2350000000000        -4.370000852161374E-061
   96.4250000000000        -4.076055787417989E-061
   96.6150000000000        -3.118041595467236E-061
   96.8050000000000        -1.281738306468038E-061
   96.9950000000000         1.642531969975165E-061
   97.1850000000000         5.831236605555295E-061
   97.3750000000000         1.138935956953180E-060
   97.5650000000000         1.830277914706566E-060
   97.7550000000000         2.638283834029812E-060
   97.9450000000000         3.520633625590172E-060
   98.1350000000000         4.405622616043006E-060
   98.3250000000000         5.187064818578779E-060
   98.5150000000000         5.721039240106158E-060
   98.7050000000000         5.825723568699502E-060
   98.8950000000000         5.285748436693785E-060
   99.0850000000000         3.862605109456095E-060
   99.2750000000000         1.312598420223759E-060
   99.4650000000000        -2.586402016649079E-060
   99.6550000000000        -7.998654076353919E-060
   99.8450000000000        -1.498472442747963E-059
   100.035000000000        -2.344735636653925E-059
   100.225000000000        -3.307173658590400E-059
   100.415000000000        -4.326472940214503E-059
   100.605000000000        -5.309977302951232E-059
   100.795000000000        -6.127639493760779E-059
   100.985000000000        -6.610549561157773E-059
   101.175000000000        -6.553338572396739E-059
   101.365000000000        -5.721867419282056E-059
   101.555000000000        -3.867605574464063E-059
   101.745000000000        -7.499347571592753E-060
   101.935000000000         3.832772892215888E-059
   102.125000000000         1.000310016850416E-058
   102.315000000000         1.775629794988936E-058
   102.505000000000         2.690577240741690E-058
   102.695000000000         3.702591851770442E-058
   102.885000000000         4.739769045656881E-058
   103.075000000000         5.696426814145141E-058
   103.265000000000         6.430613653128717E-058
   103.455000000000         6.764661257767879E-058
   103.645000000000         6.490003884985055E-058
   103.835000000000         5.377515603594018E-058
   104.025000000000         3.194516533772561E-058
   104.215000000000        -2.706727261232419E-059
   104.405000000000        -5.176233357996454E-058
   104.595000000000        -1.158674141200428E-057
   104.785000000000        -1.942677927582621E-057
   104.975000000000        -2.843084753653615E-057
   105.165000000000        -3.809364099341762E-057
   105.355000000000        -4.762638843796900E-057
   105.545000000000        -5.592662536111350E-057
   105.735000000000        -6.157029861006760E-057
   105.925000000000        -6.283626385182513E-057
   106.115000000000        -5.777375051202293E-057
   106.305000000000        -4.432291349921080E-057
   106.495000000000        -2.049682356383608E-057
   106.685000000000         1.537016649893960E-057
   106.875000000000         6.430809093553929E-057
   107.065000000000         1.263389549268328E-056
   107.255000000000         2.000637262639604E-056
   107.445000000000         2.822377824840164E-056
   107.635000000000         3.673768554215402E-056
   107.825000000000         4.474490863056553E-056
   108.015000000000         5.117216808695937E-056
   108.205000000000         5.468411332070016E-056
   108.395000000000         5.372319546432377E-056
   108.585000000000         4.658978438012871E-056
   108.775000000000         3.156986066017463E-056
   108.965000000000         7.115323087099680E-057
   109.155000000000        -2.792180017209818E-056
   109.345000000000        -7.400532764352403E-056
   109.535000000000        -1.305922363978492E-055
   109.725000000000        -1.957910804800859E-055
   109.915000000000        -2.660311439602129E-055
   110.105000000000        -3.357824543247548E-055