  -1.42500000000000         0.000000000000000E+000
  -1.23500000000000         0.000000000000000E+000
  -1.04500000000000         0.000000000000000E+000
 -0.855000000000000         0.000000000000000E+000
 -0.665000000000000         0.000000000000000E+000
 -0.475000000000000         0.000000000000000E+000
 -0.285000000000000         0.000000000000000E+000
 -9.499999999999975E-002    0.000000000000000E+000
  9.500000000000020E-002    0.000000000000000E+000
  0.285000000000000         0.000000000000000E+000
  0.475000000000000         0.000000000000000E+000
  0.665000000000000         0.000000000000000E+000
  0.855000000000000         0.000000000000000E+000
   1.04500000000000         0.000000000000000E+000
   1.23500000000000         0.000000000000000E+000
   1.42500000000000         0.000000000000000E+000
   1.61500000000000         0.000000000000000E+000
   1.80500000000000         0.000000000000000E+000
   1.99500000000000         0.000000000000000E+000
   2.18500000000000         0.000000000000000E+000
   2.37500000000000         0.000000000000000E+000
   2.56500000000000         0.000000000000000E+000
   2.75500000000000         0.000000000000000E+000
   2.94500000000000         0.000000000000000E+000
   3.13500000000000         0.000000000000000E+000
   3.32500000000000         0.000000000000000E+000
   3.51500000000000         0.000000000000000E+000
   3.70500000000000         0.000000000000000E+000
   3.89500000000000         0.000000000000000E+000
   4.08500000000000         0.000000000000000E+000
   4.27500000000000         0.000000000000000E+000
   4.46500000000000         0.000000000000000E+000
   4.65500000000000         0.000000000000000E+000
   4.84500000000000         0.000000000000000E+000
   5.03500000000000         0.000000000000000E+000
   5.22500000000000         0.000000000000000E+000
   5.41500000000000         0.000000000000000E+000
   5.60500000000000         0.000000000000000E+000
   5.79500000000000         0.000000000000000E+000
   5.98500000000000         0.000000000000000E+000
   6.17500000000000        -1.618643995265801E-174
   6.36500000000000        -8.160199701008502E-169
   6.55500000000000        -7.638509281319464E-166
   6.74500000000000        -1.289365638078520E-162
   6.93500000000000        -1.007686566248802E-160
   7.12500000000000        -2.271126525713112E-159
   7.31500000000000         1.240330941945374E-158
   7.50500000000000         1.945843712576311E-156
   7.69500000000000         1.288250808879320E-154
   7.88500000000000        -5.269217794266958E-147
   8.07500000000000         4.423154268264036E-146
   8.26500000000000         2.138065157234319E-143
   8.45500000000000         1.070641555317109E-141
   8.64500000000000         3.015354831017602E-140
   8.83500000000000         5.930199881400407E-139
   9.02500000000000         8.928377725170099E-138
   9.21500000000000         1.083979472902039E-136
   9.40500000000000         1.097402029999910E-135
   9.59500000000000         9.480880805343717E-135
   9.78500000000000         7.105665069877152E-134
   9.97500000000000         4.673555454828261E-133
   10.1650000000000         2.717740885347620E-132
   10.3550000000000         1.401931473080591E-131
   10.5450000000000         6.403240949939604E-131
   10.7350000000000         2.563536371311490E-130
   10.9250000000000         8.754854153539949E-130
   11.1150000000000         2.364545355941061E-129
   11.3050000000000         3.643876039011883E-129
   11.4950000000000        -8.761781890980309E-129
   11.6850000000000        -1.092704126854904E-127
   11.8750000000000        -6.042342248763576E-127
   12.0650000000000        -2.501599505925258E-126
   12.2550000000000        -8.330115880125044E-126
   12.4450000000000        -2.143693891507364E-125
   12.6350000000000        -3.126617894511492E-125
   12.8250000000000         7.199567689990093E-125
   13.0150000000000         8.633949455115038E-124
   13.2050000000000         4.697018803783082E-123
   13.3950000000000         1.977750953909888E-122
   13.5850000000000         7.092946536420778E-122
   13.7750000000000         2.221398532122607E-121
   13.9650000000000         6.015542546467616E-121
   14.1550000000000         1.323811395585623E-120
   14.3450000000000         1.780642019843126E-120
   14.5350000000000        -2.804712316437204E-120
   14.7250000000000        -3.491342056864841E-119
   14.9150000000000        -1.818505812985208E-118
   15.1050000000000        -7.463973788729785E-118
   15.2950000000000        -2.697231068004490E-117
   15.4850000000000        -8.941273587339375E-117
   15.6750000000000        -2.774130890497044E-116
   15.8650000000000        -8.148137706739243E-116
   16.0550000000000        -2.281905763804073E-115
   16.2450000000000        -6.122278907229030E-115
   16.4350000000000        -1.578829576344622E-114
   16.6250000000000        -3.922548415661891E-114
   16.8150000000000        -9.403865758778488E-114
   17.0050000000000        -2.177693686689971E-113
   17.1950000000000        -4.873807217167252E-113
   17.3850000000000        -1.054225141582487E-112
   17.5750000000000        -2.202735275830720E-112
   17.7650000000000        -4.440423537882169E-112
   17.9550000000000        -8.617385485251649E-112
   18.1450000000000        -1.604177213488689E-111
   18.3350000000000        -2.847604675824165E-111
   18.5250000000000        -4.771547202212753E-111
   18.7150000000000        -7.407467651076026E-111
   18.9050000000000        -1.023940753640374E-110
   19.0950000000000        -1.129111646862445E-110
   19.2850000000000        -5.225284499008929E-111
   19.4750000000000         2.033469881697400E-110
   19.6650000000000         9.146775989557439E-110
   19.8550000000000         2.592386920804397E-109
   20.0450000000000         6.173680694577114E-109
   20.2350000000000         1.327101285991832E-108
   20.4250000000000         2.646304312147118E-108
   20.6150000000000         4.949598556677363E-108
   20.8050000000000         8.702712437826635E-108
   20.9950000000000         1.430419182977038E-107
   21.1850000000000         2.160795956963007E-107
   21.3750000000000         2.875078491711562E-107
   21.5650000000000         2.956213848135126E-107
   21.7550000000000         8.220376262418174E-108
   21.9450000000000        -7.123510054528333E-107
   22.1350000000000        -2.846883419709720E-106
   22.3250000000000        -7.840491156854429E-106
   22.5150000000000        -1.861242186100691E-105
   22.7050000000000        -4.058674166278107E-105
   22.8950000000000        -8.355308240208798E-105
   23.0850000000000        -1.647282272084161E-104
   23.2750000000000        -3.136791010134042E-104
   23.4650000000000        -5.800588210665228E-104
   23.6550000000000        -1.045479476520810E-103
   23.8450000000000        -1.841285382712358E-103
   24.0350000000000        -3.174447648620780E-103
   24.2250000000000        -5.364153168865927E-103
   24.4150000000000        -8.891664439960169E-103
   24.6050000000000        -1.446523639380181E-102
   24.7950000000000        -2.309953470978625E-102
   24.9850000000000        -3.620387836550329E-102
   25.1750000000000        -5.566382218792685E-102
   25.3650000000000        -8.388326625716658E-102
   25.5550000000000        -1.237253749462873E-101
   25.7450000000000        -1.782445674887419E-101
   25.9350000000000        -2.500315052714000E-101
   26.1250000000000        -3.398895834572962E-101
   26.3150000000000        -4.444152090669210E-101
   26.5050000000000        -5.518559212335257E-101
   26.6950000000000        -6.353644396231012E-101
   26.8850000000000        -6.424557502254890E-101
   27.0750000000000        -4.791275373075135E-101
   27.2650000000000         1.323091987891763E-102
   27.4550000000000         1.090247718498255E-100
   27.6450000000000         3.148370845049018E-100
   27.8350000000000         6.781596116336378E-100
   28.0250000000000         1.285122207104951E-099
   28.2150000000000         2.256589059130953E-099
   28.4050000000000         3.756421436715346E-099
   28.5950000000000         5.998433016155506E-099
   28.7850000000000         9.249268922403152E-099
   28.9750000000000         1.382271272260776E-098
   29.1650000000000         2.005855697488734E-098
   29.3550000000000         2.827606422046556E-098
   29.5450000000000         3.868814652275531E-098
   29.7350000000000         5.125774228301144E-098
   29.9250000000000         6.547265372005419E-098
   30.1150000000000         8.000973055412404E-098
   30.3050000000000         9.225446455572291E-098
   30.4950000000000         9.763896073294515E-098
   30.6850000000000         8.876166060396135E-098
   30.8750000000000         5.425876234678159E-098
   31.0650000000000        -2.258613610588968E-098
   31.2550000000000        -1.654755395795369E-097
   31.4450000000000        -4.069006698589807E-097
   31.6350000000000        -7.899496902045650E-097
   31.8250000000000        -1.369819947441476E-096
   32.0150000000000        -2.214526896911798E-096
   32.2050000000000        -3.404005285101972E-096
   32.3950000000000        -5.026382221812877E-096
   32.5850000000000        -7.169638501223946E-096
   32.7750000000000        -9.906140513348349E-096
   32.9650000000000        -1.326661273916580E-095
   33.1550000000000        -1.719905558341363E-095
   33.3450000000000        -2.150697879698279E-095
   33.5350000000000        -2.576029284710830E-095
   33.7250000000000        -2.917158996198127E-095
   33.9150000000000        -3.043084708930904E-095
   34.1050000000000        -2.749352042906999E-095
   34.2950000000000        -1.732157237196640E-095
   34.4850000000000         4.414539886353060E-096
   34.6750000000000         4.365093545161196E-095
   34.8650000000000         1.082193387317692E-094
   35.0550000000000         2.080369635168340E-094
   35.2450000000000         3.550838642691762E-094
   35.4350000000000         5.630031050385627E-094
   35.6250000000000         8.460974330848987E-094
   35.8150000000000         1.217426615371353E-093
   36.0050000000000         1.685637525826644E-093
   36.1950000000000         2.250093526387038E-093
   36.3850000000000         2.893824556151347E-093
   36.5750000000000         3.573814571258852E-093
   36.7650000000000         4.208205959977571E-093
   36.9550000000000         4.660167772904536E-093
   37.1450000000000         4.718493469277566E-093
   37.3350000000000         4.075524665254871E-093
   37.5250000000000         2.303814807190227E-093
   37.7150000000000        -1.165859765772954E-093
   37.9050000000000        -7.060862902343963E-093
   38.0950000000000        -1.627090446444516E-092
   38.2850000000000        -2.983063405378674E-092
   38.4750000000000        -4.886753581531989E-092
   38.6650000000000        -7.449776622260296E-092
   38.8550000000000        -1.076479274125295E-091
   39.0450000000000        -1.487763106949761E-091
   39.2350000000000        -1.974639017643518E-091
   39.4250000000000        -2.518450515859495E-091
   39.6150000000000        -3.078525968208631E-091
   39.8050000000000        -3.582656420313913E-091
   39.9950000000000        -3.915743148494449E-091
   40.1850000000000        -3.907192901871288E-091
   40.3750000000000        -3.318294804698469E-091
   40.5650000000000        -1.831727260508681E-091
   40.7550000000000         9.534725930047667E-092
   40.9450000000000         5.516725901441903E-091
   41.1350000000000         1.239422100029166E-090
   41.3250000000000         2.213296225313937E-090
   41.5150000000000         3.521177647688180E-090
   41.7050000000000         5.192037919116792E-090
   41.8950000000000         7.218903671669623E-090
   42.0850000000000         9.536509193096327E-090
   42.2750000000000         1.199394394625817E-089
   42.4650000000000         1.432366378986733E-089
   42.6550000000000         1.610971477232191E-089
   42.8450000000000         1.675990663619711E-089
   43.0350000000000         1.548887487231677E-089
   43.2250000000000         1.132127682754389E-089
   43.4150000000000         3.126429995968509E-090
   43.6050000000000        -1.030298571191498E-089
   43.7950000000000        -3.011563101057145E-089
   43.9850000000000        -5.719935200984491E-089
   44.1750000000000        -9.190715824213010E-089
   44.3650000000000        -1.337153001911176E-088
   44.5550000000000        -1.808305898143348E-088
   44.7450000000000        -2.297815119463598E-088
   44.9350000000000        -2.750486376718461E-088
   45.1250000000000        -3.088127790329294E-088
   45.3150000000000        -3.209215065369728E-088
   45.5050000000000        -2.991921529045920E-088
   45.6950000000000        -2.301771239006949E-088
   45.8850000000000        -1.005091323066057E-088
   46.0750000000000         1.010867672540581E-088
   46.2650000000000         3.810872218069559E-088
   46.4550000000000         7.378377792402732E-088
   46.6450000000000         1.157792199319723E-087
   46.8350000000000         1.611692169010535E-087
   47.0250000000000         2.051257446375518E-087
   47.2150000000000         2.407179251348499E-087
   47.4050000000000         2.589434510109252E-087
   47.5950000000000         2.491137026176425E-087
   47.7850000000000         1.997274626274579E-087
   47.9750000000000         9.996970748671958E-088
   48.1650000000000        -5.804479695219715E-088
   48.3550000000000        -2.762066199278644E-087
   48.5450000000000        -5.465285513868090E-087
   48.7350000000000        -8.465741878218447E-087
   48.9250000000000        -1.134514160160244E-086
   49.1150000000000        -1.344381804546042E-086
   49.3050000000000        -1.382432747343883E-086
   49.4950000000000        -1.125921003668208E-086
   49.6850000000000        -4.260715426673630E-087
   49.8750000000000         8.824840135434120E-087
   50.0650000000000         2.963109936980274E-086
   50.2550000000000         5.946451167905209E-086
   50.4450000000000         9.884737059734445E-086
   50.6350000000000         1.468892068041823E-085
   50.8250000000000         2.004803152043246E-085
   51.0150000000000         2.533289464142758E-085
   51.2050000000000         2.949068763323021E-085
   51.3950000000000         3.094292411451940E-085
   51.5850000000000         2.750744804546223E-085
   51.7750000000000         1.637466184348698E-085
   51.9650000000000        -5.821221045683056E-086
   52.1550000000000        -4.278498257999195E-085
   52.3450000000000        -9.813885312796693E-085
   52.5350000000000        -1.747364413329945E-084
   52.7250000000000        -2.736599701400762E-084
   52.9150000000000        -3.928711387314442E-084
   53.1050000000000        -5.255279223754939E-084
   53.2950000000000        -6.580456478996649E-084
   53.4850000000000        -7.680736917346187E-084
   53.6750000000000        -8.226790659073658E-084
   53.8650000000000        -7.771701799500697E-084
   54.0550000000000        -5.751468539524278E-084
   54.2450000000000        -1.505067048540596E-084
   54.4350000000000         5.677554180492190E-084
   54.6250000000000         1.647087278459491E-083
   54.8150000000000         3.138481195511428E-083
   55.0050000000000         5.058623163029662E-083
   55.1950000000000         7.367057090195812E-083
   55.3850000000000         9.939074594698399E-083
   55.5750000000000         1.253606157808288E-082
   55.7650000000000         1.477631835860694E-082
   55.9550000000000         1.611086266968228E-082
   56.1450000000000         1.581031242100150E-082
   56.3350000000000         1.297045608952004E-082
   56.5250000000000         6.545323005926886E-083
   56.7150000000000        -4.582813701211843E-083
   56.9050000000000        -2.148733496323318E-082
   57.0950000000000        -4.502735622447393E-082
   57.2850000000000        -7.561914900125422E-082
   57.4750000000000        -1.129485189000093E-081
   57.6650000000000        -1.556298087915936E-081
   57.8550000000000        -2.008247017755962E-081
   58.0450000000000        -2.438426576040630E-081
   58.2350000000000        -2.777542221479044E-081
   58.4250000000000        -2.930581954566324E-081
   58.6150000000000        -2.774534944272776E-081
   58.8050000000000        -2.157766742991422E-081
   58.9950000000000        -9.017735081780347E-082
   59.1850000000000         1.193819288167017E-081
   59.3750000000000         4.341943269052839E-081
   59.5650000000000         8.753075833316805E-081
   59.7550000000000         1.461266981461655E-080
   59.9450000000000         2.204845329489948E-080
   60.1350000000000         3.108402996914849E-080
   60.3250000000000         4.157389584565109E-080
   60.5150000000000         5.311340281259701E-080
   60.7050000000000         6.491552152979352E-080
   60.8950000000000         7.564488217436530E-080
   61.0850000000000         8.319923335636628E-080
   61.2750000000000         8.443036646453815E-080
   61.4650000000000         7.480255293625054E-080
   61.6550000000000         4.799927497164885E-080
   61.8450000000000        -4.487978346060870E-081
   62.0350000000000        -9.371746289611440E-080
   62.2250000000000        -2.334729668075426E-079
   62.4150000000000        -4.400478344950406E-079
   62.6050000000000        -7.313190049505271E-079
   62.7950000000000        -1.124658331254061E-078
   62.9850000000000        -1.633076448930874E-078
   63.1750000000000        -2.258845942958425E-078
   63.3650000000000        -2.983744926541309E-078
   63.5550000000000        -3.755064037409423E-078
   63.7450000000000        -4.466725670917208E-078
   63.9350000000000        -4.935406354162572E-078
   64.1250000000000        -4.872598708666877E-078
   64.3150000000000        -3.855289702204108E-078
   64.5050000000000        -1.300556232895154E-078
   64.6950000000000         3.546972394408111E-078
   64.8850000000000         1.160114718633404E-077
   65.0750000000000         2.387467735886703E-077
   65.2650000000000         4.134895520272198E-077
   65.4550000000000         6.474356963941906E-077
   65.6450000000000         9.415361018540735E-077
   65.8350000000000         1.285261245112657E-076
   66.0250000000000         1.649593430801861E-076
   66.2150000000000         1.978339087311887E-076
   66.4050000000000         2.178291568942409E-076
   66.5950000000000         2.109439605460623E-076
   66.7850000000000         1.577336723020388E-076
   66.9750000000000         3.309171970867153E-077
   67.1650000000000        -1.929600005493343E-076
   67.3550000000000        -5.528689455886353E-076
   67.5450000000000        -1.076820319875061E-075
   67.7350000000000        -1.784910383193288E-075
   67.9250000000000        -2.675537012017860E-075
   68.1150000000000        -3.709599582117013E-075
   68.3050000000000        -4.790669459571343E-075
   68.4950000000000        -5.742240904571356E-075
   68.6850000000000        -6.284574448835406E-075
   68.8750000000000        -6.015533538339767E-075
   69.0650000000000        -4.402145573784757E-075
   69.2550000000000        -7.922234553179320E-076
   69.4450000000000         5.542075532776889E-075
   69.6350000000000         1.531495936833854E-074
   69.8250000000000         2.907770723065353E-074
   70.0150000000000         4.699714153495677E-074
   70.2050000000000         6.855550535305908E-074
   70.3950000000000         9.217650527687471E-074
   70.5850000000000         1.147999870727005E-073
   70.7750000000000         1.314529304034669E-073
   70.9650000000000         1.348972447189384E-073
   71.1550000000000         1.154738545584154E-073
   71.3450000000000         6.130431978523890E-074
   71.5350000000000        -4.095048523971312E-074
   71.7250000000000        -2.045498865552304E-073
   71.9150000000000        -4.401274289957325E-073
   72.1050000000000        -7.519597109962799E-073
   72.2950000000000        -1.132976431093270E-072
   72.4850000000000        -1.558625750677444E-072
   72.6750000000000        -1.979994992129454E-072
   72.8650000000000        -2.316979513724615E-072
   73.0550000000000        -2.452786720237863E-072
   73.2450000000000        -2.231629945337070E-072
   73.4350000000000        -1.462050390523876E-072
   73.6250000000000         7.119172200643719E-074
   73.8150000000000         2.583433004986307E-072
   74.0050000000000         6.251528350913808E-072
   74.1950000000000         1.115802689945559E-071
   74.3850000000000         1.721737432014540E-071
   74.5750000000000         2.408614406036842E-071
   74.7650000000000         3.106331893030607E-071
   74.9550000000000         3.699201149341749E-071
   75.1450000000000         4.018058884283023E-071
   75.3350000000000         3.836852676020608E-071
   75.5250000000000         2.876965085743918E-071
   75.7150000000000         8.231458789821410E-072
   75.9050000000000        -2.644781621087406E-071
   76.0950000000000        -7.800510778077338E-071
   76.2850000000000        -1.479724390742679E-070
   76.4750000000000        -2.357030441418139E-070
   76.6650000000000        -3.371903365245690E-070
   76.8550000000000        -4.437559748361389E-070
   77.0450000000000        -5.407482855240690E-070
   77.2350000000000        -6.064706220026267E-070
   77.4250000000000        -6.116454365956969E-070
   77.6150000000000        -5.198042370376974E-070
   77.8050000000000        -2.890615398293826E-070
   77.9950000000000         1.242375110829492E-070
   78.1850000000000         7.595358424076299E-070
   78.3750000000000         1.643408649082636E-069
   78.5650000000000         2.778130232084113E-069
   78.7550000000000         4.127743216726688E-069
   78.9450000000000         5.602453845005993E-069
   79.1350000000000         7.042882441704854E-069
   79.3250000000000         8.206539816788582E-069
   79.5150000000000         8.759818601214393E-069
   79.7050000000000         8.279680623383109E-069
   79.8950000000000         6.269935536496178E-069
   80.0850000000000         2.197339269260252E-069
   80.2750000000000        -4.447554693925738E-069
   80.4650000000000        -1.406106113218253E-068
   80.6550000000000        -2.680720732847149E-068
   80.8450000000000        -4.247123865557758E-068
   81.0350000000000        -6.029366555042663E-068
   81.2250000000000        -7.879968240699612E-068
   81.4150000000000        -9.564702227953185E-068
   81.6050000000000        -1.075242254175246E-067
   81.7950000000000        -1.101398868805119E-067
   81.9850000000000        -9.835024696994777E-068
   82.1750000000000        -6.647557887852967E-068
   82.3650000000000        -8.852900026392090E-069
   82.5550000000000         7.933895708994313E-068
   82.7450000000000         2.009684367029220E-067
   82.9350000000000         3.555767246954896E-067
   83.1250000000000         5.378117031312836E-067
   83.3150000000000         7.358060980881121E-067
   83.5050000000000         9.297099123527063E-067
   83.6950000000000         1.090666482901026E-066
   83.8850000000000         1.180596013391487E-066
   84.0750000000000         1.153206615922734E-066
   84.2650000000000         9.566732963775627E-067
   84.4550000000000         5.383893835071215E-067
   84.6450000000000        -1.479193706453288E-067
   84.8350000000000        -1.132641186446130E-066
   85.0250000000000        -2.418536590180569E-066
   85.2150000000000        -3.967509097606778E-066
   85.4050000000000        -5.687148403248312E-066
   85.5950000000000        -7.418944853826637E-066
   85.7850000000000        -8.930731720644664E-066
   85.9750000000000        -9.916496505641031E-066
   86.1650000000000        -1.000708803900428E-065
   86.3550000000000        -8.795375000197100E-066
   86.5450000000000        -5.878904018304807E-066
   86.7350000000000        -9.218766991832827E-067
   86.9250000000000         6.263849267451688E-066
   87.1150000000000         1.562213650417623E-065
   87.3050000000000         2.674782798870451E-065
   87.4950000000000         3.878635120798264E-065
   87.6850000000000         5.035557635981951E-065
   87.8750000000000         5.951317445313233E-065
   88.0650000000000         6.379704896465391E-065
   88.2550000000000         6.036855079245453E-065
   88.4450000000000         4.628669782013241E-065
   88.6350000000000         1.893492368168849E-065
   88.8250000000000        -2.339158939833361E-065
   89.0150000000000        -8.075147571642178E-065
   89.2050000000000        -1.507194246689430E-064
   89.3950000000000        -2.275275960458291E-064
   89.5850000000000        -3.013140897729595E-064
   89.7750000000000        -3.576546625329325E-064
   89.9650000000000        -3.775991268576294E-064
   90.1550000000000        -3.384674957276681E-064
   90.3450000000000        -2.156719137606684E-064
   90.5350000000000         1.419434059984169E-065
   90.7250000000000         3.688341672383971E-064
   90.9150000000000         8.542619218755972E-064
   91.1050000000000         1.457541071581198E-063
   91.2950000000000         2.138721031010681E-063
   91.4850000000000         2.822817786207623E-063
   91.6750000000000         3.393108634496336E-063
   91.8650000000000         3.687460340189344E-063
   92.0550000000000         3.499827127452633E-063
   92.2450000000000         2.589362810845603E-063
   92.4350000000000         6.996907734781613E-064
   92.6250000000000        -2.409350812599887E-063
   92.8150000000000        -6.915850270624748E-063
   93.0050000000000        -1.287546742841857E-062
   93.1950000000000        -2.014813203051125E-062
   93.3850000000000        -2.831600739056555E-062
   93.5750000000000        -3.660029767621238E-062
   93.7650000000000        -4.378841158650257E-062
   93.9550000000000        -4.818721624478216E-062
   94.1450000000000        -4.762216850765146E-062
   94.3350000000000        -3.950535075355635E-062
   94.5250000000000        -2.099702687565588E-062
   94.7150000000000         1.071573239980302E-062
   94.9050000000000         5.800463844601745E-062
   95.0950000000000         1.222409867953811E-061
   95.2850000000000         2.030982436211193E-061
   95.4750000000000         2.977450545430959E-061
   95.6650000000000         3.999859353929823E-061
   95.8550000000000         4.994412965014127E-061
   96.0450000000000         5.808967041788167E-061
   96.2350000000000         6.239901037335455E-061
   96.4250000000000         6.034402537665720E-061
   96.6150000000000         4.900433443025428E-061
   96.8050000000000         2.526696502301633E-061
   96.9950000000000        -1.385311140546069E-061
   97.1850000000000        -7.075680613006901E-061
   97.3750000000000        -1.466651371876832E-060
   97.5650000000000        -2.408961273445361E-060
   97.7550000000000        -3.500486997059420E-060
   97.9450000000000        -4.671555415086870E-060
   98.1350000000000        -5.808991476394678E-060
   98.3250000000000        -6.750200631271411E-060
   98.5150000000000        -7.280804769786820E-060
   98.7050000000000        -7.137751994394368E-060
   98.8950000000000        -6.019997531027730E-060
   99.0850000000000        -3.608846978103143E-060
   99.2750000000000         4.002157617805926E-061
   99.4650000000000         6.253007001635676E-060
   99.6550000000000         1.407925249410735E-059
   99.8450000000000         2.382366043244247E-059
   100.035000000000         3.516879800523833E-059
   100.225000000000         4.745558702425216E-059
   100.415000000000         5.961008080650658E-059
   100.605000000000         7.008821707063855E-059
   100.795000000000         7.685317361098055E-059
   100.985000000000         7.740238836034674E-059
   101.175000000000         6.886273741122264E-059
   101.365000000000         4.817219308931542E-059
   101.555000000000         1.236384552423353E-059
   101.745000000000        -4.103720925011090E-059
   101.935000000000        -1.135025437631415E-058
   102.125000000000        -2.048859950923045E-058
   102.315000000000        -3.127346296148102E-058
   102.505000000000        -4.315745078290454E-058
   102.695000000000        -5.522447285210380E-058
   102.885000000000        -6.613788032042303E-058
   103.075000000000        -7.411571445786990E-058
   103.265000000000        -7.694750972894997E-058
   103.455000000000        -7.206833714800935E-058
   103.645000000000        -5.670570804769483E-058
   103.835000000000        -2.811304561191424E-058
   104.025000000000         1.610087364068698E-058
   104.215000000000         7.754429690362686E-058
   104.405000000000         1.565249172725654E-057
   104.595000000000         2.514643883427456E-057
   104.785000000000         3.582839812332718E-057
   104.975000000000         4.698199690269121E-057
   105.165000000000         5.753481829864036E-057
   105.355000000000         6.603175148373115E-057
   105.545000000000         7.064093906360733E-057
   105.735000000000         6.920511802918482E-057
   105.925000000000         5.935123077049707E-057
   106.115000000000         3.866982730988770E-057
   106.305000000000         4.972560763967031E-058
   106.495000000000        -4.336939377427305E-057
   106.685000000000        -1.070111803202613E-056
   106.875000000000        -1.851602181550538E-056
   107.065000000000        -2.750713193404024E-056
   107.255000000000        -3.715552446998572E-056
   107.445000000000        -4.665613433975257E-056
   107.635000000000        -5.489110356174654E-056
   107.825000000000        -6.042728428783419E-056
   108.015000000000        -6.154790143119604E-056
   108.205000000000        -5.632856620567938E-056
   108.395000000000        -4.276695295310730E-056
   108.585000000000        -1.897318399870337E-056
   108.775000000000         1.657598406478013E-056
   108.965000000000         6.472193692604497E-056
   109.155000000000         1.252585672616390E-055
   109.345000000000         1.965366291955758E-055
   109.535000000000         2.750698399940433E-055
   109.725000000000         3.551867804606856E-055
   109.915000000000         4.287848831616614E-055
   110.105000000000         4.852536058546546E-055