  -1.42500000000000         0.000000000000000E+000
  -1.23500000000000         0.000000000000000E+000
  -1.04500000000000         0.000000000000000E+000
 -0.855000000000000         0.000000000000000E+000
 -0.665000000000000         0.000000000000000E+000
 -0.475000000000000         0.000000000000000E+000
 -0.285000000000000         0.000000000000000E+000
 -9.499999999999975E-002    0.000000000000000E+000
  9.500000000000020E-002    0.000000000000000E+000
  0.285000000000000         0.000000000000000E+000
  0.475000000000000         0.000000000000000E+000
  0.665000000000000         0.000000000000000E+000
  0.855000000000000         0.000000000000000E+000
   1.04500000000000         0.000000000000000E+000
   1.23500000000000         0.000000000000000E+000
   1.42500000000000         0.000000000000000E+000
   1.61500000000000         0.000000000000000E+000
   1.80500000000000         0.000000000000000E+000
   1.99500000000000         0.000000000000000E+000
   2.18500000000000         0.000000000000000E+000
   2.37500000000000         0.000000000000000E+000
   2.56500000000000         0.000000000000000E+000
   2.75500000000000         0.000000000000000E+000
   2.94500000000000         0.000000000000000E+000
   3.13500000000000         0.000000000000000E+000
   3.32500000000000         0.000000000000000E+000
   3.51500000000000         0.000000000000000E+000
   3.70500000000000         0.000000000000000E+000
   3.89500000000000         0.000000000000000E+000
   4.08500000000000         0.000000000000000E+000
   4.27500000000000         0.000000000000000E+000
   4.46500000000000         0.000000000000000E+000
   4.65500000000000         0.000000000000000E+000
   4.84500000000000         0.000000000000000E+000
   5.03500000000000         0.000000000000000E+000
   5.22500000000000         0.000000000000000E+000
   5.41500000000000         0.000000000000000E+000
   5.60500000000000         0.000000000000000E+000
   5.79500000000000         0.000000000000000E+000
   5.98500000000000         0.000000000000000E+000
   6.17500000000000         0.000000000000000E+000
   6.36500000000000         8.460822153965686E-174
   6.55500000000000        -1.106973240397515E-166
   6.74500000000000         1.703683860287173E-163
   6.93500000000000         8.781991138280616E-162
   7.12500000000000         3.063316832327894E-160
   7.31500000000000         8.829172635113222E-159
   7.50500000000000         1.944039305843330E-157
   7.69500000000000         3.100834783852137E-156
   7.88500000000000         3.121857957506805E-155
   8.07500000000000         2.207178897346159E-148
   8.26500000000000        -1.073485207677062E-146
   8.45500000000000        -1.751455794089724E-144
   8.64500000000000        -8.483997095016513E-143
   8.83500000000000        -2.474867277887710E-141
   9.02500000000000        -5.170397069645027E-140
   9.21500000000000        -8.400102373537615E-139
   9.40500000000000        -1.114630944752881E-137
   9.59500000000000        -1.248219250957714E-136
   9.78500000000000        -1.207632047148766E-135
   9.97500000000000        -1.027169142793576E-134
   10.1650000000000        -7.783875832267822E-134
   10.3550000000000        -5.309331260513650E-133
   10.5450000000000        -3.285038406484715E-132
   10.7350000000000        -1.854041077065016E-131
   10.9250000000000        -9.577904971831221E-131
   11.1150000000000        -4.533578139194183E-130
   11.3050000000000        -1.961944820035216E-129
   11.4950000000000        -7.706459534415555E-129
   11.6850000000000        -2.701174257875607E-128
   11.8750000000000        -8.112357781630462E-128
   12.0650000000000        -1.848169978652561E-127
   12.2550000000000        -1.351468860560859E-127
   12.4450000000000         1.709826871574409E-126
   12.6350000000000         1.401913665089055E-125
   12.8250000000000         7.466498427945893E-125
   13.0150000000000         3.295115135070849E-124
   13.2050000000000         1.285610575091370E-123
   13.3950000000000         4.544503871174936E-123
   13.5850000000000         1.467560141188687E-122
   13.7750000000000         4.317682462224194E-122
   13.9650000000000         1.138445501792506E-121
   14.1550000000000         2.569352152572435E-121
   14.3450000000000         4.259357373180856E-121
   14.5350000000000         7.180850124954933E-122
   14.7250000000000        -3.550965815862553E-120
   14.9150000000000        -2.129586392009231E-119
   15.1050000000000        -9.101838719257076E-119
   15.2950000000000        -3.340515637633451E-118
   15.4850000000000        -1.114962761194704E-117
   15.6750000000000        -3.472469299889124E-117
   15.8650000000000        -1.023346239415729E-116
   16.0550000000000        -2.878367792490610E-116
   16.2450000000000        -7.771561676653016E-116
   16.4350000000000        -2.022508141244536E-115
   16.6250000000000        -5.088916099059278E-115
   16.8150000000000        -1.240932995443666E-114
   17.0050000000000        -2.938228187257941E-114
   17.1950000000000        -6.765641510431828E-114
   17.3850000000000        -1.516950071596647E-113
   17.5750000000000        -3.315331164036005E-113
   17.7650000000000        -7.068787809739179E-113
   17.9550000000000        -1.471347557766372E-112
   18.1450000000000        -2.991228359175163E-112
   18.3350000000000        -5.941242446830302E-112
   18.5250000000000        -1.153018211632224E-111
   18.7150000000000        -2.186029817578365E-111
   18.9050000000000        -4.046997729623037E-111
   19.0950000000000        -7.309506456068908E-111
   19.2850000000000        -1.286183136724932E-110
   19.4750000000000        -2.199943433564387E-110
   19.6650000000000        -3.645151196930929E-110
   19.8550000000000        -5.818898441763636E-110
   20.0450000000000        -8.868466258863099E-110
   20.2350000000000        -1.269620134996688E-109
   20.4250000000000        -1.651594035849776E-109
   20.6150000000000        -1.792602813585735E-109
   20.8050000000000        -1.107925919269444E-109
   20.9950000000000         1.677850822729833E-109
   21.1850000000000         9.163151801015744E-109
   21.3750000000000         2.639055400517363E-108
   21.5650000000000         6.278212905494889E-108
   21.7550000000000         1.353978959916845E-107
   21.9450000000000         2.742912549247958E-107
   22.1350000000000         5.311013451499919E-107
   22.3250000000000         9.924986256808676E-107
   22.5150000000000         1.800664454836630E-106
   22.7050000000000         3.183542830663795E-106
   22.8950000000000         5.497904477432315E-106
   23.0850000000000         9.287760253758879E-106
   23.2750000000000         1.535823135956415E-105
   23.4650000000000         2.485845550906791E-105
   23.6550000000000         3.935241490925340E-105
   23.8450000000000         6.082629831107169E-105
   24.0350000000000         9.152191283784188E-105
   24.2250000000000         1.333745136777624E-104
   24.4150000000000         1.866301444049212E-104
   24.6050000000000         2.468541205958303E-104
   24.7950000000000         2.989048977093424E-104
   24.9850000000000         3.053492291016077E-104
   25.1750000000000         1.849330467353476E-104
   25.3650000000000        -2.263814989100162E-104
   25.5550000000000        -1.244394363239467E-103
   25.7450000000000        -3.456456871034057E-103
   25.9350000000000        -7.925887804916850E-103
   26.1250000000000        -1.653509207989575E-102
   26.3150000000000        -3.255236252491824E-102
   26.5050000000000        -6.155348064820573E-102
   26.6950000000000        -1.128964782822682E-101
   26.8850000000000        -2.020433265037080E-101
   27.0750000000000        -3.541534842703376E-101
   27.2650000000000        -6.095478417086796E-101
   27.4550000000000        -1.031860454731493E-100
   27.6450000000000        -1.719953399918616E-100
   27.8350000000000        -2.824943443108459E-100
   28.0250000000000        -4.573923937837780E-100
   28.2150000000000        -7.302058008237101E-100
   28.4050000000000        -1.149449063581925E-099
   28.5950000000000        -1.783868900608092E-099
   28.7850000000000        -2.728593196891480E-099
   28.9750000000000        -4.111709158067001E-099
   29.1650000000000        -6.100169814439420E-099
   29.3550000000000        -8.902939064737994E-099
   29.5450000000000        -1.276777768676916E-098
   29.7350000000000        -1.796587749009076E-098
   29.9250000000000        -2.475548969156585E-098
   30.1150000000000        -3.331160625896936E-098
   30.3050000000000        -4.360354366483568E-098
   30.4950000000000        -5.519598797108234E-098
   30.6850000000000        -6.694196843890796E-098
   30.8750000000000        -7.652899189249122E-098
   31.0650000000000        -7.983340504676724E-098
   31.2550000000000        -7.003494029635010E-098
   31.4450000000000        -3.644634221383007E-098
   31.6350000000000         3.697374992515708E-098
   31.8250000000000         1.734270432261587E-097
   32.0150000000000         4.053501094406638E-097
   32.2050000000000         7.766197624318157E-097
   32.3950000000000         1.344620398721334E-096
   32.5850000000000         2.181714609281879E-096
   32.7750000000000         3.375395440881477E-096
   32.9650000000000         5.026047300052528E-096
   33.1550000000000         7.240788431565874E-096
   33.3450000000000         1.012130074026880E-095
   33.5350000000000         1.374287019112482E-095
   33.7250000000000         1.812107586771552E-095
   33.9150000000000         2.316171625358696E-095
   34.1050000000000         2.858872670824228E-095
   34.2950000000000         3.384416484748294E-095
   34.4850000000000         3.795405622381466E-095
   34.6750000000000         3.935436896672480E-095
   34.8650000000000         3.567316922175157E-095
   35.0550000000000         2.346887537394503E-095
   35.2450000000000        -2.068468633951396E-096
   35.4350000000000        -4.743448176422858E-095
   35.6250000000000        -1.211102235249466E-094
   35.8150000000000        -2.337827030503081E-094
   36.0050000000000        -3.983887378233751E-094
   36.1950000000000        -6.298376247777566E-094
   36.3850000000000        -9.442086735360559E-094
   36.5750000000000        -1.357148924943991E-093
   36.7650000000000        -1.881118037314805E-093
   36.9550000000000        -2.521049190818898E-093
   37.1450000000000        -3.267930488500280E-093
   37.3350000000000        -4.089781735896450E-093
   37.5250000000000        -4.919536827329536E-093
   37.7150000000000        -5.639482956333857E-093
   37.9050000000000        -6.062206478385375E-093
   38.0950000000000        -5.908514451518996E-093
   38.2850000000000        -4.783612850380469E-093
   38.4750000000000        -2.154004868612990E-093
   38.6650000000000         2.670797478870655E-093
   38.8550000000000         1.054551132601025E-092
   39.0450000000000         2.247633239049719E-092
   39.2350000000000         3.957599988748871E-092
   39.4250000000000         6.297073685270410E-092
   39.6150000000000         9.363907592327918E-092
   39.8050000000000         1.321585711812415E-091
   39.9950000000000         1.783330193484461E-091
   40.1850000000000         2.306710158359248E-091
   40.3750000000000         2.856879025696335E-091
   40.5650000000000         3.370095602727924E-091
   40.7550000000000         3.742710872754823E-091
   40.9450000000000         3.818303163484272E-091
   41.1350000000000         3.373607088469732E-091
   41.3250000000000         2.104569829067621E-091
   41.5150000000000        -3.851274840657265E-092
   41.7050000000000        -4.589352634288452E-091
   41.8950000000000        -1.109304297569223E-090
   42.0850000000000        -2.054611167466260E-090
   42.2750000000000        -3.360723413794825E-090
   42.4650000000000        -5.084421840094185E-090
   42.6550000000000        -7.257518350164288E-090
   42.8450000000000        -9.863334882250786E-090
   43.0350000000000        -1.280389977105976E-089
   43.2250000000000        -1.585666695973352E-089
   43.4150000000000        -1.862058280170614E-089
   43.6050000000000        -2.045314405101845E-089
   43.7950000000000        -2.040294572910103E-089
   43.9850000000000        -1.714630824579125E-089
   44.1750000000000        -8.941992348002415E-090
   44.3650000000000         6.375351192306003E-090
   44.5550000000000         3.133492462060539E-089
   44.7450000000000         6.866732326997920E-089
   44.9350000000000         1.209987351999400E-088
   45.1250000000000         1.903586668335669E-088
   45.3150000000000         2.774626757893540E-088
   45.5050000000000         3.807462619785316E-088
   45.6950000000000         4.951544908797889E-088
   45.8850000000000         6.107374569998224E-088
   46.0750000000000         7.111664503873621E-088
   46.2650000000000         7.723692898216421E-088
   46.4550000000000         7.615813663258646E-088
   46.6450000000000         6.372115124706629E-088
   46.8350000000000         3.500117917591295E-088
   47.0250000000000        -1.539073983797427E-088
   47.2150000000000        -9.276937528040064E-088
   47.4050000000000        -2.015605203557522E-087
   47.5950000000000        -3.441978131987408E-087
   47.7850000000000        -5.197650032205273E-087
   47.9750000000000        -7.224830060937594E-087
   48.1650000000000        -9.402245571537154E-087
   48.3550000000000        -1.153334014767305E-086
   48.5450000000000        -1.334122549881801E-086
   48.7350000000000        -1.447478253974139E-086
   48.9250000000000        -1.453046785787074E-086
   49.1150000000000        -1.309363779958288E-086
   49.3050000000000        -9.801139157626092E-087
   49.4950000000000        -4.423139839017301E-087
   49.6850000000000         3.043587975088480E-087
   49.8750000000000         1.228648188923013E-086
   50.0650000000000         2.261700313204583E-086
   50.2550000000000         3.297426925571946E-086
   50.4450000000000         4.203597932263462E-086
   50.6350000000000         4.848473858015319E-086
   50.8250000000000         5.147477774029362E-086
   51.0150000000000         5.132865674264337E-086
   51.2050000000000         5.046086159241248E-086
   51.3950000000000         5.447053980377893E-086
   51.5850000000000         7.326563612567533E-086
   51.7750000000000         1.219748997671357E-085
   51.9650000000000         2.212768454848414E-085
   52.1550000000000         3.966367329253802E-085
   52.3450000000000         6.758137691244624E-085
   52.5350000000000         1.083911333328273E-084
   52.7250000000000         1.635234715569194E-084
   52.9150000000000         2.321346055930000E-084
   53.1050000000000         3.095025384573530E-084
   53.2950000000000         3.850423191382349E-084
   53.4850000000000         4.400581401537765E-084
   53.6750000000000         4.454746055028322E-084
   53.8650000000000         3.599503831345984E-084
   54.0550000000000         1.289703059349211E-084
   54.2450000000000        -3.142743914653902E-084
   54.4350000000000        -1.045193580118852E-083
   54.6250000000000        -2.140084477368260E-083
   54.8150000000000        -3.663074165618841E-083
   55.0050000000000        -5.646407958713753E-083
   55.1950000000000        -8.062976703612763E-083
   55.3850000000000        -1.079044843567301E-082
   55.5750000000000        -1.356719846887379E-082
   55.7650000000000        -1.594151355347538E-082
   55.9550000000000        -1.721738474589514E-082
   56.1450000000000        -1.640271163975774E-082
   56.3350000000000        -1.216903386593155E-082
   56.5250000000000        -2.836099095482574E-083
   56.7150000000000         1.360023196077825E-082
   56.9050000000000         3.937200662695207E-082
   57.0950000000000         7.674317723416613E-082
   57.2850000000000         1.276737315132110E-081
   57.4750000000000         1.932962531313996E-081
   57.6650000000000         2.731507771528276E-081
   57.8550000000000         3.641212660190811E-081
   58.0450000000000         4.590224004632292E-081
   58.2350000000000         5.448047816142435E-081
   58.4250000000000         6.003888607486747E-081
   58.6150000000000         5.942147839708802E-081
   58.8050000000000         4.817217068914368E-081
   58.9950000000000         2.031630295469652E-081
   59.1850000000000        -3.175594982170944E-081
   59.3750000000000        -1.171986694551978E-080
   59.5650000000000        -2.462589645870452E-080
   59.7550000000000        -4.292573222262139E-080
   59.9450000000000        -6.747333873338603E-080
   60.1350000000000        -9.864406078452766E-080
   60.3250000000000        -1.358847975869904E-079
   60.5150000000000        -1.770833730431082E-079
   60.7050000000000        -2.177371586270106E-079
   60.8950000000000        -2.499262953560682E-079
   61.0850000000000        -2.611415913642481E-079
   61.2750000000000        -2.330874337297052E-079
   61.4650000000000        -1.406812743237377E-079
   61.6550000000000         4.839351220309935E-080
   61.8450000000000         3.730571638862629E-079
   62.0350000000000         8.764116726280791E-079
   62.2250000000000         1.600624606127344E-078
   62.4150000000000         2.578066652041058E-078
   62.6050000000000         3.817603427482907E-078
   62.7950000000000         5.285082723499150E-078
   62.9850000000000         6.877499500522028E-078
   63.1750000000000         8.391196528440103E-078
   63.3650000000000         9.485912078140978E-078
   63.5550000000000         9.648648016038203E-078
   63.7450000000000         8.164283247252309E-078
   63.9350000000000         4.103578423875291E-078
   64.1250000000000        -3.656482320504829E-078
   64.3150000000000        -1.636063170420803E-077
   64.5050000000000        -3.522837691341310E-077
   64.6950000000000        -6.120709027166911E-077
   64.8850000000000        -9.460168942247216E-077
   65.0750000000000        -1.345648402033682E-076
   65.2650000000000        -1.784472839147236E-076
   65.4550000000000        -2.210345411396571E-076
   65.6450000000000        -2.537362602211529E-076
   65.8350000000000        -2.638492556188636E-076
   66.0250000000000        -2.340842781351675E-076
   66.2150000000000        -1.426260867392520E-076
   66.4050000000000         3.592179231773018E-077
   66.5950000000000         3.282863847927637E-076
   66.7850000000000         7.585110781238605E-076
   66.9750000000000         1.341746955137438E-075
   67.1650000000000         2.075545304238085E-075
   67.3550000000000         2.928615993670383E-075
   67.5450000000000         3.827471069063364E-075
   67.7350000000000         4.642049497176141E-075
   67.9250000000000         5.172335220950848E-075
   68.1150000000000         5.139120462484053E-075
   68.3050000000000         4.183360388529162E-075
   68.4950000000000         1.879870448179283E-075
   68.6850000000000        -2.227804718437299E-075
   68.8750000000000        -8.564022259810311E-075
   69.0650000000000        -1.742238987165324E-074
   69.2550000000000        -2.882721655901657E-074
   69.4450000000000        -4.235487598040315E-074
   69.6350000000000        -5.692220911606731E-074
   69.8250000000000        -7.055979549050712E-074
   70.0150000000000        -8.020219866439762E-074
   70.2050000000000        -8.154479229227094E-074
   70.3950000000000        -6.903633711447263E-074
   70.5850000000000        -3.609584014458693E-074
   70.7750000000000         2.434226567365504E-074
   70.9650000000000         1.188441647166501E-073
   71.1550000000000         2.519529964497378E-073
   71.3450000000000         4.240582888681065E-073
   71.5350000000000         6.286582595229056E-073
   71.7250000000000         8.491236727045625E-073
   71.9150000000000         1.055229436457586E-072
   72.1050000000000         1.199928339718456E-072
   72.2950000000000         1.217094840188784E-072
   72.4850000000000         1.021249013693290E-072
   72.6750000000000         5.105500684611507E-073
   72.8650000000000        -4.254248787772683E-073
   73.0550000000000        -1.891498766014851E-072
   73.2450000000000        -3.964805141620232E-072
   73.4350000000000        -6.663727361256341E-072
   73.6250000000000        -9.907689244792605E-072
   73.8150000000000        -1.346906936104134E-071
   74.0050000000000        -1.692061306711511E-071
   74.1950000000000        -1.958450517573149E-071
   74.3850000000000        -2.049268229982980E-071
   74.5750000000000        -1.837181092652838E-071
   74.7650000000000        -1.167025525611738E-071
   74.9550000000000         1.352297408020776E-072
   75.1450000000000         2.244995634597235E-071
   75.3350000000000         5.310849888989815E-071
   75.5250000000000         9.413848340444794E-071
   75.7150000000000         1.451359384380786E-070
   75.9050000000000         2.038196322642004E-070
   76.0950000000000         2.652786231797191E-070
   76.2850000000000         3.211971249989965E-070
   76.4750000000000         3.591652993534423E-070
   76.6650000000000         3.622325233657711E-070
   76.8550000000000         3.089100960873167E-070
   77.0450000000000         1.738768849916071E-070
   77.2350000000000        -7.032510000625167E-071
   77.4250000000000        -4.503098792344500E-070
   77.6150000000000        -9.873176368072434E-070
   77.8050000000000        -1.690959979727244E-069
   77.9950000000000        -2.551225651686647E-069
   78.1850000000000        -3.528981126048810E-069
   78.3750000000000        -4.545546909451647E-069
   78.5650000000000        -5.472374040374330E-069
   78.7550000000000        -6.122371861246127E-069
   78.9450000000000        -6.245014027253106E-069
   79.1350000000000        -5.527917066449746E-069
   79.3250000000000        -3.608058932385348E-069
   79.5150000000000        -9.606886561489091E-071
   79.7050000000000         5.383067787059283E-069
   79.8950000000000         1.313014788194855E-068
   80.0850000000000         2.329127518769177E-068
   80.2750000000000         3.575743879519409E-068
   80.4650000000000         5.004788793433646E-068
   80.6550000000000         6.518510578450576E-068
   80.8450000000000         7.957414027405960E-068
   81.0350000000000         9.090464443896306E-068
   81.2250000000000         9.609974606256672E-068
   81.4150000000000         9.134109637226230E-068
   81.6050000000000         7.220317434804181E-068
   81.7950000000000         3.393094112116688E-068
   81.9850000000000        -2.810813757224444E-068
   82.1750000000000        -1.177753066493925E-067
   82.3650000000000        -2.373080967952383E-067
   82.5550000000000        -3.862807892709274E-067
   82.7450000000000        -5.604259520611365E-067
   82.9350000000000        -7.504044895650873E-067
   83.1250000000000        -9.406565391660117E-067
   83.3150000000000        -1.108512428865277E-066
   83.5050000000000        -1.223786256341542E-066
   83.6950000000000        -1.249107010765220E-066
   83.8850000000000        -1.141254383092307E-066
   84.0750000000000        -8.537482300881107E-067
   84.2650000000000        -3.408817077921389E-067
   84.4550000000000         4.367205826131804E-067
   84.6450000000000         1.505102047782224E-066
   84.8350000000000         2.868832780666793E-066
   85.0250000000000         4.502294575235591E-066
   85.2150000000000         6.341251882198850E-066
   85.4050000000000         8.275855539205959E-066
   85.5950000000000         1.014646215421664E-065
   85.7850000000000         1.174377829935886E-065
   85.9750000000000         1.281478745118167E-065
   86.1650000000000         1.307561874524542E-065
   86.3550000000000         1.223190800710508E-065
   86.5450000000000         1.000624350148314E-065
   86.7350000000000         6.170982006301337E-066
   86.9250000000000         5.831262495080659E-067
   87.1150000000000        -6.783785568865154E-066
   87.3050000000000        -1.581747322522905E-065
   87.4950000000000        -2.626228867439007E-065
   87.6850000000000        -3.774037474385141E-065
   87.8750000000000        -4.980568454185689E-065
   88.0650000000000        -6.203480492240192E-065
   88.2550000000000        -7.415286098703574E-065
   88.4450000000000        -8.618420796887298E-065
   88.6350000000000        -9.860607647280867E-065
   88.8250000000000        -1.124692433904519E-064
   89.0150000000000        -1.294342441755725E-064
   89.2050000000000        -1.516565714491348E-064
   89.3950000000000        -1.814426720885176E-064
   89.5850000000000        -2.205943756387361E-064
   89.7750000000000        -2.693676635304057E-064
   89.9650000000000        -3.249981370651993E-064
   90.1550000000000        -3.797960616539477E-064
   90.3450000000000        -4.188936999150088E-064
   90.5350000000000        -4.178402097719225E-064
   90.7250000000000        -3.403847446169724E-064
   90.9150000000000        -1.369614849815116E-064
   91.1050000000000         2.554209905807863E-064
   91.2950000000000         9.110004359718019E-064
   91.4850000000000         1.909760186135634E-063
   91.6750000000000         3.327509283821161E-063
   91.8650000000000         5.220513310193479E-063
   92.0550000000000         7.603908649968093E-063
   92.2450000000000         1.042365678476050E-062
   92.4350000000000         1.352264146871871E-062
   92.6250000000000         1.660272670559326E-062
   92.8150000000000         1.918619440451500E-062
   93.0050000000000         2.058193796394668E-062
   93.1950000000000         1.986400652816704E-062
   93.3850000000000         1.587239363454676E-062
   93.5750000000000         7.248060147456789E-063
   93.7650000000000        -7.484322709112411E-063
   93.9550000000000        -2.977204192362016E-062
   94.1450000000000        -6.081590087331657E-062
   94.3350000000000        -1.012689038160282E-061
   94.5250000000000        -1.508501671095192E-061
   94.7150000000000        -2.078827389067320E-061
   94.9050000000000        -2.687787203327660E-061
   95.0950000000000        -3.275139834322237E-061
   95.2850000000000        -3.751574088899438E-061
   95.4750000000000        -3.995447387077314E-061
   95.6650000000000        -3.852127759954027E-061
   95.8550000000000        -3.137326356785030E-061
   96.0450000000000        -1.645967895153724E-061
   96.2350000000000         8.318162647381628E-062
   96.4250000000000         4.486136902054956E-061
   96.6150000000000         9.453206590547972E-061
   96.8050000000000         1.577130768177117E-060
   96.9950000000000         2.332767761191262E-060
   97.1850000000000         3.179865332024669E-060
   97.3750000000000         4.058737332951753E-060
   97.5650000000000         4.876566764937489E-060
   97.7550000000000         5.502935385547805E-060
   97.9450000000000         5.767879859598946E-060
   98.1350000000000         5.463899469647767E-060
   98.3250000000000         4.353513656214485E-060
   98.5150000000000         2.184023957064349E-060
   98.7050000000000        -1.288985440669072E-060
   98.8950000000000        -6.268236150593116E-060
   99.0850000000000        -1.287092828123348E-059
   99.2750000000000        -2.107502187219440E-059
   99.4650000000000        -3.065757933640839E-059
   99.6550000000000        -4.112895265952334E-059
   99.8450000000000        -5.166879342358748E-059
   100.035000000000        -6.107231871661166E-059
   100.225000000000        -6.771780386293372E-059
   100.415000000000        -6.956862862686996E-059
   100.605000000000        -6.422501861319675E-059
   100.795000000000        -4.904144822444903E-059
   100.985000000000        -2.132497848617316E-059
   101.175000000000         2.137298357220812E-059
   101.365000000000         8.086447525820466E-059
   101.555000000000         1.578339317210300E-058
   101.745000000000         2.512621029426480E-058
   101.935000000000         3.577945677358846E-058
   102.125000000000         4.711036791509798E-058
   102.315000000000         5.813145571928967E-058
   102.505000000000         6.745886883224556E-058
   102.695000000000         7.329806452309084E-058
   102.885000000000         7.347014606870473E-058
   103.075000000000         6.549325461859395E-058
   103.265000000000         4.673323246945154E-058
   103.455000000000         1.463590671478448E-058
   103.645000000000        -3.295071951234613E-058
   103.835000000000        -9.736279170307248E-058
   104.025000000000        -1.786235704878463E-057
   104.215000000000        -2.748840049005151E-057
   104.405000000000        -3.818377013437616E-057
   104.595000000000        -4.921653339061451E-057
   104.785000000000        -5.950831751801141E-057
   104.975000000000        -6.760897906775471E-057
   105.165000000000        -7.170217416172630E-057
   105.355000000000        -6.965404356606695E-057
   105.545000000000        -5.911745224649408E-057
   105.735000000000        -3.770314927982339E-057
   105.925000000000        -3.226429252959998E-058
   106.115000000000         4.596700650819592E-057
   106.305000000000         1.105995809518712E-056
   106.495000000000         1.899982206652587E-056
   106.685000000000         2.815944232294145E-056
   106.875000000000         3.804283982917679E-056
   107.065000000000         4.787136350375990E-056
   107.255000000000         5.655344382907902E-056
   107.445000000000         6.267636832125358E-056
   107.635000000000         6.452990410279013E-056
   107.825000000000         6.017205225793107E-056
   108.015000000000         4.754672994150242E-056
   108.205000000000         2.466141427511010E-056
   108.395000000000        -1.017056700362420E-056
   108.585000000000        -5.802361298399317E-056
   108.775000000000        -1.189970248633977E-055
   108.965000000000        -1.918127466108377E-055
   109.155000000000        -2.734016880241524E-055
   109.345000000000        -3.585190152208407E-055
   109.535000000000        -4.394416488030227E-055
   109.725000000000        -5.058133414160498E-055
   109.915000000000        -5.447125081587091E-055
   110.105000000000        -5.410234757873667E-055