  -1.42500000000000         0.000000000000000E+000
  -1.23500000000000         0.000000000000000E+000
  -1.04500000000000         0.000000000000000E+000
 -0.855000000000000         0.000000000000000E+000
 -0.665000000000000         0.000000000000000E+000
 -0.475000000000000         0.000000000000000E+000
 -0.285000000000000         0.000000000000000E+000
 -9.499999999999975E-002    0.000000000000000E+000
  9.500000000000020E-002    0.000000000000000E+000
  0.285000000000000         0.000000000000000E+000
  0.475000000000000         0.000000000000000E+000
  0.665000000000000         0.000000000000000E+000
  0.855000000000000         0.000000000000000E+000
   1.04500000000000         0.000000000000000E+000
   1.23500000000000         0.000000000000000E+000
   1.42500000000000         0.000000000000000E+000
   1.61500000000000         0.000000000000000E+000
   1.80500000000000         0.000000000000000E+000
   1.99500000000000         0.000000000000000E+000
   2.18500000000000         0.000000000000000E+000
   2.37500000000000         0.000000000000000E+000
   2.56500000000000         0.000000000000000E+000
   2.75500000000000         0.000000000000000E+000
   2.94500000000000         0.000000000000000E+000
   3.13500000000000         0.000000000000000E+000
   3.32500000000000         0.000000000000000E+000
   3.51500000000000         0.000000000000000E+000
   3.70500000000000         0.000000000000000E+000
   3.89500000000000         0.000000000000000E+000
   4.08500000000000         0.000000000000000E+000
   4.27500000000000         0.000000000000000E+000
   4.46500000000000         0.000000000000000E+000
   4.65500000000000         0.000000000000000E+000
   4.84500000000000         0.000000000000000E+000
   5.03500000000000         0.000000000000000E+000
   5.22500000000000         0.000000000000000E+000
   5.41500000000000         0.000000000000000E+000
   5.60500000000000         0.000000000000000E+000
   5.79500000000000         0.000000000000000E+000
   5.98500000000000         0.000000000000000E+000
   6.17500000000000        -1.537711795502511E-175
   6.36500000000000        -7.752220470193991E-170
   6.55500000000000        -7.272088227439649E-167
   6.74500000000000        -1.226350223379065E-163
   6.93500000000000        -9.818147137318980E-162
   7.12500000000000        -2.351481894594285E-160
   7.31500000000000         7.274091854459300E-160
   7.50500000000000         1.867608762750436E-157
   7.69500000000000         1.260999871332333E-155
   7.88500000000000        -5.005756656069796E-148
   8.07500000000000         3.200845198788500E-147
   8.26500000000000         2.038564741126242E-144
   8.45500000000000         1.057806743956242E-142
   8.64500000000000         3.072078711617471E-141
   8.83500000000000         6.227356467438807E-140
   9.02500000000000         9.668063474388513E-139
   9.21500000000000         1.211280722389938E-137
   9.40500000000000         1.266638050664602E-136
   9.59500000000000         1.131600674424104E-135
   9.78500000000000         8.782666167315052E-135
   9.97500000000000         5.993182480456683E-134
   10.1650000000000         3.625159857334592E-133
   10.3550000000000         1.952536269268045E-132
   10.5450000000000         9.367450071137230E-132
   10.7350000000000         3.980412450103901E-131
   10.9250000000000         1.473288344871277E-130
   11.1150000000000         4.551317577601579E-130
   11.3050000000000         1.025931790280688E-129
   11.4950000000000         5.397307343436877E-130
   11.6850000000000        -1.067332775042103E-128
   11.8750000000000        -7.845626831879659E-128
   12.0650000000000        -3.735104727449500E-127
   12.2550000000000        -1.402523434419729E-126
   12.4450000000000        -4.230393639963603E-126
   12.6350000000000        -9.237189836681517E-126
   12.8250000000000        -5.367887530976844E-126
   13.0150000000000         8.349422159810660E-125
   13.2050000000000         6.117335277810923E-124
   13.3950000000000         2.936813720354879E-123
   13.5850000000000         1.155397633616901E-122
   13.7750000000000         3.939556160093352E-122
   13.9650000000000         1.176465018475406E-121
   14.1550000000000         3.005562386196173E-121
   14.3450000000000         5.954793130853485E-121
   14.5350000000000         4.981926349089110E-121
   14.7250000000000        -3.085029989174223E-120
   14.9150000000000        -2.367761016655530E-119
   15.1050000000000        -1.118611663828477E-118
   15.2950000000000        -4.390058688362073E-118
   15.4850000000000        -1.544663811093874E-117
   15.6750000000000        -5.029509147863306E-117
   15.8650000000000        -1.540566431523778E-116
   16.0550000000000        -4.482449989277875E-116
   16.2450000000000        -1.246642542675932E-115
   16.4350000000000        -3.328147136390081E-115
   16.6250000000000        -8.554456228796269E-115
   16.8150000000000        -2.121454969451463E-114
   17.0050000000000        -5.083631218890891E-114
   17.1950000000000        -1.178255707755525E-113
   17.3850000000000        -2.642781277889777E-113
   17.5750000000000        -5.736893674432323E-113
   17.7650000000000        -1.204789454745957E-112
   17.9550000000000        -2.445281311943670E-112
   18.1450000000000        -4.787901285856830E-112
   18.3350000000000        -9.017094080704041E-112
   18.5250000000000        -1.625528836483911E-111
   18.7150000000000        -2.782535247546345E-111
   18.9050000000000        -4.458988390356924E-111
   19.0950000000000        -6.504388170834603E-111
   19.2850000000000        -8.073446262759773E-111
   19.4750000000000        -6.638051902553090E-111
   19.6650000000000         3.983181675139018E-111
   19.8550000000000         3.730029461286033E-110
   20.0450000000000         1.205779369589847E-109
   20.2350000000000         3.053025257266914E-109
   20.4250000000000         6.827760575498917E-109
   20.6150000000000         1.404386830088218E-108
   20.8050000000000         2.701356374566097E-108
   20.9950000000000         4.887012279987814E-108
   21.1850000000000         8.298666662930855E-108
   21.3750000000000         1.308274738917170E-107
   21.5650000000000         1.862247511202605E-107
   21.7550000000000         2.221181401268415E-107
   21.9450000000000         1.622541520581195E-107
   22.1350000000000        -1.758731183323231E-107
   22.3250000000000        -1.191173703105917E-106
   22.5150000000000        -3.704200439802744E-106
   22.7050000000000        -9.328120974562604E-106
   22.8950000000000        -2.112140426072516E-105
   23.0850000000000        -4.470812867372305E-105
   23.2750000000000        -9.015682485479598E-105
   23.4650000000000        -1.750619274523891E-104
   23.6550000000000        -3.294880657231856E-104
   23.8450000000000        -6.037307273503366E-104
   24.0350000000000        -1.080225365326985E-103
   24.2250000000000        -1.891392442988222E-103
   24.4150000000000        -3.245695115826701E-103
   24.6050000000000        -5.464600695034088E-103
   24.7950000000000        -9.033253949874953E-103
   24.9850000000000        -1.466707819202746E-102
   25.1750000000000        -2.339450974460333E-102
   25.3650000000000        -3.665148314688720E-102
   25.5550000000000        -5.637430406121532E-102
   25.7450000000000        -8.506144859254312E-102
   25.9350000000000        -1.257476755047566E-101
   26.1250000000000        -1.817901789339827E-101
   26.3150000000000        -2.562991342237833E-101
   26.5050000000000        -3.509448916023257E-101
   26.6950000000000        -4.637308258837053E-101
   26.8850000000000        -5.851237439193213E-101
   27.0750000000000        -6.916741562349565E-101
   27.2650000000000        -7.359343348906732E-101
   27.4550000000000        -6.311038642448418E-101
   27.6450000000000        -2.284351007078507E-101
   27.8350000000000         7.149117606237621E-101
   28.0250000000000         2.580029488425422E-100
   28.2150000000000         5.944655191349530E-100
   28.4050000000000         1.165701516240351E-099
   28.5950000000000         2.092412689263082E-099
   28.7850000000000         3.540944373426155E-099
   28.9750000000000         5.732782629702191E-099
   29.1650000000000         8.951503250964224E-099
   29.3550000000000         1.354329226452275E-098
   29.5450000000000         1.990489228512873E-098
   29.7350000000000         2.844975172167658E-098
   29.9250000000000         3.953913934196781E-098
   30.1150000000000         5.335996584801475E-098
   30.3050000000000         6.972506438345022E-098
   30.4950000000000         8.776493978587368E-098
   30.6850000000000         1.054729988128798E-097
   30.8750000000000         1.190599389932004E-097
   31.0650000000000         1.220688384860851E-097
   31.2550000000000         1.042029792959696E-097
   31.4450000000000         4.982723939931047E-098
   31.6350000000000        -6.387354480672638E-098
   31.8250000000000        -2.690516603831004E-097
   32.0150000000000        -6.095646105966615E-097
   32.2050000000000        -1.143325167887970E-096
   32.3950000000000        -1.944211981044880E-096
   32.5850000000000        -3.102833949733379E-096
   32.7750000000000        -4.725032956117746E-096
   32.9650000000000        -6.926444515106588E-096
   33.1550000000000        -9.820683005751638E-096
   33.3450000000000        -1.349775627188929E-095
   33.5350000000000        -1.798814707807795E-095
   33.7250000000000        -2.320667594494146E-095
   33.9150000000000        -2.886890746481404E-095
   34.1050000000000        -3.437172237906005E-095
   34.2950000000000        -3.862915619515850E-095
   34.4850000000000        -3.985532428129176E-095
   34.6750000000000        -3.528910412418509E-095
   34.8650000000000        -2.086142807676388E-095
   35.0550000000000         9.182920636853443E-096
   35.2450000000000         6.267939927652440E-095
   35.4350000000000         1.498976613607596E-094
   35.6250000000000         2.837622124824884E-094
   35.8150000000000         4.797969970858324E-094
   36.0050000000000         7.555880904996421E-094
   36.1950000000000         1.129482540459942E-093
   36.3850000000000         1.618154758301089E-093
   36.5750000000000         2.232580475405057E-093
   36.7650000000000         2.971872425872518E-093
   36.9550000000000         3.814367930496317E-093
   37.1450000000000         4.705340748503617E-093
   37.3350000000000         5.540772471284198E-093
   37.5250000000000         6.146809721166484E-093
   37.7150000000000         6.254915450101125E-093
   37.9050000000000         5.473376796630015E-093
   38.0950000000000         3.256858896785049E-093
   38.2850000000000        -1.122787262446981E-093
   38.4750000000000        -8.599113400012112E-093
   38.6650000000000        -2.031881709361479E-092
   38.8550000000000        -3.762265798895237E-092
   39.0450000000000        -6.198296060916539E-092
   39.2350000000000        -9.487578079280156E-092
   39.4250000000000        -1.375601313610802E-091
   39.6150000000000        -1.907314079597274E-091
   39.8050000000000        -2.540126406506915E-091
   39.9950000000000        -3.252474365543710E-091
   40.1850000000000        -3.995653290328454E-091
   40.3750000000000        -4.682074622452583E-091
   40.5650000000000        -5.171326718647261E-091
   40.7550000000000        -5.254760912060133E-091
   40.9450000000000        -4.640092055087700E-091
   41.1350000000000        -2.938552099423014E-091
   41.3250000000000         3.415303096529333E-092
   41.5150000000000         5.789280489004946E-091
   41.7050000000000         1.406683527746967E-090
   41.8950000000000         2.585722978871677E-090
   42.0850000000000         4.177487201024441E-090
   42.2750000000000         6.222880249263120E-090
   42.4650000000000         8.723052984195042E-090
   42.6550000000000         1.161422394760302E-089
   42.8450000000000         1.473683798141232E-089
   43.0350000000000         1.780047222472114E-089
   43.2250000000000         2.034743663620790E-089
   43.4150000000000         2.171996878444158E-089
   43.6050000000000         2.103819599142666E-089
   43.7950000000000         1.719842740279045E-089
   43.9850000000000         8.903504015850887E-090
   44.1750000000000        -5.261614458086749E-090
   44.3650000000000        -2.669574800924530E-089
   44.5550000000000        -5.657760755976328E-089
   44.7450000000000        -9.558575722702926E-089
   44.9350000000000        -1.435446214407588E-088
   45.1250000000000        -1.990114560277125E-088
   45.3150000000000        -2.588362131568532E-088
   45.5050000000000        -3.177470108038018E-088
   45.6950000000000        -3.680370921003040E-088
   45.8850000000000        -3.994522864399977E-088
   46.0750000000000        -3.993974111199898E-088
   46.2650000000000        -3.535908821591935E-088
   46.4550000000000        -2.472930070597067E-088
   46.6450000000000        -6.720815909650727E-089
   46.8350000000000         1.958928558948673E-088
   47.0250000000000         5.438730693565419E-088
   47.2150000000000         9.674245556403239E-088
   47.4050000000000         1.442102862978810E-087
   47.5950000000000         1.924757158925950E-087
   47.7850000000000         2.351156265908795E-087
   47.9750000000000         2.635868577517264E-087
   48.1650000000000         2.675697242525059E-087
   48.3550000000000         2.358158396489000E-087
   48.5450000000000         1.576559983740060E-087
   48.7350000000000         2.531123814918402E-088
   48.9250000000000        -1.628921549091144E-087
   49.1150000000000        -3.983872715562116E-087
   49.3050000000000        -6.574346539857538E-087
   49.4950000000000        -8.957282603319032E-087
   49.6850000000000        -1.043167552233783E-086
   49.8750000000000        -9.998083675005583E-087
   50.0650000000000        -6.344769422008087E-087
   50.2550000000000         2.119313627633098E-087
   50.4450000000000         1.715894244389077E-086
   50.6350000000000         4.050391729703580E-086
   50.8250000000000         7.350402188784397E-086
   51.0150000000000         1.166159017416110E-085
   51.2050000000000         1.686983049025359E-085
   51.3950000000000         2.261102360628980E-085
   51.5850000000000         2.816380896148807E-085
   51.7750000000000         3.233260940093824E-085
   51.9650000000000         3.333518627672961E-085
   52.1550000000000         2.871759693229050E-085
   52.3450000000000         1.532983254003440E-085
   52.5350000000000        -1.059332043375695E-085
   52.7250000000000        -5.319097952369868E-085
   52.9150000000000        -1.165114348664931E-084
   53.1050000000000        -2.037593456716523E-084
   53.2950000000000        -3.161988348477923E-084
   53.4850000000000        -4.516801721130493E-084
   53.6750000000000        -6.028016840890379E-084
   53.8650000000000        -7.547873624454942E-084
   54.0550000000000        -8.832574806662317E-084
   54.2450000000000        -9.521945687528479E-084
   54.4350000000000        -9.125559409993075E-084
   54.6250000000000        -7.021458848309802E-084
   54.8150000000000        -2.475168798037427E-084
   55.0050000000000         5.312080342576610E-084
   55.1950000000000         1.711647658314081E-083
   55.3850000000000         3.355730168379030E-083
   55.5750000000000         5.490868104793252E-083
   55.7650000000000         8.085544198778785E-083
   55.9550000000000         1.101982639646626E-082
   56.1450000000000         1.405233803008122E-082
   56.3350000000000         1.678651103858077E-082
   56.5250000000000         1.864051005264822E-082
   56.7150000000000         1.882694843659615E-082
   56.9050000000000         1.635028431347388E-082
   57.0950000000000         1.003138865064170E-082
   57.2850000000000        -1.430029345802477E-083
   57.4750000000000        -1.934395779642251E-082
   57.6650000000000        -4.485889892712481E-082
   57.8550000000000        -7.872207743100781E-082
   58.0450000000000        -1.209654765720755E-081
   58.2350000000000        -1.705171801485124E-081
   58.4250000000000        -2.247443598209433E-081
   58.6150000000000        -2.789429703599148E-081
   58.8050000000000        -3.257998363889247E-081
   58.9950000000000        -3.548654687750345E-081
   59.1850000000000        -3.520910338651392E-081
   59.3750000000000        -2.995012895715506E-081
   59.5650000000000        -1.750986080990389E-081
   59.7550000000000         4.687597555632800E-082
   59.9450000000000         3.951566450967303E-081
   60.1350000000000         8.999152361051861E-081
   60.3250000000000         1.590165531345782E-080
   60.5150000000000         2.489694868599139E-080
   60.7050000000000         3.610969649851848E-080
   60.8950000000000         4.946293485041359E-080
   61.0850000000000         6.455312582583309E-080
   61.2750000000000         8.047793780881899E-080
   61.4650000000000         9.560506515189394E-080
   61.6550000000000         1.072712388031444E-079
   61.8450000000000         1.114048119825752E-079
   62.0350000000000         1.020752950645686E-079
   62.2250000000000         7.099220424272117E-080
   62.4150000000000         7.007728118975785E-081
   62.6050000000000        -1.042721216283531E-079
   62.7950000000000        -2.805899685677891E-079
   62.9850000000000        -5.425747726853579E-079
   63.1750000000000        -9.123073999148412E-079
   63.3650000000000        -1.410353532517316E-078
   63.5550000000000        -2.050540384092636E-078
   63.7450000000000        -2.831610406383665E-078
   63.9350000000000        -3.724812948766243E-078
   64.1250000000000        -4.656573429735042E-078
   64.3150000000000        -5.485722828767785E-078
   64.5050000000000        -5.975528192602217E-078
   64.6950000000000        -5.762118657258486E-078
   64.8850000000000        -4.323047297087980E-078
   65.0750000000000        -9.528439652938789E-079
   65.2650000000000         5.243401128057077E-078
   65.4550000000000         1.532219098806048E-077
   65.6450000000000         3.041742307141898E-077
   65.8350000000000         5.157199786760293E-077
   66.0250000000000         7.945311728879085E-077
   66.2150000000000         1.139184762108715E-076
   66.4050000000000         1.534064674452873E-076
   66.5950000000000         1.941399136021161E-076
   66.7850000000000         2.291642887226857E-076
   66.9750000000000         2.472927009637032E-076
   67.1650000000000         2.321052142838403E-076
   67.3550000000000         1.612514644007331E-076
   67.5450000000000         6.430984181682000E-078
   67.7350000000000        -2.654334326098112E-076
   67.9250000000000        -6.891759351548702E-076
   68.1150000000000        -1.295763911597684E-075
   68.3050000000000        -2.103289470558077E-075
   68.4950000000000        -3.103915955151634E-075
   68.6850000000000        -4.246463413725275E-075
   68.8750000000000        -5.414973672506916E-075
   69.0650000000000        -6.404653188158746E-075
   69.2550000000000        -6.898118245923502E-075
   69.4450000000000        -6.446882298564902E-075
   69.6350000000000        -4.465463982958937E-075
   69.8250000000000        -2.481606560546897E-076
   70.0150000000000         6.978949976678289E-075
   70.2050000000000         1.795645143103980E-074
   70.3950000000000         3.322599244088351E-074
   70.5850000000000         5.288875921409314E-074
   70.7750000000000         7.628278637432905E-074
   70.9650000000000         1.015860530109575E-073
   71.1550000000000         1.253713074423061E-073
   71.3450000000000         1.421652340049533E-073
   71.5350000000000         1.440988482867783E-073
   71.7250000000000         1.207763129662586E-073
   71.9150000000000         5.953196798891718E-074
   72.1050000000000        -5.371631031032398E-074
   72.2950000000000        -2.327852438088312E-073
   72.4850000000000        -4.884874510770490E-073
   72.6750000000000        -8.246564216437044E-073
   72.8650000000000        -1.232868999699841E-072
   73.0550000000000        -1.685996791926276E-072
   73.2450000000000        -2.131016375155895E-072
   73.4350000000000        -2.481916007062685E-072
   73.6250000000000        -2.614047580571841E-072
   73.8150000000000        -2.361858231507530E-072
   74.0050000000000        -1.522536902697019E-072
   74.1950000000000         1.313708460880741E-073
   74.3850000000000         2.827033961950168E-072
   74.5750000000000         6.750868208098981E-072
   74.7650000000000         1.199006719221306E-071
   74.9550000000000         1.845532358246680E-071
   75.1450000000000         2.578672061441033E-071
   75.3350000000000         3.324888659669878E-071
   75.5250000000000         3.962701347037507E-071
   75.7150000000000         4.314211888686483E-071
   75.9050000000000         4.141156493186482E-071
   76.0950000000000         3.148853715265831E-071
   76.2850000000000         1.002067020142940E-071
   76.4750000000000        -2.642850070409836E-071
   76.6650000000000        -8.085337186740476E-071
   76.8550000000000        -1.550432714466720E-070
   77.0450000000000        -2.485711761808917E-070
   77.2350000000000        -3.575569723959279E-070
   77.4250000000000        -4.732779979627686E-070
   77.6150000000000        -5.807657169579410E-070
   77.8050000000000        -6.576079657603136E-070
   77.9950000000000        -6.732662484912247E-070
   78.1850000000000        -5.893077799096197E-070
   78.3750000000000        -3.610280532180445E-070
   78.5650000000000         5.901814049279660E-071
   78.7550000000000         7.150761181298227E-070
   78.9450000000000         1.639444838994427E-069
   79.1350000000000         2.840751786231957E-069
   79.3250000000000         4.289446900788834E-069
   79.5150000000000         5.901250950499118E-069
   79.7050000000000         7.520003376835880E-069
   79.8950000000000         8.902216912024413E-069
   80.0850000000000         9.706608018571272E-069
   80.2750000000000         9.492837553228052E-069
   80.4650000000000         7.734519049747763E-069
   80.6550000000000         3.852033545985632E-069
   80.8450000000000        -2.729418822499030E-069
   81.0350000000000        -1.249208472206942E-068
   81.2250000000000        -2.570595277802459E-068
   81.4150000000000        -4.227838972324475E-068
   81.6050000000000        -6.157965825446511E-068
   81.7950000000000        -8.225774892277859E-068
   81.9850000000000        -1.020643116385723E-067
   82.1750000000000        -1.177227650941776E-067
   82.3650000000000        -1.248789705901452E-067
   82.5550000000000        -1.181827951691078E-067
   82.7450000000000        -9.155359275878563E-068
   82.9350000000000        -3.868180242593651E-068
   83.1250000000000         4.619009821760695E-068
   83.3150000000000         1.671837893334495E-067
   83.5050000000000         3.254078103253272E-067
   83.6950000000000         5.173435678744318E-067
   83.8850000000000         7.331135050222206E-067
   84.0750000000000         9.548247548070714E-067
   84.2650000000000         1.155263346475600E-066
   84.4550000000000         1.297294301064644E-066
   84.6450000000000         1.334388952286515E-066
   84.8350000000000         1.212735699362826E-066
   85.0250000000000         8.753738105832896E-067
   85.2150000000000         2.686994702434917E-067
   85.4050000000000        -6.484929923377417E-067
   85.5950000000000        -1.893571851759862E-066
   85.7850000000000        -3.446791126334635E-066
   85.9750000000000        -5.237277807831777E-066
   86.1650000000000        -7.130018339573080E-066
   86.3550000000000        -8.916252328297210E-066
   86.5450000000000        -1.031030883505489E-065
   86.7350000000000        -1.095638300321626E-065
   86.9250000000000        -1.044889560923076E-065
   87.1150000000000        -8.369726960926108E-066
   87.3050000000000        -4.344580334102438E-066
   87.4950000000000         1.881166689582841E-066
   87.6850000000000         1.034964980852405E-065
   87.8750000000000         2.078718113575447E-065
   88.0650000000000         3.250165236044416E-065
   88.2550000000000         4.429738433736946E-065
   88.4450000000000         5.442963295556522E-065
   88.6350000000000         6.062568699823821E-065
   88.8250000000000         6.020230375515692E-065
   89.0150000000000         5.030871256925516E-065
   89.2050000000000         2.831897703264551E-065
   89.3950000000000        -7.614489935257841E-066
   89.5850000000000        -5.785445008804276E-065
   89.7750000000000        -1.204564815571025E-064
   89.9650000000000        -1.903055915492059E-064
   90.1550000000000        -2.583319206948091E-064
   90.3450000000000        -3.109751645962011E-064
   90.5350000000000        -3.301155340464797E-064
   90.7250000000000        -2.937278258018469E-064
   90.9150000000000        -1.775336973360175E-064
   91.1050000000000         4.208758704237800E-065
   91.2950000000000         3.837324867886064E-064
   91.4850000000000         8.550786744243451E-064
   91.6750000000000         1.445591684391221E-063
   91.8650000000000         2.118245736986361E-063
   92.0550000000000         2.801038046412349E-063
   92.2450000000000         3.379511090550681E-063
   92.4350000000000         3.691971181061439E-063
   92.6250000000000         3.529553477344875E-063
   92.8150000000000         2.643659374438535E-063
   93.0050000000000         7.634841930294202E-064
   93.1950000000000        -2.373757755568913E-063
   93.3850000000000        -6.977851000571208E-063
   93.5750000000000        -1.314489998191511E-062
   93.7650000000000        -2.078182736187304E-062
   93.9550000000000        -2.951951200584508E-062
   94.1450000000000        -3.862140355732628E-062
   94.3350000000000        -4.689851788714101E-062
   94.5250000000000        -5.264624376191618E-062
   94.7150000000000        -5.362296673712219E-062
   94.9050000000000        -4.709453150676925E-062
   95.0950000000000        -2.997119710883640E-062
   95.2850000000000         9.360297807311521E-064
   95.4750000000000         4.851614310633159E-062
   95.6650000000000         1.148005871502590E-061
   95.8550000000000         2.002461741802266E-061
   96.0450000000000         3.028782842448483E-061
   96.2350000000000         4.173425309965228E-061
   96.4250000000000         5.339484149590339E-061
   96.6150000000000         6.378293567756001E-061
   96.8050000000000         7.083870912562071E-061
   96.9950000000000         7.192302521928847E-061
   97.1850000000000         6.388508305341316E-061
   97.3750000000000         4.322999843822671E-061
   97.5650000000000         6.411678307665876E-062
   97.7550000000000        -4.972808026212954E-061
   97.9450000000000        -1.273624831775193E-060
   98.1350000000000        -2.269276786465940E-060
   98.3250000000000        -3.462400036694218E-060
   98.5150000000000        -4.795345549794750E-060
   98.7050000000000        -6.165108442391964E-060
   98.8950000000000        -7.415094647307062E-060
   99.0850000000000        -8.329834875674493E-060
   99.2750000000000        -8.634654841225137E-060
   99.4650000000000        -8.002598678700591E-060
   99.6550000000000        -6.071034026605002E-060
   99.8450000000000        -2.470257298582771E-060
   100.035000000000         3.134026252996904E-060
   100.225000000000         1.098334283079850E-059
   100.415000000000         2.115458127472058E-059
   100.605000000000         3.347591957304937E-059
   100.795000000000         4.743535168780319E-059
   100.985000000000         6.208963007507929E-059
   101.175000000000         7.598481702337837E-059
   101.365000000000         8.710313542092948E-059
   101.555000000000         9.285405908921665E-059
   101.745000000000         9.013008953525828E-059
   101.935000000000         7.544881299899933E-059
   102.125000000000         4.520190180773193E-059
   102.315000000000        -3.972057539443960E-060
   102.505000000000        -7.468142559661023E-059
   102.695000000000        -1.681442530498681E-058
   102.885000000000        -2.834384885637686E-058
   103.075000000000        -4.166794036031469E-058
   103.265000000000        -5.601894665806258E-058
   103.455000000000        -7.017545211137370E-058
   103.645000000000        -8.240898640496561E-058
   103.835000000000        -9.046676800262846E-058
   104.025000000000        -9.160792433989503E-058
   104.215000000000        -8.271163313818522E-058
   104.405000000000        -6.047505779144697E-058
   104.595000000000        -2.171607375799242E-058
   104.785000000000         3.621002135172923E-058
   104.975000000000         1.148798966264467E-057
   105.165000000000         2.141708710677117E-057
   105.355000000000         3.315591123609646E-057
   105.545000000000         4.613981683809363E-057
   105.735000000000         5.942519226190888E-057
   105.925000000000         7.163804539787864E-057
   106.115000000000         8.095004591551521E-057
   106.305000000000         8.509607278253140E-057
   106.495000000000         8.144837364655232E-057
   106.685000000000         6.716221910757155E-057
   106.875000000000         3.940593625241661E-057
   107.065000000000        -4.316059809651727E-058
   107.255000000000        -6.574558339347636E-057
   107.445000000000        -1.453666592627277E-056
   107.635000000000        -2.418365352691519E-056
   107.825000000000        -3.513890037262535E-056
   108.015000000000        -4.672654301593322E-056
   108.205000000000        -5.792480744143639E-056
   108.395000000000        -6.733888176152112E-056
   108.585000000000        -7.320419477194315E-056
   108.775000000000        -7.343192876566586E-056
   108.965000000000        -6.570862627153747E-056
   109.155000000000        -4.766047837370750E-056
   109.345000000000        -1.708993471027209E-056
   109.535000000000         2.771267986274171E-056
   109.725000000000         8.758705880594095E-056
   109.915000000000         1.620643668500639E-055
   110.105000000000         2.488980233066139E-055