  -1.42500000000000         0.000000000000000E+000
  -1.23500000000000         0.000000000000000E+000
  -1.04500000000000         0.000000000000000E+000
 -0.855000000000000         0.000000000000000E+000
 -0.665000000000000         0.000000000000000E+000
 -0.475000000000000         0.000000000000000E+000
 -0.285000000000000         0.000000000000000E+000
 -9.499999999999975E-002    0.000000000000000E+000
  9.500000000000020E-002    0.000000000000000E+000
  0.285000000000000         0.000000000000000E+000
  0.475000000000000         0.000000000000000E+000
  0.665000000000000         0.000000000000000E+000
  0.855000000000000         0.000000000000000E+000
   1.04500000000000         0.000000000000000E+000
   1.23500000000000         0.000000000000000E+000
   1.42500000000000         0.000000000000000E+000
   1.61500000000000         0.000000000000000E+000
   1.80500000000000         0.000000000000000E+000
   1.99500000000000         0.000000000000000E+000
   2.18500000000000         0.000000000000000E+000
   2.37500000000000         0.000000000000000E+000
   2.56500000000000         0.000000000000000E+000
   2.75500000000000         0.000000000000000E+000
   2.94500000000000         0.000000000000000E+000
   3.13500000000000         0.000000000000000E+000
   3.32500000000000         0.000000000000000E+000
   3.51500000000000         0.000000000000000E+000
   3.70500000000000         0.000000000000000E+000
   3.89500000000000         0.000000000000000E+000
   4.08500000000000         0.000000000000000E+000
   4.27500000000000         0.000000000000000E+000
   4.46500000000000         0.000000000000000E+000
   4.65500000000000         0.000000000000000E+000
   4.84500000000000         0.000000000000000E+000
   5.03500000000000         0.000000000000000E+000
   5.22500000000000         0.000000000000000E+000
   5.41500000000000         0.000000000000000E+000
   5.60500000000000         0.000000000000000E+000
   5.79500000000000         0.000000000000000E+000
   5.98500000000000         0.000000000000000E+000
   6.17500000000000         0.000000000000000E+000
   6.36500000000000        -5.843304822909540E-176
   6.55500000000000        -2.945843778673716E-170
   6.74500000000000        -2.763393532270371E-167
   6.93500000000000        -4.660133794684220E-164
   7.12500000000000        -3.730923546116537E-162
   7.31500000000000        -8.940291333252969E-161
   7.50500000000000         2.726845669233377E-160
   7.69500000000000         7.087973007118407E-158
   7.88500000000000         4.792072195629790E-156
   8.07500000000000        -1.902187528597725E-148
   8.26500000000000         1.216321180331699E-147
   8.45500000000000         7.744643828751123E-145
   8.64500000000000         4.019787259151751E-143
   8.83500000000000         1.168164374797514E-141
   9.02500000000000         2.370415244885898E-140
   9.21500000000000         3.685545764015609E-139
   9.40500000000000         4.626570897530623E-138
   9.59500000000000         4.850080050165645E-137
   9.78500000000000         4.346348271786903E-136
   9.97500000000000         3.385913944081376E-135
   10.1650000000000         2.320872825291409E-134
   10.3550000000000         1.411419885227958E-133
   10.5450000000000         7.651725105747711E-133
   10.7350000000000         3.700773015554943E-132
   10.9250000000000         1.589073982096959E-131
   11.1150000000000         5.968573012066345E-131
   11.3050000000000         1.888408077698296E-130
   11.4950000000000         4.495398104273247E-130
   11.6850000000000         3.939384868204306E-130
   11.8750000000000        -3.606324734732669E-129
   12.0650000000000        -2.941944347432227E-128
   12.2550000000000        -1.455403043778137E-127
   12.4450000000000        -5.623783485538193E-127
   12.6350000000000        -1.753089887563983E-126
   12.8250000000000        -4.072510486492796E-126
   13.0150000000000        -3.792887149335183E-126
   13.2050000000000         2.765529372078771E-125
   13.3950000000000         2.286658534074798E-124
   13.5850000000000         1.143644507455642E-123
   13.7750000000000         4.619176861151704E-123
   13.9650000000000         1.611395791581038E-122
   14.1550000000000         4.932484756321714E-122
   14.3450000000000         1.303253285912649E-121
   14.5350000000000         2.756069865356495E-121
   14.7250000000000         3.196385298566512E-121
   14.9150000000000        -8.967044093505549E-121
   15.1050000000000        -8.677853333434360E-120
   15.2950000000000        -4.340394763483269E-119
   15.4850000000000        -1.755000834911931E-118
   15.6750000000000        -6.303761958505048E-118
   15.8650000000000        -2.086713559679249E-117
   16.0550000000000        -6.484528635640860E-117
   16.2450000000000        -1.912002351893517E-116
   16.4350000000000        -5.385694525732629E-116
   16.6250000000000        -1.455896147017583E-115
   16.8150000000000        -3.789262819515844E-115
   17.0050000000000        -9.517425030933141E-115
   17.1950000000000        -2.310706145130123E-114
   17.3850000000000        -5.429114192564310E-114
   17.5750000000000        -1.235327500111128E-113
   17.7650000000000        -2.722931015540714E-113
   17.9550000000000        -5.813527428145764E-113
   18.1450000000000        -1.201500000092666E-112
   18.3350000000000        -2.400755231440172E-112
   18.5250000000000        -4.627995750760201E-112
   18.7150000000000        -8.577764810079035E-112
   18.9050000000000        -1.520162969143632E-111
   19.0950000000000        -2.552192069343534E-111
   19.2850000000000        -3.991830474060780E-111
   19.4750000000000        -5.620101649192247E-111
   19.6650000000000        -6.514290197030952E-111
   19.8550000000000        -4.106492612639421E-111
   20.0450000000000         7.659821755855976E-111
   20.2350000000000         4.171312343177475E-110
   20.4250000000000         1.236747815319987E-109
   20.6150000000000         3.011680253007334E-109
   20.8050000000000         6.573417769655212E-109
   20.9950000000000         1.327683447635850E-108
   21.1850000000000         2.514406443360891E-108
   21.3750000000000         4.481176779549577E-108
   21.5650000000000         7.485850451246136E-108
   21.7550000000000         1.155771732211948E-107
   21.9450000000000         1.592633977606611E-107
   22.1350000000000         1.772337510032801E-107
   22.3250000000000         9.243161279437844E-108
   22.5150000000000        -2.754122561769681E-107
   22.7050000000000        -1.315164554330664E-106
   22.8950000000000        -3.820098226510757E-106
   23.0850000000000        -9.341298173406224E-106
   23.2750000000000        -2.080918712252551E-105
   23.4650000000000        -4.360089161822869E-105
   23.6550000000000        -8.733271955443334E-105
   23.8450000000000        -1.688063565930392E-104
   24.0350000000000        -3.167503959475612E-104
   24.2250000000000        -5.792919954172934E-104
   24.4150000000000        -1.035479524283086E-103
   24.6050000000000        -1.812656139431439E-103
   24.7950000000000        -3.112027788396040E-103
   24.9850000000000        -5.245292640383922E-103
   25.1750000000000        -8.685517501366474E-103
   25.3650000000000        -1.413520634333318E-102
   25.5550000000000        -2.261308109718361E-102
   25.7450000000000        -3.555744188659501E-102
   25.9350000000000        -5.493643156234999E-102
   26.1250000000000        -8.334155857840252E-102
   26.3150000000000        -1.240166995572634E-101
   26.5050000000000        -1.807352295834402E-101
   26.6950000000000        -2.573757583661472E-101
   26.8850000000000        -3.569529434192483E-101
   27.0750000000000        -4.797227810554893E-101
   27.2650000000000        -6.197891227885317E-101
   27.4550000000000        -7.593778283139452E-101
   27.6450000000000        -8.596085912015718E-101
   27.8350000000000        -8.461831665829287E-101
   28.0250000000000        -5.879421221645419E-101
   28.2150000000000         1.342280390187317E-101
   28.4050000000000         1.671026850548280E-100
   28.5950000000000         4.563893800732067E-100
   28.7850000000000         9.622195069747990E-100
   28.9750000000000         1.801948241975145E-099
   29.1650000000000         3.140676906261631E-099
   29.3550000000000         5.203519477341551E-099
   29.5450000000000         8.287127966780276E-099
   29.7350000000000         1.276737854569047E-098
   29.9250000000000         1.909803362101738E-098
   30.1150000000000         2.779225149563823E-098
   30.3050000000000         3.937482064326298E-098
   30.4950000000000         5.428777596134932E-098
   30.6850000000000         7.272549776189496E-098
   30.8750000000000         9.436751551024365E-098
   31.0650000000000         1.179682745793111E-097
   31.2550000000000         1.407536741349560E-097
   31.4450000000000         1.575654067117795E-097
   31.6350000000000         1.596880251066939E-097
   31.8250000000000         1.332934596852235E-097
   32.0150000000000         5.744839416111578E-098
   32.2050000000000        -9.834109234150783E-098
   32.3950000000000        -3.770151696363126E-097
   32.5850000000000        -8.371416451385624E-097
   32.7750000000000        -1.556092070534996E-096
   32.9650000000000        -2.632654168463305E-096
   33.1550000000000        -4.188140986275500E-096
   33.3450000000000        -6.364513710648926E-096
   33.5350000000000        -9.317288369593430E-096
   33.7250000000000        -1.320000960031854E-095
   33.9150000000000        -1.813582522867118E-095
   34.1050000000000        -2.417019443694787E-095
   34.2950000000000        -3.119707973271401E-095
   34.4850000000000        -3.884927379110812E-095
   34.6750000000000        -4.634210295960488E-095
   34.8650000000000        -5.225913335829845E-095
   35.0550000000000        -5.426944562877513E-095
   35.2450000000000        -4.876962351629418E-095
   35.4350000000000        -3.045127390369586E-095
   35.6250000000000         8.191487800794501E-096
   35.8150000000000         7.737836683964970E-095
   36.0050000000000         1.905143466934108E-094
   36.1950000000000         3.645018412295137E-094
   36.3850000000000         6.197177120681888E-094
   36.5750000000000         9.794006493839273E-094
   36.7650000000000         1.468098292722111E-093
   36.9550000000000         2.108712171215484E-093
   37.1450000000000         2.917558106310712E-093
   37.3350000000000         3.896741655646858E-093
   37.5250000000000         5.023051645398706E-093
   37.7150000000000         6.232529349690123E-093
   37.9050000000000         7.399919516437133E-093
   38.0950000000000         8.312412532409529E-093
   38.2850000000000         8.637525897215455E-093
   38.4750000000000         7.885753372679676E-093
   38.6650000000000         5.369862805210850E-093
   38.8550000000000         1.646028771060559E-094
   39.0450000000000        -8.926747230591047E-093
   39.2350000000000        -2.338892215437679E-092
   39.4250000000000        -4.497954393185563E-092
   39.6150000000000        -7.566177207158726E-092
   39.8050000000000        -1.174574789565520E-091
   39.9950000000000        -1.721865755188500E-091
   40.1850000000000        -2.410515048472130E-091
   40.3750000000000        -3.240214005513313E-091
   40.5650000000000        -4.189703405004112E-091
   40.7550000000000        -5.205318158599272E-091
   40.9450000000000        -6.186512551586962E-091
   41.1350000000000        -6.968553139532599E-091
   41.3250000000000        -7.303162349367709E-091
   41.5150000000000        -6.838771621864485E-091
   41.7050000000000        -5.103235763545826E-091
   41.8950000000000        -1.493374216426011E-091
   42.0850000000000         4.722511556166541E-091
   42.2750000000000         1.438107714746687E-090
   42.4650000000000         2.836945650336639E-090
   42.6550000000000         4.752867848740803E-090
   42.8450000000000         7.250350750425787E-090
   43.0350000000000         1.035286628167749E-089
   43.2250000000000         1.401453019581982E-089
   43.4150000000000         1.808489220343649E-089
   43.6050000000000         2.226811833390762E-089
   43.7950000000000         2.607940668017863E-089
   43.9850000000000         2.880352074696800E-089
   44.1750000000000         2.946273820620197E-089
   44.3650000000000         2.680410725289503E-089
   44.5550000000000         1.931835396268874E-089
   44.7450000000000         5.304616380184982E-090
   44.9350000000000        -1.700423378358235E-089
   45.1250000000000        -4.924233976730337E-089
   45.3150000000000        -9.262858707411311E-089
   45.5050000000000        -1.476001007669076E-088
   45.6950000000000        -2.133724511795578E-088
   45.8850000000000        -2.874541957650231E-088
   46.0750000000000        -3.651643200267569E-088
   46.2650000000000        -4.392252119906192E-088
   46.4550000000000        -4.995288552472502E-088
   46.6450000000000        -5.331965546733077E-088
   46.8350000000000        -5.250679557039228E-088
   47.0250000000000        -4.587572694332580E-088
   47.2150000000000        -3.183961893484371E-088
   47.4050000000000        -9.113593828993496E-089
   47.5950000000000         2.296028985835106E-088
   47.7850000000000         6.402717821019260E-088
   47.9750000000000         1.123042279628852E-087
   48.1650000000000         1.641901841558486E-087
   48.3550000000000         2.139807231788375E-087
   48.5450000000000         2.538002032224305E-087
   48.7350000000000         2.738900025609597E-087
   48.9250000000000         2.634184737191203E-087
   49.1150000000000         2.119909836954961E-087
   49.3050000000000         1.120313105277598E-087
   49.4950000000000        -3.783418481909050E-088
   49.6850000000000        -2.283454283983625E-087
   49.8750000000000        -4.342378546679272E-087
   50.0650000000000        -6.082726080485746E-087
   50.2550000000000        -6.753390927042348E-087
   50.4450000000000        -5.277386901985173E-087
   50.6350000000000        -2.329927983638573E-088
   50.8250000000000         1.011410167088843E-086
   51.0150000000000         2.769853551901686E-086
   51.2050000000000         5.442814433270064E-086
   51.3950000000000         9.180389138198051E-086
   51.5850000000000         1.403500340366019E-085
   51.7750000000000         1.988263654356351E-085
   51.9650000000000         2.632139497601672E-085
   52.1550000000000         3.255000732872076E-085
   52.3450000000000         3.723408181028710E-085
   52.5350000000000         3.837534369393383E-085
   52.7250000000000         3.320862004545946E-085
   52.9150000000000         1.816277147492833E-085
   53.1050000000000        -1.106572520380792E-085
   53.2950000000000        -5.926577988029951E-085
   53.4850000000000        -1.312212824459690E-084
   53.6750000000000        -2.309042452832582E-084
   53.8650000000000        -3.602859223998034E-084
   54.0550000000000        -5.177234430125460E-084
   54.2450000000000        -6.959237650529713E-084
   54.4350000000000        -8.795573791386281E-084
   54.6250000000000        -1.042695022632708E-083
   54.8150000000000        -1.146372815374401E-083
   55.0050000000000        -1.136751436958130E-083
   55.1950000000000        -9.445137623564899E-084
   55.3850000000000        -4.863253267987800E-084
   55.5750000000000         3.306637016275418E-084
   55.7650000000000         1.600204553022656E-083
   55.9550000000000         3.403170497163479E-083
   56.1450000000000         5.787738583679833E-083
   56.3350000000000         8.743058948594343E-083
   56.5250000000000         1.216661277834052E-082
   56.7150000000000         1.582645276860067E-082
   56.9050000000000         1.932085318424706E-082
   57.0950000000000         2.203956080772074E-082
   57.2850000000000         2.313278087149090E-082
   57.4750000000000         2.149614965631580E-082
   57.6650000000000         1.578207690885035E-082
   57.8550000000000         4.449768064008376E-083
   58.0450000000000        -1.413231251493262E-082
   58.2350000000000        -4.151711303338030E-082
   58.4250000000000        -7.892884097136730E-082
   58.6150000000000        -1.269199697653388E-081
   58.8050000000000        -1.849271697081350E-081
   58.9950000000000        -2.507239075931301E-081
   59.1850000000000        -3.197760478426481E-081
   59.3750000000000        -3.845185004618831E-081
   59.5650000000000        -4.335865378798372E-081
   59.7550000000000        -4.510559715395178E-081
   59.9450000000000        -4.157736671684326E-081
   60.1350000000000        -3.008964464027605E-081
   60.3250000000000        -7.380587744846197E-082
   60.5150000000000         3.033664555086368E-081
   60.7050000000000         8.722781726192108E-081
   60.8950000000000         1.675534922452339E-080
   61.0850000000000         2.751869696934926E-080
   61.2750000000000         4.128553703833995E-080
   61.4650000000000         5.810031333670049E-080
   61.6550000000000         7.761546179605966E-080
   61.8450000000000         9.886338408189533E-080
   62.0350000000000         1.199492903494382E-079
   62.2250000000000         1.376519962064314E-079
   62.4150000000000         1.469263279616723E-079
   62.6050000000000         1.403149328916422E-079
   62.7950000000000         1.073029217428981E-079
   62.9850000000000         3.369074483588238E-080
   63.1750000000000        -9.887549187753793E-080
   63.3650000000000        -3.129860671317573E-079
   63.5550000000000        -6.348098342341179E-079
   63.7450000000000        -1.092191413086959E-078
   63.9350000000000        -1.710821788659911E-078
   64.1250000000000        -2.507620333618132E-078
   64.3150000000000        -3.480319691959227E-078
   64.5050000000000        -4.592195008549889E-078
   64.6950000000000        -5.751020405148068E-078
   64.8850000000000        -6.781800098308113E-078
   65.0750000000000        -7.393778378041499E-078
   65.2650000000000        -7.143880805119787E-078
   65.4550000000000        -5.401285949379813E-078
   65.6450000000000        -1.321448229656807E-078
   65.8350000000000         6.157334817759401E-078
   66.0250000000000         1.827591096003231E-077
   66.2150000000000         3.634951938749993E-077
   66.4050000000000         6.156493192016345E-077
   66.5950000000000         9.464397701670907E-077
   66.7850000000000         1.353380990889675E-076
   66.9750000000000         1.817264067313296E-076
   67.1650000000000         2.293093254551747E-076
   67.3550000000000         2.699263881591889E-076
   67.5450000000000         2.905848819274533E-076
   67.7350000000000         2.723701621482280E-076
   67.9250000000000         1.897201775357251E-076
   68.1150000000000         1.048330678937730E-077
   68.3050000000000        -3.026701088713945E-076
   68.4950000000000        -7.887666920226917E-076
   68.6850000000000        -1.482158171829015E-075
   68.8750000000000        -2.402422789238296E-075
   69.0650000000000        -3.539848167381644E-075
   69.2550000000000        -4.836191000738620E-075
   69.4450000000000        -6.161133100832575E-075
   69.6350000000000        -7.286006274193282E-075
   69.8250000000000        -7.858009414356971E-075
   70.0150000000000        -7.380307323494066E-075
   70.2050000000000        -5.206008423219222E-075
   70.3950000000000        -5.568557796989443E-076
   70.5850000000000         7.419868704316510E-075
   70.7750000000000         1.954087272165645E-074
   70.9650000000000         3.640732752656155E-074
   71.1550000000000         5.814357286582031E-074
   71.3450000000000         8.404842435463787E-074
   71.5350000000000         1.121663617877026E-073
   71.7250000000000         1.388059867036136E-073
   71.9150000000000         1.580613607148808E-073
   72.1050000000000         1.614281345394021E-073
   72.2950000000000         1.376491627969577E-073
   72.4850000000000         7.296974189204631E-074
   72.6750000000000        -4.797606861232085E-074
   72.8650000000000        -2.403996983325612E-073
   73.0550000000000        -5.164662884982604E-073
   73.2450000000000        -8.810784792645463E-073
   73.4350000000000        -1.326252511057500E-072
   73.6250000000000        -1.824206561948366E-072
   73.8150000000000        -2.319590591674799E-072
   74.0050000000000        -2.721712689921228E-072
   74.1950000000000        -2.898154614699667E-072
   74.3850000000000        -2.671791768407759E-072
   74.5750000000000        -1.823881709158603E-072
   74.7650000000000        -1.064618493301473E-073
   74.9550000000000         2.732343823882359E-072
   75.1450000000000         6.906561112007235E-072
   75.3350000000000         1.253129765735828E-071
   75.5250000000000         1.954113801875277E-071
   75.7150000000000         2.758956277610081E-071
   75.9050000000000         3.593514319576140E-071
   76.0950000000000         4.332595745020944E-071
   76.2850000000000         4.790078731377156E-071
   76.4750000000000         4.713381212675262E-071
   76.6650000000000         3.785795704621419E-071
   76.8550000000000         1.640953081713881E-071
   77.0450000000000        -2.105848610352117E-071
   77.2350000000000        -7.804751613160003E-071
   77.4250000000000        -1.569301356139737E-070
   77.6150000000000        -2.578931553574521E-070
   77.8050000000000        -3.776211080579913E-070
   77.9950000000000        -5.077841823463713E-070
   78.1850000000000        -6.334622824846566E-070
   78.3750000000000        -7.317211387120266E-070
   78.5650000000000        -7.706529427075135E-070
   78.7550000000000        -7.092942453247641E-070
   78.9450000000000        -4.989240178181810E-070
   79.1350000000000        -8.630520650688164E-071
   79.3250000000000         5.805616609499628E-070
   79.5150000000000         1.543684615792875E-069
   79.7050000000000         2.823037022139627E-069
   79.8950000000000         4.401285898990509E-069
   80.0850000000000         6.205879448708904E-069
   80.2750000000000         8.089796946047591E-069
   80.4650000000000         9.813157718935561E-069
   80.6550000000000         1.102891418495174E-068
   80.8450000000000         1.127693046641010E-068
   81.0350000000000         9.991735032402112E-069
   81.2250000000000         6.529938272023719E-069
   81.4150000000000         2.234729767527658E-070
   81.6050000000000        -9.535849822809287E-069
   81.7950000000000        -2.317679715994398E-068
   81.9850000000000        -4.079379441346515E-068
   82.1750000000000        -6.196123558260145E-068
   82.3650000000000        -8.552844514925265E-068
   82.5550000000000        -1.094152444068566E-067
   82.7450000000000        -1.304379073135136E-067
   82.9350000000000        -1.442056096551952E-067
   83.1250000000000        -1.451369922353695E-067
   83.3150000000000        -1.266533723325045E-067
   83.5050000000000        -8.160715228865868E-068
   83.6950000000000        -2.998404408880151E-069
   83.8850000000000         1.149834035036254E-067
   84.0750000000000         2.755847274995636E-067
   84.2650000000000         4.778168103303126E-067
   84.4550000000000         7.145847991602913E-067
   84.6450000000000         9.707886447348774E-067
   84.8350000000000         1.221652601029167E-066
   85.0250000000000         1.431628210492751E-066
   85.2150000000000         1.554294649050817E-066
   85.4050000000000         1.533734009185278E-066
   85.5950000000000         1.307867311962475E-066
   85.7850000000000         8.141767055165307E-067
   85.9750000000000        -1.913316044686303E-069
   86.1650000000000        -1.175988861459544E-066
   86.3550000000000        -2.711320285082456E-066
   86.5450000000000        -4.564164746212484E-066
   86.7350000000000        -6.629237642403315E-066
   86.9250000000000        -8.727590287434664E-066
   87.1150000000000        -1.059981797391100E-065
   87.3050000000000        -1.190808653258659E-065
   87.4950000000000        -1.225075850086993E-065
   87.6850000000000        -1.119324319054511E-065
   87.8750000000000        -8.317891573630794E-066
   88.0650000000000        -3.294114358958408E-066
   88.2550000000000         4.032736323337986E-066
   88.4450000000000         1.353889168924199E-065
   88.6350000000000         2.471599684645277E-065
   88.8250000000000         3.657665274857251E-065
   89.0150000000000         4.759287227341241E-065
   89.2050000000000         5.569396352488947E-065
   89.3950000000000         5.835408354581769E-065
   89.5850000000000         5.280045734949151E-065
   89.7750000000000         3.636939251236147E-065
   89.9650000000000         7.026994357792558E-066
   90.1550000000000        -3.594673227633676E-065
   90.3450000000000        -9.113913550623492E-065
   90.5350000000000        -1.541172948228932E-064
   90.7250000000000        -2.165830384438971E-064
   90.9150000000000        -2.657338686275950E-064
   91.1050000000000        -2.840458434315838E-064
   91.2950000000000        -2.497405855514913E-064
   91.4850000000000        -1.382274984519134E-064
   91.6750000000000         7.518931072975975E-065
   91.8650000000000         4.110973416167504E-064
   92.0550000000000         8.801226907845768E-064
   92.2450000000000         1.475491799253443E-063
   92.4350000000000         2.164336905193836E-063
   92.6250000000000         2.878440848056789E-063
   92.8150000000000         3.505567226584888E-063
   93.0050000000000         3.883031410343433E-063
   93.1950000000000         3.795691219936067E-063
   93.3850000000000         2.981003463227247E-063
   93.5750000000000         1.144107839719009E-063
   93.7650000000000        -2.014058529900495E-063
   93.9550000000000        -6.752986557792740E-063
   94.1450000000000        -1.323147309212162E-062
   94.3350000000000        -2.142911990957673E-062
   94.5250000000000        -3.105290988923521E-062
   94.7150000000000        -4.143469253910489E-062
   94.9050000000000        -5.142963724934165E-062
   95.0950000000000        -5.933061451167720E-062
   95.2850000000000        -6.281869215069947E-062
   95.4750000000000        -5.897492319499936E-062
   95.6650000000000        -4.438255777029348E-062
   95.8550000000000        -1.535070007790093E-062
   96.0450000000000         3.171098841819262E-062
   96.2350000000000         9.974304793514145E-062
   96.4250000000000         1.903011501968712E-061
   96.6150000000000         3.026434456195743E-061
   96.8050000000000         4.326763057715992E-061
   96.9950000000000         5.718305402969330E-061
   97.1850000000000         7.059838016048955E-061
   97.3750000000000         8.145938558999030E-061
   97.5650000000000         8.702577956701568E-061
   97.7550000000000         8.389582334690334E-061
   97.9450000000000         6.812910906740645E-061
   98.1350000000000         3.549807973944600E-061
   98.3250000000000        -1.810340881829926E-061
   98.5150000000000        -9.607312165493430E-061
   98.7050000000000        -2.003265397104997E-060
   98.8950000000000        -3.303472424658289E-060
   99.0850000000000        -4.821001363081682E-060
   99.2750000000000        -6.468809677414597E-060
   99.4650000000000        -8.102170202747233E-060
   99.6550000000000        -9.509797175320823E-060
   99.8450000000000        -1.040916313285714E-059
   100.035000000000        -1.044849494878227E-059
   100.225000000000        -9.218233156718310E-060
   100.415000000000        -6.274824673078847E-060
   100.605000000000        -1.179492272324491E-060
   100.795000000000         6.446024764679914E-060
   100.985000000000         1.684594136904071E-059
   101.175000000000         3.004008419321004E-059
   101.365000000000         4.572017183792450E-059
   101.555000000000         6.313927565316323E-059
   101.745000000000         8.100471429182681E-059
   101.935000000000         9.738870967656139E-059
   102.125000000000         1.096752632314465E-058
   102.315000000000         1.145654323634995E-058
   102.505000000000         1.081658813664578E-058
   102.695000000000         8.618649063678762E-059
   102.885000000000         4.427106520750794E-059
   103.075000000000        -2.152013501744445E-059
   103.265000000000        -1.140671081616878E-058
   103.455000000000        -2.343921323180822E-058
   103.645000000000        -3.807338261849080E-058
   103.835000000000        -5.475462806569516E-058
   104.025000000000        -7.245075445948962E-058
   104.215000000000        -8.956563931485527E-058
   104.405000000000        -1.038811750520000E-057
   104.595000000000        -1.125461612756051E-057
   104.785000000000        -1.121332830800371E-057
   104.975000000000        -9.878635316194801E-058
   105.165000000000        -6.847892236198737E-058
   105.355000000000        -1.740142215621754E-058
   105.545000000000         5.751354033517922E-058
   105.735000000000         1.579298818285382E-057
   105.925000000000         2.833292709304329E-057
   106.115000000000         4.301544543404770E-057
   106.305000000000         5.909394454093907E-057
   106.495000000000         7.535195309140964E-057
   106.685000000000         9.004432652662897E-057
   106.875000000000         1.008735963522869E-056
   107.065000000000         1.050185823025473E-056
   107.255000000000         9.923349362461920E-057
   107.445000000000         8.003526061302625E-057
   107.635000000000         4.399416310478267E-057
   107.825000000000        -1.186262278925145E-057
   108.015000000000        -8.953365831119371E-057
   108.205000000000        -1.894234862497977E-056
   108.395000000000        -3.096479265886519E-056
   108.585000000000        -4.453112369435779E-056
   108.775000000000        -5.878238667220359E-056
   108.965000000000        -7.243525662531081E-056
   109.155000000000        -8.375166465538784E-056
   109.345000000000        -9.054623840731966E-056
   109.535000000000        -9.024583984529124E-056
   109.725000000000        -8.001542005947780E-056
   109.915000000000        -5.696275749903368E-056
   110.105000000000        -1.843096065645356E-056