  -1.42500000000000         0.000000000000000E+000
  -1.23500000000000         0.000000000000000E+000
  -1.04500000000000         0.000000000000000E+000
 -0.855000000000000         0.000000000000000E+000
 -0.665000000000000         0.000000000000000E+000
 -0.475000000000000         0.000000000000000E+000
 -0.285000000000000         0.000000000000000E+000
 -9.499999999999975E-002    0.000000000000000E+000
  9.500000000000020E-002    0.000000000000000E+000
  0.285000000000000         0.000000000000000E+000
  0.475000000000000         0.000000000000000E+000
  0.665000000000000         0.000000000000000E+000
  0.855000000000000         0.000000000000000E+000
   1.04500000000000         0.000000000000000E+000
   1.23500000000000         0.000000000000000E+000
   1.42500000000000         0.000000000000000E+000
   1.61500000000000         0.000000000000000E+000
   1.80500000000000         0.000000000000000E+000
   1.99500000000000         0.000000000000000E+000
   2.18500000000000         0.000000000000000E+000
   2.37500000000000         0.000000000000000E+000
   2.56500000000000         0.000000000000000E+000
   2.75500000000000         0.000000000000000E+000
   2.94500000000000         0.000000000000000E+000
   3.13500000000000         0.000000000000000E+000
   3.32500000000000         0.000000000000000E+000
   3.51500000000000         0.000000000000000E+000
   3.70500000000000         0.000000000000000E+000
   3.89500000000000         0.000000000000000E+000
   4.08500000000000         0.000000000000000E+000
   4.27500000000000         0.000000000000000E+000
   4.46500000000000         0.000000000000000E+000
   4.65500000000000         0.000000000000000E+000
   4.84500000000000         0.000000000000000E+000
   5.03500000000000         0.000000000000000E+000
   5.22500000000000         0.000000000000000E+000
   5.41500000000000         0.000000000000000E+000
   5.60500000000000         0.000000000000000E+000
   5.79500000000000         0.000000000000000E+000
   5.98500000000000         0.000000000000000E+000
   6.17500000000000        -4.621793536339914E-165
   6.36500000000000         6.001149158853157E-159
   6.55500000000000         8.272822698373566E-156
   6.74500000000000         4.502821020174322E-154
   6.93500000000000        -3.791959457212271E-152
   7.12500000000000        -2.671387490886454E-150
   7.31500000000000        -7.063733802822799E-149
   7.50500000000000        -9.006952048766564E-148
   7.69500000000000        -6.567101388437492E-139
   7.88500000000000         1.481815076127364E-131
   8.07500000000000         7.440240539173019E-130
   8.26500000000000         1.847067335809785E-128
   8.45500000000000         3.054297431711787E-127
   8.64500000000000         3.822167368313020E-126
   8.83500000000000         3.886930818569003E-125
   9.02500000000000         3.347861754682819E-124
   9.21500000000000         2.494296260968759E-123
   9.40500000000000         1.617940653461139E-122
   9.59500000000000         9.097851106071684E-122
   9.78500000000000         4.368976521021579E-121
   9.97500000000000         1.731654761495543E-120
   10.1650000000000         5.162635263477246E-120
   10.3550000000000         7.284583365789808E-120
   10.5450000000000        -3.698599248874626E-119
   10.7350000000000        -3.888994266447868E-118
   10.9250000000000        -2.161371991706256E-117
   11.1150000000000        -9.146035342171700E-117
   11.3050000000000        -3.171049016325101E-116
   11.4950000000000        -9.104472046182999E-116
   11.6850000000000        -2.089729086560041E-115
   11.8750000000000        -3.299557442747492E-115
   12.0650000000000        -5.007461030259973E-116
   12.2550000000000         2.000377176673557E-114
   12.4450000000000         8.888275191025601E-114
   12.6350000000000         2.428441946131081E-113
   12.8250000000000         4.405295603987368E-113
   13.0150000000000         3.709342578159723E-113
   13.2050000000000        -3.115059412898136E-113
   13.3950000000000         2.406450725015592E-112
   13.5850000000000         4.218459712370817E-111
   13.7750000000000         2.896679472756190E-110
   13.9650000000000         1.437322555277928E-109
   14.1550000000000         5.925346257452471E-109
   14.3450000000000         2.149855786710976E-108
   14.5350000000000         7.073540705722317E-108
   14.7250000000000         2.148025062815548E-107
   14.9150000000000         6.087680095202383E-107
   15.1050000000000         1.621976041716746E-106
   15.2950000000000         4.082072179359274E-106
   15.4850000000000         9.731535934624215E-106
   15.6750000000000         2.199879565246546E-105
   15.8650000000000         4.711001477109026E-105
   16.0550000000000         9.520794499605226E-105
   16.2450000000000         1.800232561836175E-104
   16.4350000000000         3.126549034918739E-104
   16.6250000000000         4.777046346208144E-104
   16.8150000000000         5.631394150633288E-104
   17.0050000000000         1.780841398851489E-104
   17.1950000000000        -1.785830175743158E-103
   17.3850000000000        -8.153498790489075E-103
   17.5750000000000        -2.564072531013057E-102
   17.7650000000000        -6.939998189682959E-102
   17.9550000000000        -1.721715664035259E-101
   18.1450000000000        -4.020421253600759E-101
   18.3350000000000        -8.956723674148388E-101
   18.5250000000000        -1.918223641500315E-100
   18.7150000000000        -3.967450842484143E-100
   18.9050000000000        -7.947610925474170E-100
   19.0950000000000        -1.544831990786249E-099
   19.2850000000000        -2.917220788997966E-099
   19.4750000000000        -5.355858169887096E-099
   19.6650000000000        -9.563960570524392E-099
   19.8550000000000        -1.661257373952934E-098
   20.0450000000000        -2.806240904010728E-098
   20.2350000000000        -4.607100782843225E-098
   20.4250000000000        -7.342454209787568E-098
   20.6150000000000        -1.133790186652818E-097
   20.8050000000000        -1.691096143837725E-097
   20.9950000000000        -2.424375676148728E-097
   21.1850000000000        -3.313186452922378E-097
   21.3750000000000        -4.253242060524461E-097
   21.5650000000000        -4.980198659552994E-097
   21.7550000000000        -4.947564812402132E-097
   21.9450000000000        -3.139692077314845E-097
   22.1350000000000         2.202861188016477E-097
   22.3250000000000         1.396991942097038E-096
   22.5150000000000         3.670156681610592E-096
   22.7050000000000         7.725101658533914E-096
   22.8950000000000         1.455739271945199E-095
   23.0850000000000         2.555782135415489E-095
   23.2750000000000         4.258840770283580E-095
   23.4650000000000         6.802090346075934E-095
   23.6550000000000         1.046886916192063E-094
   23.8450000000000         1.556728231156864E-094
   24.0350000000000         2.238003646365341E-094
   24.2250000000000         3.106754718022886E-094
   24.4150000000000         4.149887937586953E-094
   24.6050000000000         5.297597140750858E-094
   24.7950000000000         6.380647470129690E-094
   24.9850000000000         7.067101923896715E-094
   25.1750000000000         6.772500407188684E-094
   25.3650000000000         4.537874055653027E-094
   25.5550000000000        -1.127807530179361E-094
   25.7450000000000        -1.243877768968175E-093
   25.9350000000000        -3.254487009647959E-093
   26.1250000000000        -6.573524625825268E-093
   26.3150000000000        -1.175761514946623E-092
   26.5050000000000        -1.948858459762236E-092
   26.6950000000000        -3.053966643192906E-092
   26.8850000000000        -4.568880100031893E-092
   27.0750000000000        -6.554995568505342E-092
   27.2650000000000        -9.028616690066161E-092
   27.4550000000000        -1.191629367915591E-091
   27.6450000000000        -1.499007580109778E-091
   27.8350000000000        -1.777952597532945E-091
   28.0250000000000        -1.945985084875549E-091
   28.2150000000000        -1.872022464939101E-091
   28.4050000000000        -1.362406850850537E-091
   28.5950000000000        -1.484345586564126E-092
   28.7850000000000         2.120778914862382E-091
   28.9750000000000         5.874362420801907E-091
   29.1650000000000         1.159679369205486E-090
   29.3550000000000         1.977603252153380E-090
   29.5450000000000         3.081105246813216E-090
   29.7350000000000         4.486676361248002E-090
   29.9250000000000         6.166619598294363E-090
   30.1150000000000         8.021522558502304E-090
   30.3050000000000         9.846553484656317E-090
   30.4950000000000         1.129383597381899E-089
   30.6850000000000         1.183559966941090E-089
   30.8750000000000         1.073602820328880E-089
   31.0650000000000         7.043602390893393E-090
   31.2550000000000        -3.801045966221768E-091
   31.4450000000000        -1.277549143712033E-089
   31.6350000000000        -3.132199565594074E-089
   31.8250000000000        -5.687632718355222E-089
   32.0150000000000        -8.959734155347870E-089
   32.2050000000000        -1.284570713845743E-088
   32.3950000000000        -1.706617033690750E-088
   32.5850000000000        -2.110427620276517E-088
   32.7750000000000        -2.415280912820942E-088
   32.9650000000000        -2.508626004580192E-088
   33.1550000000000        -2.248145037257827E-088
   33.3450000000000        -1.471628989155825E-088
   33.5350000000000        -1.799179282456624E-090
   33.7250000000000         2.237375873486707E-088
   33.9150000000000         5.330656605366078E-088
   34.1050000000000         9.140957375800254E-088
   34.2950000000000         1.330862016052198E-087
   34.4850000000000         1.714984660888881E-087
   34.6750000000000         1.958475404630907E-087
   34.8650000000000         1.910557391807577E-087
   35.0550000000000         1.382231228449023E-087
   35.2450000000000         1.633180306586797E-088
   35.4350000000000        -1.942620952030406E-087
   35.6250000000000        -5.060138396318717E-087
   35.8150000000000        -9.156457615558925E-087
   36.0050000000000        -1.392777627094828E-086
   36.1950000000000        -1.866195688019413E-086
   36.3850000000000        -2.209088557221838E-086
   36.5750000000000        -2.225778205059898E-086
   36.7650000000000        -1.643992257472934E-086
   36.9550000000000        -1.184607617861174E-087
   37.1450000000000         2.746637317087339E-086
   37.3350000000000         7.347469330998319E-086
   37.5250000000000         1.399319333902596E-085
   37.7150000000000         2.277319863937053E-085
   37.9050000000000         3.337433492343398E-085
   38.0950000000000         4.485063835468734E-085
   38.2850000000000         5.535955260243389E-085
   38.4750000000000         6.189512539479839E-085
   38.6650000000000         6.007015917298049E-085
   38.8550000000000         4.402484173412512E-085
   39.0450000000000         6.566577186017396E-086
   39.2350000000000        -6.032970664069029E-085
   39.4250000000000        -1.645161109850642E-084
   39.6150000000000        -3.120192204796538E-084
   39.8050000000000        -5.046303895632904E-084
   39.9950000000000        -7.367023434636591E-084
   40.1850000000000        -9.912431161549577E-084
   40.3750000000000        -1.235589590647097E-083
   40.5650000000000        -1.417201494525871E-083
   40.7550000000000        -1.460435790476783E-083
   40.9450000000000        -1.265518559099567E-083
   41.1350000000000        -7.112834582796554E-084
   41.3250000000000         3.364758709892290E-084
   41.5150000000000         2.009083785076456E-083
   41.7050000000000         4.409719909829507E-083
   41.8950000000000         7.577664821265957E-083
   42.0850000000000         1.144210743653202E-082
   42.2750000000000         1.576748558794321E-082
   42.4650000000000         2.009504025820240E-082
   42.6550000000000         2.368874146509685E-082
   42.8450000000000         2.549781290258289E-082
   43.0350000000000         2.415235164100703E-082
   43.2250000000000         1.801234603245841E-082
   43.4150000000000         5.292766533521486E-083
   43.6050000000000        -1.571294853505627E-082
   43.7950000000000        -4.629332251853038E-082
   43.9850000000000        -8.685610013867430E-082
   44.1750000000000        -1.363534285898561E-081
   44.3650000000000        -1.916329520303630E-081
   44.5550000000000        -2.467886601650170E-081
   44.7450000000000        -2.926288187312935E-081
   44.9350000000000        -3.164259082845050E-081
   45.1250000000000        -3.021587772005206E-081
   45.3150000000000        -2.314902850581343E-081
   45.5050000000000        -8.573098623423964E-082
   45.6950000000000         1.509960789113407E-081
   45.8850000000000         4.872718192159369E-081
   46.0750000000000         9.186394728577968E-081
   46.2650000000000         1.420940307564693E-080
   46.4550000000000         1.943439273328803E-080
   46.6450000000000         2.402923848188354E-080
   46.8350000000000         2.680490764705085E-080
   47.0250000000000         2.623263857418653E-080
   47.2150000000000         2.053710045980581E-080
   47.4050000000000         7.893954415157878E-081
   47.5950000000000        -1.324234955823463E-080
   47.7850000000000        -4.366377912894957E-080
   47.9750000000000        -8.278797648174801E-080
   48.1650000000000        -1.279211234118397E-079
   48.3550000000000        -1.734743549549835E-079
   48.5450000000000        -2.102555828039377E-079
   48.7350000000000        -2.250193854549032E-079
   48.9250000000000        -2.005214016121571E-079
   49.1150000000000        -1.163804730518723E-079
   49.3050000000000         4.891298875513158E-080
   49.4950000000000         3.145096726033936E-079
   49.6850000000000         6.919725148380783E-079
   49.8750000000000         1.178204198037711E-078
   50.0650000000000         1.746704476532561E-078
   50.2550000000000         2.337740674980236E-078
   50.4450000000000         2.848565385112837E-078
   50.6350000000000         3.125492401357030E-078
   50.8250000000000         2.960400159772894E-078
   51.0150000000000         2.094985731686487E-078
   51.2050000000000         2.367071139155178E-079
   51.3950000000000        -2.909361446761424E-078
   51.5850000000000        -7.588818108589689E-078
   51.7750000000000        -1.392355585461209E-077
   51.9650000000000        -2.181419117701971E-077
   52.1550000000000        -3.082247843381208E-077
   52.3450000000000        -4.004220931249486E-077
   52.5350000000000        -4.797405274489194E-077
   52.7250000000000        -5.242814002346595E-077
   52.9150000000000        -5.048732437666569E-077
   53.1050000000000        -3.857283865034969E-077
   53.2950000000000        -1.266085503723453E-077
   53.4850000000000         3.129909231381824E-077
   53.6750000000000         9.671762930640244E-077
   53.8650000000000         1.854201514620689E-076
   54.0550000000000         2.964210333235227E-076
   54.2450000000000         4.244624262912734E-076
   54.4350000000000         5.584281441101214E-076
   54.6250000000000         6.798274683826583E-076
   54.8150000000000         7.616433053913405E-076
   55.0050000000000         7.679457526502050E-076
   55.1950000000000         6.547715609141924E-076
   55.3850000000000         3.728409476689160E-076
   55.5750000000000        -1.273029756686811E-076
   55.7650000000000        -8.872257719239901E-076
   55.9550000000000        -1.929309485298434E-075
   56.1450000000000        -3.242326603602778E-075
   56.3350000000000        -4.764561227113127E-075
   56.5250000000000        -6.365972640516063E-075
   56.7150000000000        -7.831920301921483E-075
   56.9050000000000        -8.852144112446276E-075
   57.0950000000000        -9.019899287089921E-075
   57.2850000000000        -7.847183847259328E-075
   57.4750000000000        -4.802584165026736E-075
   57.6650000000000         6.219719694011580E-076
   57.8550000000000         8.810768664483386E-075
   58.0450000000000         1.988862397316575E-074
   58.2350000000000         3.355387975718737E-074
   58.4250000000000         4.889188949697279E-074
   58.6150000000000         6.419128853089437E-074
   58.8050000000000         7.679788837286273E-074
   58.9950000000000         8.305463387226974E-074
   59.1850000000000         7.838880506516128E-074
   59.3750000000000         5.761666313067834E-074
   59.5650000000000         1.553713257725735E-074
   59.7550000000000        -5.212493381930194E-074
   59.9450000000000        -1.473942165431205E-073
   60.1350000000000        -2.683593459044868E-073
   60.3250000000000        -4.072255575873179E-073
   60.5150000000000        -5.483124749536399E-073
   60.7050000000000        -6.663369478282222E-073
   60.8950000000000        -7.254696033995841E-073
   61.0850000000000        -6.797996495404487E-073
   61.2750000000000        -4.759564892928254E-073
   61.4650000000000        -5.867857360463831E-074
   61.6550000000000         6.199609688019309E-073
   61.8450000000000         1.587223495275086E-072
   62.0350000000000         2.832319199908644E-072
   62.2250000000000         4.285800204760419E-072
   62.4150000000000         5.797653937926074E-072
   62.6050000000000         7.117386230510031E-072
   62.7950000000000         7.880938963373040E-072
   62.9850000000000         7.610848104887591E-072
   63.1750000000000         5.737325238429397E-072
   63.3650000000000         1.648534452936148E-072
   63.5550000000000        -5.222273762772759E-072
   63.7450000000000        -1.526750006217465E-071
   63.9350000000000        -2.853328499012191E-071
   64.1250000000000        -4.451201256360758E-071
   64.3150000000000        -6.191691560529009E-071
   64.5050000000000        -7.846988156598126E-071
   64.6950000000000        -9.074883083760907E-071
   64.8850000000000        -9.415635564639101E-071
   65.0750000000000        -8.308378722342882E-071
   65.2650000000000        -5.135049914271031E-071
   65.4550000000000         7.007953504040246E-072
   65.6450000000000         9.655295013478895E-071
   65.8350000000000         2.188539745168528E-070
   66.0250000000000         3.705686668015467E-070
   66.2150000000000         5.413654626127103E-070
   66.4050000000000         7.119910700540488E-070
   66.5950000000000         8.529292385378092E-070
   66.7850000000000         9.242382279256713E-070
   66.9750000000000         8.772627557273453E-070
   67.1650000000000         6.589517989576550E-070
   67.3550000000000         2.194268661365823E-070
   67.5450000000000        -4.768186430959751E-070
   67.7350000000000        -1.436202206778587E-069
   67.9250000000000        -2.618692701814860E-069
   68.1150000000000        -3.919724435934247E-069
   68.3050000000000        -5.154578585938051E-069
   68.4950000000000        -6.049832230859824E-069
   68.6850000000000        -6.247809351223162E-069
   68.8750000000000        -5.330924625977534E-069
   69.0650000000000        -2.872975064329098E-069
   69.2550000000000         1.476701908127854E-069
   69.4450000000000         7.873282738532408E-069
   69.6350000000000         1.612319793974219E-068
   69.8250000000000         2.550821926825380E-068
   70.0150000000000         3.460863209606312E-068
   70.2050000000000         4.116080077101843E-068
   70.3950000000000         4.199938904026618E-068
   70.5850000000000         3.314880687791290E-068
   70.7750000000000         1.013900383087109E-068
   70.9650000000000        -3.137674307858781E-068
   71.1550000000000        -9.463518054928971E-068
   71.3450000000000        -1.803707400816723E-067
   71.5350000000000        -2.850358703983079E-067
   71.7250000000000        -3.987374959633672E-067
   71.9150000000000        -5.031101263383957E-067
   72.1050000000000        -5.694926671772081E-067
   72.2950000000000        -5.579426552993661E-067
   72.4850000000000        -4.177901176962073E-067
   72.6750000000000        -9.057425271692332E-068
   72.8650000000000         4.837216563700431E-067
   73.0550000000000         1.356271176628215E-066
   73.2450000000000         2.554208653757744E-066
   73.4350000000000         4.060485047728147E-066
   73.6250000000000         5.789414067045898E-066
   73.8150000000000         7.559683485920002E-066
   74.0050000000000         9.068091975746937E-066
   74.1950000000000         9.869049686158379E-066
   74.3850000000000         9.366813486337445E-066
   74.5750000000000         6.829274799422531E-066
   74.7650000000000         1.433520033105040E-066
   74.9550000000000        -7.646142599345870E-066
   75.1450000000000        -2.109804540784356E-065
   75.3350000000000        -3.927450958252663E-065
   75.5250000000000        -6.193438317107152E-065
   75.7150000000000        -8.793601505867846E-065
   75.9050000000000        -1.149032110422196E-064
   76.0950000000000        -1.389036612489327E-064
   76.2850000000000        -1.541991553965808E-064
   76.4750000000000        -1.531479893682475E-064
   76.6650000000000        -1.263596280868022E-064
   76.8550000000000        -6.321604983936388E-065
   77.0450000000000         4.712182045566693E-065
   77.2350000000000         2.141166816783279E-064
   77.4250000000000         4.435962186538353E-064
   77.6150000000000         7.348285282805944E-064
   77.8050000000000         1.077027553006860E-063
   77.9950000000000         1.445523090501577E-063
   78.1850000000000         1.798004912791987E-063
   78.3750000000000         2.071453871996800E-063
   78.5650000000000         2.180588313030241E-063
   78.7550000000000         2.018855353547796E-063
   78.9450000000000         1.463146262755399E-063
   79.1350000000000         3.834649446904257E-064
   79.3250000000000        -1.341329111694113E-063
   79.5150000000000        -3.800909835503004E-063
   79.7050000000000        -7.023821113216571E-063
   79.8950000000000        -1.094151707692152E-062
   80.0850000000000        -1.534816068753306E-062
   80.2750000000000        -1.985987830746017E-062
   80.4650000000000        -2.387908701448991E-062
   80.6550000000000        -2.657156462941948E-062
   80.8450000000000        -2.686589090779254E-062
   81.0350000000000        -2.348642739324544E-062
   81.2250000000000        -1.503170351200613E-062
   81.4150000000000        -1.094379756459644E-064
   81.6050000000000         2.246309944914447E-062
   81.7950000000000         5.338962988096322E-062
   81.9850000000000         9.256038315165579E-062
   82.1750000000000         1.386676363398792E-061
   82.3650000000000         1.888003892868600E-061
   82.5550000000000         2.380639706951666E-061
   82.7450000000000         2.792885754350293E-061
   82.9350000000000         3.029086934748921E-061
   83.1250000000000         2.971105506867629E-061
   83.3150000000000         2.483537094729451E-061
   83.5050000000000         1.423718605996823E-061
   83.6950000000000        -3.425788081109117E-062
   83.8850000000000        -2.919226887495543E-061
   84.0750000000000        -6.351621754572993E-061
   84.2650000000000        -1.059324091827006E-060
   84.4550000000000        -1.546884645521930E-060
   84.6450000000000        -2.063763966909695E-060
   84.8350000000000        -2.556117198844248E-060
   85.0250000000000        -2.948235860290519E-060
   85.2150000000000        -3.142334388391035E-060
   85.4050000000000        -3.021098863005534E-060
   85.5950000000000        -2.453909040443470E-060
   85.7850000000000        -1.307576990568014E-060
   85.9750000000000         5.377597318671578E-061
   86.1650000000000         3.167328680091448E-060
   86.3550000000000         6.605308200040922E-060
   86.5450000000000         1.078440151231043E-059
   86.7350000000000         1.551347447338826E-059
   86.9250000000000         2.044647651222748E-059
   87.1150000000000         2.505709679306546E-059
   87.3050000000000         2.862481265059026E-059
   87.4950000000000         3.023900377120497E-059
   87.6850000000000         2.882842850269732E-059
   87.8750000000000         2.322334618233464E-059
   88.0650000000000         1.225665703791676E-059
   88.2550000000000        -5.091645021253026E-060
   88.4450000000000        -2.950588303137178E-059
   88.6350000000000        -6.110617198372402E-059
   88.8250000000000        -9.919077165004641E-059
   89.0150000000000        -1.419681888351672E-058
   89.2050000000000        -1.863070310037030E-058
   89.3950000000000        -2.275411618529393E-058
   89.5850000000000        -2.593767070168676E-058
   89.7750000000000        -2.739546081417172E-058
   89.9650000000000        -2.621261243781237E-058
   90.1550000000000        -2.139970918042396E-058
   90.3450000000000        -1.197879161229048E-058
   90.5350000000000         2.896169954181769E-059
   90.7250000000000         2.378429805397014E-058
   90.9150000000000         5.077233141430522E-058
   91.1050000000000         8.326785622211702E-058
   91.2950000000000         1.197866809785123E-057
   91.4850000000000         1.577567330666078E-057
   91.6750000000000         1.933679921180327E-057
   91.8650000000000         2.215045590946156E-057
   92.0550000000000         2.358000113282385E-057
   92.2450000000000         2.288595230448622E-057
   92.4350000000000         1.926904925072268E-057
   92.6250000000000         1.193762020708681E-057
   92.8150000000000         2.013010506754242E-059
   93.0050000000000        -1.640903438430673E-057
   93.1950000000000        -3.799831710585223E-057
   93.3850000000000        -6.414836274809798E-057
   93.5750000000000        -9.375465730157657E-057
   93.7650000000000        -1.248756102910697E-056
   93.9550000000000        -1.546162314523892E-056
   94.1450000000000        -1.790729372632000E-056
   94.3350000000000        -1.933697923445639E-056
   94.5250000000000        -1.918180869657952E-056
   94.7150000000000        -1.682297921144960E-056
   94.9050000000000        -1.164101293162037E-056
   95.0950000000000        -3.084431761739988E-057
   95.2850000000000         9.242222098908584E-057
   95.4750000000000         2.547326949769058E-056
   95.6650000000000         4.536469603783864E-056
   95.8550000000000         6.817315524622364E-056
   96.0450000000000         9.254305818969715E-056
   96.2350000000000         1.164172976118140E-055
   96.4250000000000         1.369904972637291E-055
   96.6150000000000         1.507262092121882E-055
   96.8050000000000         1.534606188547520E-055
   96.9950000000000         1.406144091387346E-055
   97.1850000000000         1.075308141379714E-055
   97.3750000000000         4.995093885794116E-056
   97.5650000000000        -3.537334648516058E-056
   97.7550000000000        -1.499434581986099E-055
   97.9450000000000        -2.926883975036254E-055
   98.1350000000000        -4.591047476830797E-055
   98.3250000000000        -6.404421840052104E-055
   98.5150000000000        -8.230390558657066E-055
   98.7050000000000        -9.879351929872811E-055
   98.8950000000000        -1.110906299106721E-054
   99.0850000000000        -1.163072308650238E-054
   99.2750000000000        -1.112226685448433E-054
   99.4650000000000        -9.250105531427175E-055
   99.6550000000000        -5.700108400671505E-055
   99.8450000000000        -2.179228359314964E-056
   100.035000000000         7.342222841804987E-055
   100.225000000000         1.696229642407447E-054
   100.415000000000         2.840230323058100E-054
   100.605000000000         4.114423855842788E-054
   100.795000000000         5.434478528575692E-054
   100.985000000000         6.680484486286346E-054
   101.175000000000         7.696511070891987E-054
   101.365000000000         8.293744578548774E-054
   101.555000000000         8.258155417292723E-054
   101.745000000000         7.363508063496289E-054
   101.935000000000         5.390259701354912E-054
   102.125000000000         2.150476100242738E-054
   102.315000000000        -2.481682295332146E-054
   102.505000000000        -8.535079820338668E-054
   102.695000000000        -1.590436554754194E-053
   102.885000000000        -2.431335453936184E-053
   103.075000000000        -3.328297606299081E-053
   103.265000000000        -4.210862606531303E-053
   103.455000000000        -4.985246378649212E-053
   103.645000000000        -5.535657069749212E-053
   103.835000000000        -5.728279667148165E-053
   104.025000000000        -5.418440506579913E-053
   104.215000000000        -4.461316044896607E-053
   104.405000000000        -2.726317701310574E-053
   104.595000000000        -1.149611655866051E-054
   104.785000000000         3.418383275922086E-053
   104.975000000000         7.843951111559486E-053
   105.165000000000         1.303388751484183E-052
   105.355000000000         1.874158516834288E-052
   105.545000000000         2.458577044774639E-052
   105.735000000000         3.004248040230682E-052
   105.925000000000         3.444833161174724E-052
   106.115000000000         3.701849122715008E-052
   106.305000000000         3.688243913618084E-052
   106.495000000000         3.313988353337137E-052
   106.685000000000         2.493800132737620E-052
   106.875000000000         1.156948736104755E-052
   107.065000000000        -7.411282164447062E-053
   107.255000000000        -3.205928172568513E-052
   107.445000000000        -6.190531130710625E-052
   107.635000000000        -9.582924117465606E-052
   107.825000000000        -1.319543253174118E-051
   108.015000000000        -1.675794276682209E-051
   108.205000000000        -1.991677484094406E-051
   108.395000000000        -2.224111625226450E-051
   108.585000000000        -2.323881600961192E-051
   108.775000000000        -2.238302021922642E-051
   108.965000000000        -1.915057407481794E-051
   109.155000000000        -1.307229811610006E-051
   109.345000000000        -3.794165580954829E-052
   109.535000000000         8.852917393430983E-052
   109.725000000000         2.477854711867621E-051
   109.915000000000         4.355892485066539E-051
   110.105000000000         6.437070679866200E-051