  -1.42500000000000         0.000000000000000E+000
  -1.23500000000000         0.000000000000000E+000
  -1.04500000000000         0.000000000000000E+000
 -0.855000000000000         0.000000000000000E+000
 -0.665000000000000         0.000000000000000E+000
 -0.475000000000000         0.000000000000000E+000
 -0.285000000000000         0.000000000000000E+000
 -9.499999999999975E-002    0.000000000000000E+000
  9.500000000000020E-002    0.000000000000000E+000
  0.285000000000000         0.000000000000000E+000
  0.475000000000000         0.000000000000000E+000
  0.665000000000000         0.000000000000000E+000
  0.855000000000000         0.000000000000000E+000
   1.04500000000000         0.000000000000000E+000
   1.23500000000000         0.000000000000000E+000
   1.42500000000000         0.000000000000000E+000
   1.61500000000000         0.000000000000000E+000
   1.80500000000000         0.000000000000000E+000
   1.99500000000000         0.000000000000000E+000
   2.18500000000000         0.000000000000000E+000
   2.37500000000000         0.000000000000000E+000
   2.56500000000000         0.000000000000000E+000
   2.75500000000000         0.000000000000000E+000
   2.94500000000000         0.000000000000000E+000
   3.13500000000000         0.000000000000000E+000
   3.32500000000000         0.000000000000000E+000
   3.51500000000000         0.000000000000000E+000
   3.70500000000000         0.000000000000000E+000
   3.89500000000000         0.000000000000000E+000
   4.08500000000000         0.000000000000000E+000
   4.27500000000000         0.000000000000000E+000
   4.46500000000000         0.000000000000000E+000
   4.65500000000000         0.000000000000000E+000
   4.84500000000000         0.000000000000000E+000
   5.03500000000000         0.000000000000000E+000
   5.22500000000000         0.000000000000000E+000
   5.41500000000000         0.000000000000000E+000
   5.60500000000000         0.000000000000000E+000
   5.79500000000000         0.000000000000000E+000
   5.98500000000000         0.000000000000000E+000
   6.17500000000000         0.000000000000000E+000
   6.36500000000000        -1.668467466618709E-166
   6.55500000000000         2.166411509411056E-160
   6.74500000000000         2.990821818800146E-157
   6.93500000000000         1.685313160543839E-155
   7.12500000000000        -1.335490183024633E-153
   7.31500000000000        -9.912492191865568E-152
   7.50500000000000        -2.746922256473317E-150
   7.69500000000000        -3.790981648707528E-149
   7.88500000000000        -2.370723608533204E-140
   8.07500000000000         5.349351950675062E-133
   8.26500000000000         2.792913876025685E-131
   8.45500000000000         7.221146505527786E-130
   8.64500000000000         1.244231389082485E-128
   8.83500000000000         1.621427551271969E-127
   9.02500000000000         1.715025221866979E-126
   9.21500000000000         1.535368862301174E-125
   9.40500000000000         1.190364470451287E-124
   9.59500000000000         8.067957813667169E-124
   9.78500000000000         4.778879364980183E-123
   9.97500000000000         2.452296818948154E-122
   10.1650000000000         1.067797939039720E-121
   10.3550000000000         3.754077526299911E-121
   10.5450000000000         9.070091708610222E-121
   10.7350000000000         1.034162602483153E-121
   10.9250000000000        -1.473944595224120E-119
   11.1150000000000        -1.076078370653265E-118
   11.3050000000000        -5.306481040308102E-118
   11.4950000000000        -2.098437065889656E-117
   11.6850000000000        -6.952940436420564E-117
   11.8750000000000        -1.935136580943322E-116
   12.0650000000000        -4.366119355076433E-116
   12.2550000000000        -6.977871472401928E-116
   12.4450000000000        -2.368261981935886E-116
   12.6350000000000         3.432802094813256E-115
   12.8250000000000         1.586910581335330E-114
   13.0150000000000         4.420852666228776E-114
   13.2050000000000         8.593867421837892E-114
   13.3950000000000         1.164234572939079E-113
   13.5850000000000         2.337811115424995E-113
   13.7750000000000         1.874002721956955E-112
   13.9650000000000         1.397123722902125E-111
   14.1550000000000         7.795581598161877E-111
   14.3450000000000         3.558453946282505E-110
   14.5350000000000         1.409832912277544E-109
   14.7250000000000         5.017368624692594E-109
   14.9150000000000         1.637927481387177E-108
   15.1050000000000         4.971770614673155E-108
   15.2950000000000         1.416094725855658E-107
   15.4850000000000         3.808640446992699E-107
   15.6750000000000         9.714270640529082E-107
   15.8650000000000         2.356146606460550E-106
   16.0550000000000         5.441537682104551E-106
   16.2450000000000         1.196393557210604E-105
   16.4350000000000         2.498517301033611E-105
   16.6250000000000         4.929325246462283E-105
   16.8150000000000         9.084646922872098E-105
   17.0050000000000         1.527290188766052E-104
   17.1950000000000         2.210404059743435E-104
   17.3850000000000         2.248833237277536E-104
   17.5750000000000        -6.561506485549176E-105
   17.7650000000000        -1.281743637134451E-103
   17.9550000000000        -5.003211555888958E-103
   18.1450000000000        -1.494007302181075E-102
   18.3350000000000        -3.939065521323127E-102
   18.5250000000000        -9.617500986832748E-102
   18.7150000000000        -2.222072379815850E-101
   18.9050000000000        -4.914644415085202E-101
   19.0950000000000        -1.047630399445073E-100
   19.2850000000000        -2.161480706055462E-100
   19.4750000000000        -4.328447717494116E-100
   19.6650000000000        -8.428879528262011E-100
   19.8550000000000        -1.598190110498921E-099
   20.0450000000000        -2.953206180168650E-099
   20.2350000000000        -5.321275216186252E-099
   20.4250000000000        -9.352507634810258E-099
   20.6150000000000        -1.603436602316758E-098
   20.8050000000000        -2.680920698534157E-098
   20.9950000000000        -4.368890502676975E-098
   21.1850000000000        -6.932059925909482E-098
   21.3750000000000        -1.069128965864697E-097
   21.5650000000000        -1.598593977523379E-097
   21.7550000000000        -2.307844160791924E-097
   21.9450000000000        -3.195701433788185E-097
   22.1350000000000        -4.196901590775514E-097
   22.3250000000000        -5.118578458875446E-097
   22.5150000000000        -5.535941235878349E-097
   22.7050000000000        -4.628377450819827E-097
   22.8950000000000        -9.320519670305635E-098
   23.0850000000000         8.019492288480865E-097
   23.2750000000000         2.619741005284221E-096
   23.4650000000000         5.974974299792728E-096
   23.6550000000000         1.178576220923465E-095
   23.8450000000000         2.137581188612991E-095
   24.0350000000000         3.658565047750145E-095
   24.2250000000000         5.987468223225187E-095
   24.4150000000000         9.437909851906492E-095
   24.6050000000000         1.438646102605669E-094
   24.7950000000000         2.124744476801794E-094
   24.9850000000000         3.041184224669601E-094
   25.1750000000000         4.212746351990080E-094
   25.3650000000000         5.628795744010070E-094
   25.5550000000000         7.208662389439134E-094
   25.7450000000000         8.747815183028724E-094
   25.9350000000000         9.837928102020802E-094
   26.1250000000000         9.753171210529968E-094
   26.3150000000000         7.295371929116213E-094
   26.5050000000000         5.930735787451500E-095
   26.6950000000000        -1.314460381136758E-093
   26.8850000000000        -3.790710078340671E-093
   27.0750000000000        -7.916325491656096E-093
   27.2650000000000        -1.440829430520195E-092
   27.4550000000000        -2.415959374386169E-092
   27.6450000000000        -3.821267520069671E-092
   27.8350000000000        -5.767717402172805E-092
   28.0250000000000        -8.356008171985330E-092
   28.2150000000000        -1.164679955743793E-091
   28.4050000000000        -1.561339105273354E-091
   28.5950000000000        -2.007181142118620E-091
   28.7850000000000        -2.458381666531382E-091
   28.9750000000000        -2.833022072117612E-091
   29.1650000000000        -2.995597994312894E-091
   29.3550000000000        -2.739529664224995E-091
   29.5450000000000        -1.769546560109726E-091
   29.7350000000000         3.127155381051145E-092
   29.9250000000000         4.014667802730483E-091
   30.1150000000000         9.942769742340116E-091
   30.3050000000000         1.876664132556908E-090
   30.4950000000000         3.114511871675897E-090
   30.6850000000000         4.760067089449753E-090
   30.8750000000000         6.832887455289341E-090
   31.0650000000000         9.293278439267657E-090
   31.2550000000000         1.200794346955722E-089
   31.4450000000000         1.470888672390873E-089
   31.6350000000000         1.694863473738019E-089
   31.8250000000000         1.805765870767219E-089
   32.0150000000000         1.711344726663796E-089
   32.2050000000000         1.293477179552314E-089
   32.3950000000000         4.118796047425197E-090
   32.5850000000000        -1.085806719229637E-089
   32.7750000000000        -3.345357414121614E-089
   32.9650000000000        -6.476824518541953E-089
   33.1550000000000        -1.051390561061574E-088
   33.3450000000000        -1.536256706113960E-088
   33.5350000000000        -2.074248657674872E-088
   33.7250000000000        -2.612890112956751E-088
   33.9150000000000        -3.070762299205759E-088
   34.1050000000000        -3.336197782001052E-088
   34.2950000000000        -3.271644703529957E-088
   34.4850000000000        -2.726650437264017E-088
   34.6750000000000        -1.562546708417192E-088
   34.8650000000000         3.085666415013893E-089
   35.0550000000000         2.869391209862508E-088
   35.2450000000000         5.929201251693722E-088
   35.4350000000000         9.047969102592723E-088
   35.6250000000000         1.146545078980874E-087
   35.8150000000000         1.205622251595371E-087
   36.0050000000000         9.341513042881898E-088
   36.1950000000000         1.598876335997760E-088
   36.3850000000000        -1.288072680463646E-087
   36.5750000000000        -3.533513963684153E-087
   36.7650000000000        -6.582461178931280E-087
   36.9550000000000        -1.022488959912614E-086
   37.1450000000000        -1.391008235432579E-086
   37.3350000000000        -1.660373903805690E-086
   37.5250000000000        -1.664495929329763E-086
   37.7150000000000        -1.163463675314998E-086
   37.9050000000000         1.596810495810429E-087
   38.0950000000000         2.687639265213050E-086
   38.2850000000000         6.834705525449270E-086
   38.4750000000000         1.298025163463335E-085
   38.6650000000000         2.136021177056966E-085
   38.8550000000000         3.190870465265055E-085
   39.0450000000000         4.404649432133336E-085
   39.2350000000000         5.642133742643142E-085
   39.4250000000000         6.661827812180055E-085
   39.6150000000000         7.087618721060884E-085
   39.8050000000000         6.387020244010167E-085
   39.9950000000000         3.864706060635966E-085
   40.1850000000000        -1.317103582642041E-085
   40.3750000000000        -1.007730087523944E-084
   40.5650000000000        -2.329797659007287E-084
   40.7550000000000        -4.163474970014468E-084
   40.9450000000000        -6.524369601383768E-084
   41.1350000000000        -9.342116432588014E-084
   41.3250000000000        -1.241663659223121E-083
   41.5150000000000        -1.536968896244730E-083
   41.7050000000000        -1.759746208625079E-083
   41.8950000000000        -1.823332632260582E-083
   42.0850000000000        -1.613365355848385E-083
   42.2750000000000        -9.903380009773811E-084
   42.4650000000000         2.018955836183720E-084
   42.6550000000000         2.119560121535232E-083
   42.8450000000000         4.892388226342087E-083
   43.0350000000000         8.585687376932186E-083
   43.2250000000000         1.315088642176264E-082
   43.4150000000000         1.836633115836484E-082
   43.6050000000000         2.377284476682717E-082
   43.7950000000000         2.861212093317396E-082
   43.9850000000000         3.178020815660181E-082
   44.1750000000000         3.181279016502352E-082
   44.3650000000000         2.692301340135142E-082
   44.5550000000000         1.511528706938322E-082
   44.7450000000000        -5.601509894542100E-083
   44.9350000000000        -3.688220721466711E-082
   45.1250000000000        -7.958587982386276E-082
   45.3150000000000        -1.331974842899972E-081
   45.5050000000000        -1.951658880467303E-081
   45.6950000000000        -2.602291804065195E-081
   45.8850000000000        -3.198415143176092E-081
   46.0750000000000        -3.618633355550035E-081
   46.2650000000000        -3.707222718222316E-081
   46.4550000000000        -3.282852629863741E-081
   46.6450000000000        -2.156900963833469E-081
   46.8350000000000        -1.634937886072004E-082
   47.0250000000000         2.797570552677603E-081
   47.2150000000000         6.705633146490541E-081
   47.4050000000000         1.135508506690247E-080
   47.5950000000000         1.628950874170159E-080
   47.7850000000000         2.074588359744845E-080
   47.9750000000000         2.362599602664023E-080
   48.1650000000000         2.351746250484090E-080
   48.3550000000000         1.879097642787417E-080
   48.5450000000000         7.802066137032517E-081
   48.7350000000000        -1.077707069303128E-080
   48.9250000000000        -3.747940733801707E-080
   49.1150000000000        -7.142056658120177E-080
   49.3050000000000        -1.095630609015590E-079
   49.4950000000000        -1.459397963278560E-079
   49.6850000000000        -1.709627325731706E-079
   49.8750000000000        -1.710054610328305E-079
   50.0650000000000        -1.285150179433290E-079
   50.2550000000000        -2.296854325100203E-080
   50.4450000000000         1.669703698081114E-079
   50.6350000000000         4.597424932697982E-079
   50.8250000000000         8.653448924204741E-079
   51.0150000000000         1.377817737338951E-078
   51.2050000000000         1.965919567171311E-078
   51.3950000000000         2.562566523816020E-078
   51.5850000000000         3.054185532232642E-078
   51.7750000000000         3.271848206929177E-078
   51.9650000000000         2.986870515274215E-078
   52.1550000000000         1.914400522128841E-078
   52.3450000000000        -2.707609424771482E-079
   52.5350000000000        -3.901446163264202E-078
   52.7250000000000        -9.263994688141852E-078
   52.9150000000000        -1.651919906786663E-077
   53.1050000000000        -2.559699585758903E-077
   53.2950000000000        -3.606727212258906E-077
   53.4850000000000        -4.699460525443326E-077
   53.6750000000000        -5.679204115374861E-077
   53.8650000000000        -6.309797063510284E-077
   54.0550000000000        -6.271023264867640E-077
   54.2450000000000        -5.162169535927076E-077
   54.4350000000000        -2.521006448075017E-077
   54.6250000000000         2.136082240014582E-077
   54.8150000000000         9.247348088965575E-077
   55.0050000000000         1.910814627037931E-076
   55.1950000000000         3.174122861886028E-076
   55.3850000000000         4.673803630224150E-076
   55.5750000000000         6.308079980670748E-076
   55.7650000000000         7.896399956900952E-076
   55.9550000000000         9.164431429466596E-076
   56.1450000000000         9.735982177839506E-076
   56.3350000000000         9.137053022311815E-076
   56.5250000000000         6.818117263796281E-076
   56.7150000000000         2.201065382054453E-076
   56.9050000000000        -5.243309728681032E-076
   57.0950000000000        -1.588330886400962E-075
   57.2850000000000        -2.977949164197768E-075
   57.4750000000000        -4.650850778880635E-075
   57.6650000000000        -6.497125681920968E-075
   57.8550000000000        -8.320947396865918E-075
   58.0450000000000        -9.826700363023019E-075
   58.2350000000000        -1.061447400374883E-074
   58.4250000000000        -1.019095258524019E-074
   58.6150000000000        -8.002433955890822E-075
   58.8050000000000        -3.496609810576170E-075
   58.9950000000000         3.781618104998825E-075
   59.1850000000000         1.405811830336276E-074
   59.3750000000000         2.716445436457901E-074
   59.5650000000000         4.235075196481276E-074
   59.7550000000000         5.809794005108550E-074
   59.9450000000000         7.196341802648143E-074
   60.1350000000000         8.050796478467070E-074
   60.3250000000000         7.936473915570801E-074
   60.5150000000000         6.352067089784312E-074
   60.7050000000000         2.788252229415187E-074
   60.8950000000000        -3.181039012613821E-074
   61.0850000000000        -1.176927552291533E-073
   61.2750000000000        -2.281158876805786E-073
   61.4650000000000        -3.557210493954748E-073
   61.6550000000000        -4.854445076174984E-073
   61.8450000000000        -5.927873748657725E-073
   62.0350000000000        -6.428314739346160E-073
   62.2250000000000        -5.906288498867572E-073
   62.4150000000000        -3.837088384470475E-073
   62.6050000000000         3.250648015179361E-074
   62.7950000000000         7.056594416720473E-073
   62.9850000000000         1.663314299770067E-072
   63.1750000000000         2.895720774454529E-072
   63.3650000000000         4.335244690246293E-072
   63.5550000000000         5.834280699789050E-072
   63.7450000000000         7.144792626495711E-072
   63.9350000000000         7.904147800957867E-072
   64.1250000000000         7.633451387276622E-072
   64.3150000000000         5.755871320049142E-072
   64.5050000000000         1.643090599470692E-072
   64.6950000000000        -5.302452845639681E-072
   64.8850000000000        -1.552402908398775E-071
   65.0750000000000        -2.914464976117052E-071
   65.2650000000000        -4.576459515711908E-071
   65.4550000000000        -6.423829357211947E-071
   65.6450000000000        -8.245900486562402E-071
   65.8350000000000        -9.719415465926267E-071
   66.0250000000000        -1.040286759728429E-070
   66.2150000000000        -9.748566841488737E-071
   66.4050000000000        -7.139936765661297E-071
   66.5950000000000        -1.961018926938742E-071
   66.7850000000000         6.296973462905304E-071
   66.9750000000000         1.789146585556103E-070
   67.1650000000000         3.265287679639246E-070
   67.3550000000000         4.979310373146103E-070
   67.5450000000000         6.772546165328266E-070
   67.7350000000000         8.393650427352784E-070
   67.9250000000000         9.496285692730231E-070
   68.1150000000000         9.653572892752512E-070
   68.3050000000000         8.395839571402529E-070
   68.4950000000000         5.277303380528916E-070
   68.6850000000000        -2.522224568510447E-072
   68.8750000000000        -7.583207047690675E-070
   69.0650000000000        -1.706565563967413E-069
   69.2550000000000        -2.758524822988040E-069
   69.4450000000000        -3.757175143125251E-069
   69.6350000000000        -4.471599956401444E-069
   69.8250000000000        -4.603977324052942E-069
   70.0150000000000        -3.815507976120479E-069
   70.2050000000000        -1.777667009520136E-069
   70.3950000000000         1.746078864913969E-069
   70.5850000000000         6.786002683701694E-069
   70.7750000000000         1.302259843078206E-068
   70.9650000000000         1.962521221615689E-068
   71.1550000000000         2.509512557639469E-068
   71.3450000000000         2.714870891880313E-068
   71.5350000000000         2.269090854426320E-068
   71.7250000000000         7.943313248344377E-069
   71.9150000000000        -2.119870565185202E-068
   72.1050000000000        -6.850300011286452E-068
   72.2950000000000        -1.363659798589743E-067
   72.4850000000000        -2.243706894613910E-067
   72.6750000000000        -3.274576223126410E-067
   72.8650000000000        -4.338142856869718E-067
   73.0550000000000        -5.227085972663441E-067
   73.2450000000000        -5.626415193694379E-067
   73.4350000000000        -5.103675090718772E-067
   73.6250000000000        -3.115099885513302E-067
   73.8150000000000         9.634537978957384E-068
   74.0050000000000         7.771053219721901E-067
   74.1950000000000         1.785223384479270E-066
   74.3850000000000         3.149614140656669E-066
   74.5750000000000         4.852146863690850E-066
   74.7650000000000         6.801216406984184E-066
   74.9550000000000         8.802036023472606E-066
   75.1450000000000         1.052682989212465E-065
   75.3350000000000         1.148998432155354E-065
   75.5250000000000         1.103532895505321E-065
   75.7150000000000         8.344842356077203E-066
   75.9050000000000         2.479865613482907E-066
   76.0950000000000        -7.533117047735517E-066
   76.2850000000000        -2.256052188004042E-065
   76.4750000000000        -4.315451622216188E-065
   76.6650000000000        -6.927715298047706E-065
   76.8550000000000        -9.996137231272583E-065
   77.0450000000000        -1.329276910441756E-064
   77.2350000000000        -1.641929120571759E-064
   77.4250000000000        -1.877285208615884E-064
   77.6150000000000        -1.952503061725975E-064
   77.8050000000000        -1.762447816126772E-064
   77.9950000000000        -1.183585623892092E-064
   78.1850000000000        -8.288959598634236E-066
   78.3750000000000         1.666886205437314E-064
   78.5650000000000         4.164456854651816E-064
   78.7550000000000         7.449219884870234E-064
   78.9450000000000         1.146278969771941E-063
   79.1350000000000         1.600455531142327E-063
   79.3250000000000         2.068475177016039E-063
   79.5150000000000         2.488072841957593E-063
   79.7050000000000         2.770457661837489E-063
   79.8950000000000         2.799282539530266E-063
   80.0850000000000         2.433118650746177E-063
   80.2750000000000         1.512886161142143E-063
   80.4650000000000        -1.242879353612025E-064
   80.6550000000000        -2.623497073087633E-063
   80.8450000000000        -6.081939693936107E-063
   81.0350000000000        -1.051024097655589E-062
   81.2250000000000        -1.578640228807183E-062
   81.4150000000000        -2.160520809637120E-062
   81.6050000000000        -2.742796461559139E-062
   81.7950000000000        -3.243980324469745E-062
   81.9850000000000        -3.552427623510075E-062
   82.1750000000000        -3.526731939372927E-062
   82.3650000000000        -3.000446088048818E-062
   82.5550000000000        -1.792590831399140E-062
   82.7450000000000         2.746753594600878E-063
   82.9350000000000         3.350173307639770E-062
   83.1250000000000         7.519171639263812E-062
   83.3150000000000         1.276073905886707E-061
   83.5050000000000         1.889886336966766E-061
   83.6950000000000         2.555095009723310E-061
   83.8850000000000         3.207936587507051E-061
   84.0750000000000         3.755394074652202E-061
   84.2650000000000         4.073558016457268E-061
   84.4550000000000         4.009305961112785E-061
   84.6450000000000         3.386628548734885E-061
   84.8350000000000         2.018932344302586E-061
   85.0250000000000        -2.715221689124855E-062
   85.2150000000000        -3.626289827692434E-061
   85.4050000000000        -8.115440200681549E-061
   85.5950000000000        -1.369520726321566E-060
   85.7850000000000        -2.016083548934986E-060
   85.9750000000000        -2.709849900907912E-060
   86.1650000000000        -3.384203126560434E-060
   86.3550000000000        -3.944215786861654E-060
   86.5450000000000        -4.265776821141397E-060
   86.7350000000000        -4.198020960826733E-060
   86.9250000000000        -3.570228672022753E-060
   87.1150000000000        -2.204318581127361E-060
   87.3050000000000         6.615270399769555E-062
   87.4950000000000         3.369979725809061E-060
   87.6850000000000         7.765434783760924E-060
   87.8750000000000         1.320159611066016E-059
   88.0650000000000         1.947612023474168E-059
   88.2550000000000         2.619310967789200E-059
   88.4450000000000         3.272629073577506E-059
   88.6350000000000         3.819430941622563E-059
   88.8250000000000         4.145639528806375E-059
   89.0150000000000         4.113769430333520E-059
   89.2050000000000         3.569394170165713E-059
   89.3950000000000         2.352450528074537E-059
   89.5850000000000         3.140832916942488E-060
   89.7750000000000        -2.660633857016930E-059
   89.9650000000000        -6.624327141119709E-059
   90.1550000000000        -1.153429573422752E-058
   90.3450000000000        -1.721679382874863E-058
   90.5350000000000        -2.333172630047342E-058
   90.7250000000000        -2.934210703685226E-058
   90.9150000000000        -3.449387461348277E-058
   91.1050000000000        -3.781276102605687E-058
   91.2950000000000        -3.812567782901254E-058
   91.4850000000000        -3.411429544864392E-058
   91.6750000000000        -2.440789500457075E-058
   91.8650000000000        -7.720910045036604E-059
   92.0550000000000         1.696238949781317E-058
   92.2450000000000         5.015806944961236E-058
   92.4350000000000         9.161557818333105E-058
   92.6250000000000         1.400292136965606E-057
   92.8150000000000         1.927523301045486E-057
   93.0050000000000         2.455481161918303E-057
   93.1950000000000         2.924202408663774E-057
   93.3850000000000         3.255749730657118E-057
   93.5750000000000         3.355721463129827E-057
   93.7650000000000         3.117238882743846E-057
   93.9550000000000         2.427955349207102E-057
   94.1450000000000         1.180507220127235E-057
   94.3350000000000        -7.133942124727867E-058
   94.5250000000000        -3.305360595436682E-057
   94.7150000000000        -6.589790272347099E-057
   94.9050000000000        -1.048152949879085E-056
   95.0950000000000        -1.479350929206609E-056
   95.2850000000000        -1.921683707194014E-056
   95.4750000000000        -2.330652063404360E-056
   95.6650000000000        -2.647661916728042E-056
   95.8550000000000        -2.800905217355128E-056
   96.0450000000000        -2.708043427543345E-056
   96.2350000000000        -2.281101197666757E-056
   96.4250000000000        -1.433892523411520E-056
   96.6150000000000        -9.214815403422095E-058
   96.8050000000000         1.793717830599077E-056
   96.9950000000000         4.233576649298032E-056
   97.1850000000000         7.181053484987815E-056
   97.3750000000000         1.051671655971568E-055
   97.5650000000000         1.403270252372071E-055
   97.7550000000000         1.742099070691431E-055
   97.9450000000000         2.026798300601092E-055
   98.1350000000000         2.205837019011946E-055
   98.3250000000000         2.219138923509207E-055
   98.5150000000000         2.001241199580587E-055
   98.7050000000000         1.486226376484448E-055
   98.8950000000000         6.145669487198996E-056
   99.0850000000000        -6.581296530221752E-056
   99.2750000000000        -2.350695358186985E-055
   99.4650000000000        -4.444774896798679E-055
   99.6550000000000        -6.872783245094894E-055
   99.8450000000000        -9.506565506655350E-055
   100.035000000000        -1.214821478259293E-054
   100.225000000000        -1.452480981394136E-054
   100.415000000000        -1.628906594438069E-054
   100.605000000000        -1.702799892819606E-054
   100.795000000000        -1.628162490005217E-054
   100.985000000000        -1.357340412309245E-054
   101.175000000000        -8.453528446583374E-055
   101.365000000000        -5.552122734822828E-056
   101.555000000000         1.033714569247492E-054
   101.745000000000         2.421069776407479E-054
   101.935000000000         4.074247624659681E-054
   102.125000000000         5.922013848130798E-054
   102.315000000000         7.847412258820676E-054
   102.505000000000         9.683221938649063E-054
   102.695000000000         1.121091523696322E-053
   102.885000000000         1.216446093901112E-053
   103.075000000000         1.224029454218806E-053
   103.265000000000         1.111461270949102E-053
   103.455000000000         8.468809475836193E-054
   103.645000000000         4.023332299488997E-054
   103.835000000000        -2.420517079037669E-054
   104.025000000000        -1.093227541740482E-053
   104.215000000000        -2.140009077864733E-053
   104.405000000000        -3.347844123209749E-053
   104.595000000000        -4.654099237572079E-053
   104.785000000000        -5.964504450012085E-053
   104.975000000000        -7.151506026191306E-053
   105.165000000000        -8.055340967243226E-053
   105.355000000000        -8.488652569009356E-053
   105.545000000000        -8.245392946198307E-053
   105.735000000000        -7.114587010223618E-053
   105.925000000000        -4.899247531725651E-053
   106.115000000000        -1.440323282043608E-053
   106.305000000000         3.354968500938552E-053
   106.495000000000         9.481716336736842E-053
   106.685000000000         1.680481396808984E-052
   106.875000000000         2.502817344736111E-052
   107.065000000000         3.366919142036621E-052
   107.255000000000         4.204266210723477E-052
   107.445000000000         4.925879272380608E-052
   107.635000000000         5.424014160219088E-052
   107.825000000000         5.576205487417059E-052
   108.015000000000         5.252041700219172E-052
   108.205000000000         4.322916179139007E-052
   108.395000000000         2.674795086300764E-052
   108.585000000000         2.237696967557707E-053
   108.775000000000        -3.066176950736213E-052
   108.965000000000        -7.164150628142272E-052
   109.155000000000        -1.195346002964926E-051
   109.345000000000        -1.721467939314745E-051
   109.535000000000        -2.261286813411812E-051
   109.725000000000        -2.769146655718593E-051
   109.915000000000        -3.187555942926953E-051
   110.105000000000        -3.448717511424410E-051