  -1.42500000000000         0.000000000000000E+000
  -1.23500000000000         0.000000000000000E+000
  -1.04500000000000         0.000000000000000E+000
 -0.855000000000000         0.000000000000000E+000
 -0.665000000000000         0.000000000000000E+000
 -0.475000000000000         0.000000000000000E+000
 -0.285000000000000         0.000000000000000E+000
 -9.499999999999975E-002    0.000000000000000E+000
  9.500000000000020E-002    0.000000000000000E+000
  0.285000000000000         0.000000000000000E+000
  0.475000000000000         0.000000000000000E+000
  0.665000000000000         0.000000000000000E+000
  0.855000000000000         0.000000000000000E+000
   1.04500000000000         0.000000000000000E+000
   1.23500000000000         0.000000000000000E+000
   1.42500000000000         0.000000000000000E+000
   1.61500000000000         0.000000000000000E+000
   1.80500000000000         0.000000000000000E+000
   1.99500000000000         0.000000000000000E+000
   2.18500000000000         0.000000000000000E+000
   2.37500000000000         0.000000000000000E+000
   2.56500000000000         0.000000000000000E+000
   2.75500000000000         0.000000000000000E+000
   2.94500000000000         0.000000000000000E+000
   3.13500000000000         0.000000000000000E+000
   3.32500000000000         0.000000000000000E+000
   3.51500000000000         0.000000000000000E+000
   3.70500000000000         0.000000000000000E+000
   3.89500000000000         0.000000000000000E+000
   4.08500000000000         0.000000000000000E+000
   4.27500000000000         0.000000000000000E+000
   4.46500000000000         0.000000000000000E+000
   4.65500000000000         0.000000000000000E+000
   4.84500000000000         0.000000000000000E+000
   5.03500000000000         0.000000000000000E+000
   5.22500000000000         0.000000000000000E+000
   5.41500000000000         0.000000000000000E+000
   5.60500000000000         0.000000000000000E+000
   5.79500000000000         0.000000000000000E+000
   5.98500000000000         0.000000000000000E+000
   6.17500000000000         3.843045620467045E-165
   6.36500000000000        -6.094250529187515E-159
   6.55500000000000         1.738962167107621E-155
   6.74500000000000         1.619045621555601E-153
   6.93500000000000         1.164689581234031E-151
   7.12500000000000         4.737289394993276E-150
   7.31500000000000         1.150758819802807E-148
   7.50500000000000         1.685593609549321E-147
   7.69500000000000         3.380963656351942E-138
   7.88500000000000        -1.071324875940782E-131
   8.07500000000000        -5.583774777774315E-130
   8.26500000000000        -1.605052780205436E-128
   8.45500000000000        -3.480046629639219E-127
   8.64500000000000        -6.161693056057853E-126
   8.83500000000000        -8.951171295154395E-125
   9.02500000000000        -1.065122757556290E-123
   9.21500000000000        -1.045312939718182E-122
   9.40500000000000        -8.559277168310649E-122
   9.59500000000000        -5.915179744110064E-121
   9.78500000000000        -3.480173902191822E-120
   9.97500000000000        -1.749841365988630E-119
   10.1650000000000        -7.490091939896810E-119
   10.3550000000000        -2.679857098956832E-118
   10.5450000000000        -7.588310554236563E-118
   10.7350000000000        -1.387737775794881E-117
   10.9250000000000         7.176679352533885E-118
   11.1150000000000         2.030405955863014E-116
   11.3050000000000         1.090727939652603E-115
   11.4950000000000         3.972330778528915E-115
   11.6850000000000         1.064808974032166E-114
   11.8750000000000         1.786372359464195E-114
   12.0650000000000        -8.947577388633328E-115
   12.2550000000000        -2.198285406989093E-113
   12.4450000000000        -1.071176791231021E-112
   12.6350000000000        -3.526219432910804E-112
   12.8250000000000        -8.255411358824493E-112
   13.0150000000000        -9.130792877383174E-112
   13.2050000000000         3.595478183923347E-111
   13.3950000000000         3.095322133960725E-110
   13.5850000000000         1.459979324634235E-109
   13.7750000000000         5.515630444374956E-109
   13.9650000000000         1.824030334061090E-108
   14.1550000000000         5.475439200263095E-108
   14.3450000000000         1.520216748989384E-107
   14.5350000000000         3.947397869699024E-107
   14.7250000000000         9.655062634517025E-107
   14.9150000000000         2.235724740418588E-106
   15.1050000000000         4.919971969115341E-106
   15.2950000000000         1.032327362564818E-105
   15.4850000000000         2.072167628056754E-105
   15.6750000000000         3.994848414183577E-105
   15.8650000000000         7.436018776479390E-105
   16.0550000000000         1.346396106438842E-104
   16.2450000000000         2.395793437580651E-104
   16.4350000000000         4.244533570185811E-104
   16.6250000000000         7.593964476570145E-104
   16.8150000000000         1.388115498887333E-103
   17.0050000000000         2.605087376711448E-103
   17.1950000000000         5.000895047958935E-103
   17.3850000000000         9.720882510638021E-103
   17.5750000000000         1.890144322362341E-102
   17.7650000000000         3.636893230686778E-102
   17.9550000000000         6.870255131569851E-102
   18.1450000000000         1.267593963219331E-101
   18.3350000000000         2.276998593177496E-101
   18.5250000000000         3.973493307211605E-101
   18.7150000000000         6.722076042900532E-101
   18.9050000000000         1.099221237179466E-100
   19.0950000000000         1.728940983619531E-100
   19.2850000000000         2.592857742415872E-100
   19.4750000000000         3.646937825738571E-100
   19.6650000000000         4.648326364073562E-100
   19.8550000000000         4.907661663425133E-100
   20.0450000000000         2.821313598300687E-100
   20.2350000000000        -4.968908582823442E-100
   20.4250000000000        -2.502213065147721E-099
   20.6150000000000        -6.949546792974764E-099
   20.8050000000000        -1.599811148856315E-098
   20.9950000000000        -3.334492356319367E-098
   21.1850000000000        -6.511546196042318E-098
   21.3750000000000        -1.211528704838684E-097
   21.5650000000000        -2.168116456623626E-097
   21.7550000000000        -3.753343528129880E-097
   21.9450000000000        -6.307991237805950E-097
   22.1350000000000        -1.031420864179687E-096
   22.3250000000000        -1.642597938364285E-096
   22.5150000000000        -2.548426583890083E-096
   22.7050000000000        -3.849357516011627E-096
   22.8950000000000        -5.652162726871435E-096
   23.0850000000000        -8.046402755169745E-096
   23.2750000000000        -1.105926261795406E-095
   23.4650000000000        -1.457831691112263E-095
   23.6550000000000        -1.823018225723287E-095
   23.8450000000000        -2.120322261385685E-095
   24.0350000000000        -2.200602129205780E-095
   24.2250000000000        -1.816205265153180E-095
   24.4150000000000        -5.856631494195599E-096
   24.6050000000000         2.042426557167329E-095
   24.7950000000000         6.819338610276335E-095
   24.9850000000000         1.470974769895219E-094
   25.1750000000000         2.687620581030350E-094
   25.3650000000000         4.462214203903774E-094
   25.5550000000000         6.928639561031643E-094
   25.7450000000000         1.020962109579060E-093
   25.9350000000000         1.440112974514546E-093
   26.1250000000000         1.956309657164111E-093
   26.3150000000000         2.572879012923992E-093
   26.5050000000000         3.295071852579955E-093
   26.6950000000000         4.140473214171023E-093
   26.8850000000000         5.157234584462422E-093
   27.0750000000000         6.450808044725685E-093
   27.2650000000000         8.216507725837563E-093
   27.4550000000000         1.076870898383338E-092
   27.6450000000000         1.454655939103100E-092
   27.8350000000000         2.005960633295764E-092
   28.0250000000000         2.771429943233334E-092
   28.2150000000000         3.743494467984079E-092
   28.4050000000000         4.796406015551875E-092
   28.5950000000000         5.570502693512949E-092
   28.7850000000000         5.296806551025430E-092
   28.9750000000000         2.551992166869973E-092
   29.1650000000000        -5.055234764382141E-092
   29.3550000000000        -2.124349422736172E-091
   29.5450000000000        -5.140406294344259E-091
   29.7350000000000        -1.028162780750020E-090
   29.9250000000000        -1.845389168643165E-090
   30.1150000000000        -3.066835685258707E-090
   30.3050000000000        -4.786606068358971E-090
   30.4950000000000        -7.058727995267453E-090
   30.6850000000000        -9.842443349721908E-090
   30.8750000000000        -1.291959755103951E-089
   31.0650000000000        -1.577914082391205E-089
   31.2550000000000        -1.746730208677156E-089
   31.4450000000000        -1.640889453705048E-089
   31.6350000000000        -1.021663563571878E-089
   31.8250000000000         4.477586761956631E-090
   32.0150000000000         3.211216806679380E-089
   32.2050000000000         7.811895898592436E-089
   32.3950000000000         1.485587311586229E-088
   32.5850000000000         2.493120210114985E-088
   32.7750000000000         3.846386152606106E-088
   32.9650000000000         5.549054508557881E-088
   33.1550000000000         7.533008318729074E-088
   33.3450000000000         9.614227881173182E-088
   33.5350000000000         1.143775585603099E-087
   33.7250000000000         1.241457705830757E-087
   33.9150000000000         1.165702490704854E-087
   34.1050000000000         7.924569173133609E-088
   34.2950000000000        -4.014430651881795E-089
   34.4850000000000        -1.528760751225810E-087
   34.6750000000000        -3.892796240762589E-087
   34.8650000000000        -7.349072381113037E-087
   35.0550000000000        -1.206851525858168E-086
   35.2450000000000        -1.811026289867297E-086
   35.4350000000000        -2.532968449930706E-086
   35.6250000000000        -3.325930511456563E-086
   35.8150000000000        -4.096603689497758E-086
   36.0050000000000        -4.689487354905641E-086
   36.1950000000000        -4.871859528936431E-086
   36.3850000000000        -4.322502949232129E-086
   36.5750000000000        -2.628747627848647E-086
   36.7650000000000         7.021244420275966E-087
   36.9550000000000         6.209729144316438E-086
   37.1450000000000         1.441745264458175E-085
   37.3350000000000         2.573122185988134E-085
   37.5250000000000         4.029369666144203E-085
   37.7150000000000         5.779126162463676E-085
   37.9050000000000         7.721792832165898E-085
   38.0950000000000         9.661043177486363E-085
   38.2850000000000         1.127826909639257E-084
   38.4750000000000         1.211051639059702E-084
   38.6650000000000         1.153944381133090E-084
   38.8550000000000         8.799855365016329E-085
   39.0450000000000         3.018060219769491E-085
   39.2350000000000        -6.708791959438537E-085
   39.4250000000000        -2.118182700514003E-084
   39.6150000000000        -4.091027141106383E-084
   39.8050000000000        -6.586018633656892E-084
   39.9950000000000        -9.515016370569215E-084
   40.1850000000000        -1.267163665356453E-083
   40.3750000000000        -1.569881694363634E-083
   40.5650000000000        -1.806383226962568E-083
   40.7550000000000        -1.904960714171818E-083
   40.9450000000000        -1.777344582623123E-083
   41.1350000000000        -1.324586300011022E-083
   41.3250000000000        -4.482272747137877E-084
   41.5150000000000         9.322078458943212E-084
   41.7050000000000         2.854947873692174E-083
   41.8950000000000         5.285557551070479E-083
   42.0850000000000         8.082604480674700E-083
   42.2750000000000         1.096387540076694E-082
   42.4650000000000         1.348038384286090E-082
   42.6550000000000         1.500854017355433E-082
   42.8450000000000         1.477393111933349E-082
   43.0350000000000         1.192251168880881E-082
   43.2250000000000         5.655674871598946E-083
   43.4150000000000        -4.556655315844839E-083
   43.6050000000000        -1.867762176147772E-082
   43.7950000000000        -3.572553079902864E-082
   43.9850000000000        -5.334315960436446E-082
   44.1750000000000        -6.737076846555355E-082
   44.3650000000000        -7.151796511656328E-082
   44.5550000000000        -5.727529619408761E-082
   44.7450000000000        -1.425481305033092E-082
   44.9350000000000         6.880807146686153E-082
   45.1250000000000         2.021335946684762E-081
   45.3150000000000         3.918086997245439E-081
   45.5050000000000         6.353464518406247E-081
   45.6950000000000         9.158564184348942E-081
   45.8850000000000         1.195041948439614E-080
   46.0750000000000         1.405623052299379E-080
   46.2650000000000         1.444308130128661E-080
   46.4550000000000         1.167097600519341E-080
   46.6450000000000         3.894612810299108E-081
   46.8350000000000        -1.105289054703019E-080
   47.0250000000000        -3.545442453876840E-080
   47.2150000000000        -7.133796969631439E-080
   47.4050000000000        -1.198989471038640E-079
   47.5950000000000        -1.806855528810045E-079
   47.7850000000000        -2.505405771210767E-079
   47.9750000000000        -3.223334090767163E-079
   48.1650000000000        -3.835756773915911E-079
   48.3550000000000        -4.150948823257997E-079
   48.5450000000000        -3.900413590789600E-079
   48.7350000000000        -2.736197570410881E-079
   48.9250000000000        -2.405605288377092E-080
   49.1150000000000         4.045830774135021E-079
   49.3050000000000         1.057036184386947E-078
   49.4950000000000         1.968285580805696E-078
   49.6850000000000         3.151243297171597E-078
   49.8750000000000         4.580432502826727E-078
   50.0650000000000         6.171919748576617E-078
   50.2550000000000         7.760516127352606E-078
   50.4450000000000         9.076307748553516E-078
   50.6350000000000         9.723891759649303E-078
   50.8250000000000         9.169232426299786E-078
   51.0150000000000         6.740700668359628E-078
   51.2050000000000         1.652433016731709E-078
   51.3950000000000        -6.940630167023472E-078
   51.5850000000000        -1.984615303081845E-077
   51.7750000000000        -3.768702163231891E-077
   51.9650000000000        -6.069622057737230E-077
   52.1550000000000        -8.845147740197080E-077
   52.3450000000000        -1.195542950285528E-076
   52.5350000000000        -1.512681313976556E-076
   52.7250000000000        -1.791438307657931E-076
   52.9150000000000        -1.966768602562913E-076
   53.1050000000000        -1.950599888923269E-076
   53.2950000000000        -1.631158607837927E-076
   53.4850000000000        -8.751507569508462E-077
   53.6750000000000         4.659498626697025E-077
   53.8650000000000         2.544096693220078E-076
   54.0550000000000         5.495851252157023E-076
   54.2450000000000         9.415068254758364E-076
   54.4350000000000         1.431576799336598E-075
   54.6250000000000         2.008424915632702E-075
   54.8150000000000         2.642014919833175E-075
   55.0050000000000         3.276720650460917E-075
   55.1950000000000         3.823607359810359E-075
   55.3850000000000         4.152388751056633E-075
   55.5750000000000         4.083870525827457E-075
   55.7650000000000         3.384170841942958E-075
   55.9550000000000         1.762665850476946E-075
   56.1450000000000        -1.123520066351089E-075
   56.3350000000000        -5.654555638500703E-075
   56.5250000000000        -1.221723464798039E-074
   56.7150000000000        -2.115191731304243E-074
   56.9050000000000        -3.266904172175432E-074
   57.0950000000000        -4.672626296537903E-074
   57.2850000000000        -6.285743137763269E-074
   57.4750000000000        -7.994671643965288E-074
   57.6650000000000        -9.594642153245034E-074
   57.8550000000000        -1.075469241020958E-073
   58.0450000000000        -1.098234357438765E-073
   58.2350000000000        -9.590862367654036E-074
   58.4250000000000        -5.677389574995737E-074
   58.6150000000000         1.875434029642846E-074
   58.8050000000000         1.435653857076909E-073
   58.9950000000000         3.311883402498345E-073
   59.1850000000000         5.937853755512692E-073
   59.3750000000000         9.388986298676692E-073
   59.5650000000000         1.364644184704058E-072
   59.7550000000000         1.853124612496750E-072
   59.9450000000000         2.362014278548145E-072
   60.1350000000000         2.814599435837048E-072
   60.3250000000000         3.089068712299596E-072
   60.5150000000000         3.008581224608960E-072
   60.7050000000000         2.334601048755580E-072
   60.8950000000000         7.671523477695758E-073
   61.0850000000000        -2.043065630217982E-072
   61.2750000000000        -6.464528374239570E-072
   61.4650000000000        -1.282961463773974E-071
   61.6550000000000        -2.134694747576062E-071
   61.8450000000000        -3.197517613657994E-071
   62.0350000000000        -4.425506763971697E-071
   62.2250000000000        -5.710251894314617E-071
   62.4150000000000        -6.857429591977396E-071
   62.6050000000000        -7.563155525050681E-071
   62.7950000000000        -7.394374605140263E-071
   62.9850000000000        -5.779690371260800E-071
   63.1750000000000        -2.019421882571140E-071
   63.3650000000000         4.673972867455154E-071
   63.5550000000000         1.509211388704461E-070
   63.7450000000000         2.988987518651691E-070
   63.9350000000000         4.937520624996806E-070
   64.1250000000000         7.322179758811501E-070
   64.3150000000000         1.001056611088091E-069
   64.5050000000000         1.272811296316990E-069
   64.6950000000000         1.501327360810279E-069
   64.8850000000000         1.617673077182974E-069
   65.0750000000000         1.527448098086753E-069
   65.2650000000000         1.110849001653773E-069
   65.4550000000000         2.272465424594338E-070
   65.6450000000000        -1.273652637025514E-069
   65.8350000000000        -3.531833295785441E-069
   66.0250000000000        -6.646100730013907E-069
   66.2150000000000        -1.063081369304747E-068
   66.4050000000000        -1.535993568876317E-068
   66.5950000000000        -2.050012691781346E-068
   66.7850000000000        -2.543753999073276E-068
   66.9750000000000        -2.920691759027357E-068
   67.1650000000000        -3.043644742663461E-068
   67.3550000000000        -2.732733719560168E-068
   67.5450000000000        -1.769268668791461E-068
   67.7350000000000         9.149259255559639E-070
   67.9250000000000         3.095493066682534E-068
   68.1150000000000         7.449802996504235E-068
   68.3050000000000         1.326485999556362E-067
   68.4950000000000         2.047802241141842E-067
   68.6850000000000         2.875991923384816E-067
   68.8750000000000         3.740876573291642E-067
   69.0650000000000         4.524279102657737E-067
   69.2550000000000         5.050712120164426E-067
   69.4450000000000         5.081857059575682E-067
   69.6350000000000         4.317918414949439E-067
   69.8250000000000         2.409601625288097E-067
   70.0150000000000        -1.015095775026370E-067
   70.2050000000000        -6.305067507133806E-067
   70.3950000000000        -1.371767684725595E-066
   70.5850000000000        -2.332570188792676E-066
   70.7750000000000        -3.490035351365452E-066
   70.9650000000000        -4.777520917982996E-066
   71.1550000000000        -6.070156879201347E-066
   71.3450000000000        -7.171287883372740E-066
   71.5350000000000        -7.802418253045630E-066
   71.7250000000000        -7.600138778552067E-066
   71.9150000000000        -6.124342409063330E-066
   72.1050000000000        -2.882652015258554E-066
   72.2950000000000         2.623819371269882E-066
   72.4850000000000         1.082872935932986E-065
   72.6750000000000         2.199956975550749E-065
   72.8650000000000         3.610698418767844E-065
   73.0550000000000         5.266795208554565E-065
   73.2450000000000         7.057225997326331E-065
   73.4350000000000         8.790912867520990E-065
   73.6250000000000         1.018196951311015E-064
   73.8150000000000         1.084106678731159E-064
   74.0050000000000         1.027738756792549E-064
   74.1950000000000         7.916411941354844E-065
   74.3850000000000         3.139172517585028E-065
   74.5750000000000        -4.651597238042993E-065
   74.7650000000000        -1.593411052697203E-064
   74.9550000000000        -3.093695498880181E-064
   75.1450000000000        -4.947702641402245E-064
   75.3350000000000        -7.077306541254574E-064
   75.5250000000000        -9.324893757626436E-064
   75.7150000000000        -1.143493383703502E-063
   75.9050000000000        -1.304001692222847E-063
   76.0950000000000        -1.365555740130025E-063
   76.2850000000000        -1.268822633180217E-063
   76.4750000000000        -9.463754175892531E-064
   76.6650000000000        -3.279820570226564E-064
   76.8550000000000         6.510933704469243E-064
   77.0450000000000         2.038444459350248E-063
   77.2350000000000         3.849497232386412E-063
   77.4250000000000         6.049518630657783E-063
   77.6150000000000         8.533675346317484E-063
   77.8050000000000         1.110691238721968E-062
   77.9950000000000         1.346629033214957E-062
   78.1850000000000         1.518934367119261E-062
   78.3750000000000         1.573290059195238E-062
   78.5650000000000         1.444749799799638E-062
   78.7550000000000         1.061285613281743E-062
   78.9450000000000         3.499633374910691E-063
   79.1350000000000        -7.538368174062886E-063
   79.3250000000000        -2.293946210161414E-062
   79.5150000000000        -4.277803868510354E-062
   79.7050000000000        -6.658314418999132E-062
   79.8950000000000        -9.314363771808510E-062
   80.0850000000000        -1.203191165264456E-061
   80.2750000000000        -1.448838162923267E-061
   80.4650000000000        -1.624388052489024E-061
   80.6550000000000        -1.674349965430346E-061
   80.8450000000000        -1.533544710138853E-061
   81.0350000000000        -1.130987035742838E-061
   81.2250000000000        -3.962767053840662E-062
   81.4150000000000         7.311844839219204E-062
   81.6050000000000         2.290049734412272E-061
   81.7950000000000         4.282183875012963E-061
   81.9850000000000         6.655785340879266E-061
   82.1750000000000         9.287688735910576E-061
   82.3650000000000         1.196670052556255E-060
   82.5550000000000         1.438050402556208E-060
   82.7450000000000         1.610933472747209E-060
   82.9350000000000         1.663018270119786E-060
   83.1250000000000         1.533560996882466E-060
   83.3150000000000         1.157124075125311E-060
   83.5050000000000         4.695441349159571E-061
   83.6950000000000        -5.836496548714747E-061
   83.8850000000000        -2.036335344558488E-060
   84.0750000000000        -3.888673062482676E-060
   84.2650000000000        -6.092391708872230E-060
   84.4550000000000        -8.535587441915202E-060
   84.6450000000000        -1.102865977340542E-059
   84.8350000000000        -1.329356256758963E-059
   85.0250000000000        -1.495906894613448E-059
   85.2150000000000        -1.556516638531002E-059
   85.4050000000000        -1.457991821375084E-059
   85.5950000000000        -1.143204263623040E-059
   85.7850000000000        -5.561954706043363E-060
   85.9750000000000         3.507022850691775E-060
   86.1650000000000         1.607724389207688E-059
   86.3550000000000         3.216744404438108E-059
   86.5450000000000         5.139095245096033E-059
   86.7350000000000         7.283048008178989E-059
   86.9250000000000         9.492268787888955E-059
   87.1150000000000         1.153700216622471E-058
   87.3050000000000         1.311012987347466E-058
   87.4950000000000         1.383056655954160E-058
   87.6850000000000         1.325661074116451E-058
   87.8750000000000         1.091178657078527E-058
   88.0650000000000         6.325304892396666E-059
   88.2550000000000        -9.115432122768778E-060
   88.4450000000000        -1.107304028583535E-058
   88.6350000000000        -2.421253750051039E-058
   88.8250000000000        -4.006591969005927E-058
   89.0150000000000        -5.795196732425373E-058
   89.2050000000000        -7.667966931658221E-058
   89.3950000000000        -9.447577262018669E-058
   89.5850000000000        -1.089488681247236E-057
   89.7750000000000        -1.171086816747746E-057
   89.9650000000000        -1.154604443680291E-057
   90.1550000000000        -1.001936658531434E-057
   90.3450000000000        -6.748170267691879E-058
   90.5350000000000        -1.390259873615316E-058
   90.7250000000000         6.301772583046199E-058
   90.9150000000000         1.641520556448990E-057
   91.1050000000000         2.880373429641613E-057
   91.2950000000000         4.301085419021572E-057
   91.4850000000000         5.819731147339483E-057
   91.6750000000000         7.308221718002792E-057
   91.8650000000000         8.590964319123856E-057
   92.0550000000000         9.445429803033740E-057
   92.2450000000000         9.608085007339509E-057
   92.4350000000000         8.787121106072686E-057
   92.6250000000000         6.683217421652239E-057
   92.8150000000000         3.019179578962444E-057
   93.0050000000000        -2.421353838255080E-057
   93.1950000000000        -9.746853066445120E-057
   93.3850000000000        -1.890438332552253E-056
   93.5750000000000        -2.962295122026824E-056
   93.7650000000000        -4.135862475975572E-056
   93.9550000000000        -5.324800939356921E-056
   94.1450000000000        -6.407824961068483E-056
   94.3350000000000        -7.228302945003514E-056
   94.5250000000000        -7.597482016684527E-056
   94.7150000000000        -7.302358987819767E-056
   94.9050000000000        -6.119105266063325E-056
   95.0950000000000        -3.832700726908009E-056
   95.2850000000000        -2.630156086213334E-057
   95.4750000000000         4.703015370198412E-056
   95.6650000000000         1.107425859485136E-055
   95.8550000000000         1.871536012075648E-055
   96.0450000000000         2.730697774642123E-055
   96.2350000000000         3.631053338857032E-055
   96.4250000000000         4.494284067984391E-055
   96.6150000000000         5.216688463306469E-055
   96.8050000000000         5.670562947831414E-055
   96.9950000000000         5.708582886101156E-055
   97.1850000000000         5.171821980683941E-055
   97.3750000000000         3.901901324842475E-055
   97.5650000000000         1.757509016996193E-055
   97.7550000000000        -1.364833450447372E-055
   97.9450000000000        -5.506363597766078E-055
   98.1350000000000        -1.061922524805061E-054
   98.3250000000000        -1.653904356163854E-054
   98.5150000000000        -2.295952451691942E-054
   98.7050000000000        -2.941238881292614E-054
   98.8950000000000        -3.525657634238757E-054
   99.0850000000000        -3.968110236486711E-054
   99.2750000000000        -4.172610222911811E-054
   99.4650000000000        -4.032635212622631E-054
   99.6550000000000        -3.438078442714360E-054
   99.8450000000000        -2.285012658757895E-054
   100.035000000000        -4.882709425272593E-055
   100.225000000000         2.003431423537180E-054
   100.415000000000         5.190459116444863E-054
   100.605000000000         9.004334331876571E-054
   100.795000000000         1.329040347385606E-053
   100.985000000000         1.779301332558564E-053
   101.175000000000         2.214552509088784E-053
   101.365000000000         2.586781082695174E-053
   101.555000000000         2.837403900702727E-053
   101.745000000000         2.899349682196089E-053
   101.935000000000         2.700684833353793E-053
   102.125000000000         2.169952760526572E-053
   102.315000000000         1.243286622786297E-053
   102.505000000000        -1.267969870847666E-054
   102.695000000000        -1.961210078942496E-053
   102.885000000000        -4.243228375628735E-053
   103.075000000000        -6.907323829962021E-053
   103.265000000000        -9.828935921239192E-053
   103.455000000000        -1.281647778182352E-052
   103.645000000000        -1.560708702203756E-052
   103.835000000000        -1.786777029731603E-052
   104.025000000000        -1.920361767098766E-052
   104.215000000000        -1.917463878941228E-052
   104.405000000000        -1.732246083954779E-052
   104.595000000000        -1.320759727528338E-052
   104.785000000000        -6.457226334282416E-053
   104.975000000000         3.177594398962938E-053
   105.165000000000         1.575758880966709E-052
   105.355000000000         3.108752772405864E-052
   105.545000000000         4.865035047788409E-052
   105.735000000000         6.754991091206969E-052
   105.925000000000         8.647048407925460E-052
   106.115000000000         1.036622140325258E-051
   106.305000000000         1.169622036358575E-051
   106.495000000000         1.238607309002259E-051
   106.685000000000         1.216209111360496E-051
   106.875000000000         1.074578203360384E-051
   107.065000000000         7.877950903176820E-052
   107.255000000000         3.348739760746782E-052
   107.445000000000        -2.967271302180461E-052
   107.635000000000        -1.107251923252417E-051
   107.825000000000        -2.080691121533744E-051
   108.015000000000        -3.181057556481658E-051
   108.205000000000        -4.349303272668261E-051
   108.395000000000        -5.501361089713397E-051
   108.585000000000        -6.527841079687507E-051
   108.775000000000        -7.295927004554798E-051
   108.965000000000        -7.653987345152772E-051
   109.155000000000        -7.439329100386024E-051
   109.345000000000        -6.489370733092234E-051
   109.535000000000        -4.656287271685687E-051
   109.725000000000        -1.824884020247336E-051
   109.915000000000         2.066909916675910E-051
   110.105000000000         7.005958966776385E-051