  -1.42500000000000         0.000000000000000E+000
  -1.23500000000000         0.000000000000000E+000
  -1.04500000000000         0.000000000000000E+000
 -0.855000000000000         0.000000000000000E+000
 -0.665000000000000         0.000000000000000E+000
 -0.475000000000000         0.000000000000000E+000
 -0.285000000000000         0.000000000000000E+000
 -9.499999999999975E-002    0.000000000000000E+000
  9.500000000000020E-002    0.000000000000000E+000
  0.285000000000000         0.000000000000000E+000
  0.475000000000000         0.000000000000000E+000
  0.665000000000000         0.000000000000000E+000
  0.855000000000000         0.000000000000000E+000
   1.04500000000000         0.000000000000000E+000
   1.23500000000000         0.000000000000000E+000
   1.42500000000000         0.000000000000000E+000
   1.61500000000000         0.000000000000000E+000
   1.80500000000000         0.000000000000000E+000
   1.99500000000000         0.000000000000000E+000
   2.18500000000000         0.000000000000000E+000
   2.37500000000000         0.000000000000000E+000
   2.56500000000000         0.000000000000000E+000
   2.75500000000000         0.000000000000000E+000
   2.94500000000000         0.000000000000000E+000
   3.13500000000000         0.000000000000000E+000
   3.32500000000000         0.000000000000000E+000
   3.51500000000000         0.000000000000000E+000
   3.70500000000000         0.000000000000000E+000
   3.89500000000000         0.000000000000000E+000
   4.08500000000000         0.000000000000000E+000
   4.27500000000000         0.000000000000000E+000
   4.46500000000000         0.000000000000000E+000
   4.65500000000000         0.000000000000000E+000
   4.84500000000000         0.000000000000000E+000
   5.03500000000000         0.000000000000000E+000
   5.22500000000000         0.000000000000000E+000
   5.41500000000000         0.000000000000000E+000
   5.60500000000000         0.000000000000000E+000
   5.79500000000000         0.000000000000000E+000
   5.98500000000000         0.000000000000000E+000
   6.17500000000000        -5.629908494354351E-165
   6.36500000000000         6.220800764414968E-160
   6.55500000000000         5.983850420569846E-156
   6.74500000000000         8.376580609274637E-155
   6.93500000000000         1.320920727711848E-152
   7.12500000000000         7.521940593659353E-151
   7.31500000000000         1.170301614405970E-149
   7.50500000000000        -2.604553651914111E-148
   7.69500000000000        -3.217921602618379E-140
   7.88500000000000        -1.557179493781066E-134
   8.07500000000000        -5.704283249125561E-131
   8.26500000000000        -2.229585148259942E-129
   8.45500000000000        -4.389516776666866E-128
   8.64500000000000        -6.057578264680497E-127
   8.83500000000000        -6.977349256419690E-126
   9.02500000000000        -7.361983732739166E-125
   9.21500000000000        -7.194949952641197E-124
   9.40500000000000        -6.314250664861607E-123
   9.59500000000000        -4.840465449791944E-122
   9.78500000000000        -3.202047744051889E-121
   9.97500000000000        -1.822382404208811E-120
   10.1650000000000        -8.907322587378380E-120
   10.3550000000000        -3.709920716975514E-119
   10.5450000000000        -1.283872954412228E-118
   10.7350000000000        -3.411124567389285E-118
   10.9250000000000        -4.745512293964905E-118
   11.1150000000000         1.566372452433622E-117
   11.3050000000000         1.666137876774973E-116
   11.4950000000000         8.785426660728643E-116
   11.6850000000000         3.553293579894954E-115
   11.8750000000000         1.195565650476307E-114
   12.0650000000000         3.380681327556508E-114
   12.2550000000000         7.667507046894224E-114
   12.4450000000000         1.109910903721741E-113
   12.6350000000000        -9.451043031185355E-114
   12.8250000000000        -1.539077757995895E-112
   13.0150000000000        -7.623337477964121E-112
   13.2050000000000        -2.812898127997463E-111
   13.3950000000000        -8.699676890885580E-111
   13.5850000000000        -2.317921097109671E-110
   13.7750000000000        -5.241171064227070E-110
   13.9650000000000        -9.242188465424273E-110
   14.1550000000000        -7.891016523910932E-110
   14.3450000000000         2.797763783505144E-109
   14.5350000000000         1.981492658823908E-108
   14.7250000000000         7.964251880488800E-108
   14.9150000000000         2.602313548811223E-107
   15.1050000000000         7.520794719758073E-107
   15.2950000000000         1.989361898549123E-106
   15.4850000000000         4.902329463007988E-106
   15.6750000000000         1.137510781778410E-105
   15.8650000000000         2.502974701729291E-105
   16.0550000000000         5.249362318732677E-105
   16.2450000000000         1.053219227093068E-104
   16.4350000000000         2.026834211022848E-104
   16.6250000000000         3.746361231696771E-104
   16.8150000000000         6.650078184636711E-104
   17.0050000000000         1.130954719484146E-103
   17.1950000000000         1.832261875658550E-103
   17.3850000000000         2.796415122642946E-103
   17.5750000000000         3.935769025453445E-103
   17.7650000000000         4.885894442518703E-103
   17.9550000000000         4.746523974351355E-103
   18.1450000000000         1.780020933547401E-103
   18.3350000000000        -6.658488888512796E-103
   18.5250000000000        -2.317029918021323E-102
   18.7150000000000        -4.650603743358605E-102
   18.9050000000000        -6.115803515880022E-102
   19.0950000000000        -1.342825775873769E-102
   19.2850000000000         2.378400666479055E-101
   19.4750000000000         1.014658720730408E-100
   19.6650000000000         2.985505910296753E-100
   19.8550000000000         7.442790350641839E-100
   20.0450000000000         1.674506390537611E-099
   20.2350000000000         3.499035343518699E-099
   20.4250000000000         6.899711689659528E-099
   20.6150000000000         1.296680718996458E-098
   20.8050000000000         2.337824275323235E-098
   20.9950000000000         4.061705690677331E-098
   21.1850000000000         6.820127402098001E-098
   21.3750000000000         1.108574010452312E-097
   21.5650000000000         1.744902269343586E-097
   21.7550000000000         2.656693168379522E-097
   21.9450000000000         3.901464146792969E-097
   22.1350000000000         5.496205176323180E-097
   22.3250000000000         7.355725278495584E-097
   22.5150000000000         9.185165645736574E-097
   22.7050000000000         1.030516963490149E-096
   22.8950000000000         9.384120864425565E-097
   23.0850000000000         4.050544257438759E-097
   23.2750000000000        -9.637090771542769E-097
   23.4650000000000        -3.787275935900234E-096
   23.6550000000000        -8.992050189959971E-096
   23.8450000000000        -1.790052771126303E-095
   24.0350000000000        -3.231456303212927E-095
   24.2250000000000        -5.456957832446212E-095
   24.4150000000000        -8.752225558111678E-095
   24.6050000000000        -1.344144903172808E-094
   24.7950000000000        -1.985289345029186E-094
   24.9850000000000        -2.825132262816107E-094
   25.1750000000000        -3.871970010655747E-094
   25.3650000000000        -5.096537892861886E-094
   25.5550000000000        -6.401663188200926E-094
   25.7450000000000        -7.576410943976101E-094
   25.9350000000000        -8.228999244294647E-094
   26.1250000000000        -7.691851028005319E-094
   26.3150000000000        -4.892138022194703E-094
   26.5050000000000         1.816905278977524E-094
   26.6950000000000         1.486322720600752E-093
   26.8850000000000         3.769017338978876E-093
   27.0750000000000         7.498716608999469E-093
   27.2650000000000         1.328568929537736E-092
   27.4550000000000         2.188170543423915E-092
   27.6450000000000         3.414796778235401E-092
   27.8350000000000         5.096852464644323E-092
   28.0250000000000         7.307991524743133E-092
   28.2150000000000         1.007817147793187E-091
   28.4050000000000         1.334894977417428E-091
   28.5950000000000         1.690944079533868E-091
   28.7850000000000         2.031056810454316E-091
   28.9750000000000         2.275783173169808E-091
   29.1650000000000         2.298718818568903E-091
   29.3550000000000         1.913515419544999E-091
   29.5450000000000         8.623039260055387E-092
   29.7350000000000        -1.191391281854593E-091
   29.9250000000000        -4.660945087335091E-091
   30.1150000000000        -1.002060788847501E-090
   30.3050000000000        -1.776864729315920E-090
   30.4950000000000        -2.836268230497270E-090
   30.6850000000000        -4.212072189654407E-090
   30.8750000000000        -5.908330548185338E-090
   31.0650000000000        -7.883589898697088E-090
   31.2550000000000        -1.002967163515961E-089
   31.4450000000000        -1.214835889611405E-089
   31.6350000000000        -1.392841810908108E-089
   31.8250000000000        -1.492659284876897E-089
   32.0150000000000        -1.455739016678864E-089
   32.2050000000000        -1.209736607195522E-089
   32.3950000000000        -6.709821034320296E-090
   32.5850000000000         2.505155341189678E-090
   32.7750000000000         1.643305693284972E-089
   32.9650000000000         3.584248592114718E-089
   33.1550000000000         6.126813616730292E-089
   33.3450000000000         9.289963089976587E-089
   33.5350000000000         1.305083971913724E-088
   33.7250000000000         1.734563274485379E-088
   33.9150000000000         2.208379582283397E-088
   34.1050000000000         2.718072050391366E-088
   34.2950000000000         3.261234884916985E-088
   34.4850000000000         3.849121259970964E-088
   34.6750000000000         4.515614230248992E-088
   34.8650000000000         5.325664877296673E-088
   35.0550000000000         6.379737740401156E-088
   35.2450000000000         7.808845145398671E-088
   35.4350000000000         9.752550929732493E-088
   35.6250000000000         1.231020059271910E-087
   35.8150000000000         1.545411717347716E-087
   36.0050000000000         1.889335452056092E-087
   36.1950000000000         2.187882360008366E-087
   36.3850000000000         2.294640104696617E-087
   36.5750000000000         1.960529044990694E-087
   36.7650000000000         7.995671099031193E-088
   36.9550000000000        -1.743652871583183E-087
   37.1450000000000        -6.416873285939881E-087
   37.3350000000000        -1.416178331194659E-086
   37.5250000000000        -2.607839902766581E-086
   37.7150000000000        -4.333196646153351E-086
   37.9050000000000        -6.697839053166675E-086
   38.0950000000000        -9.768190223417098E-086
   38.2850000000000        -1.352990549052807E-085
   38.4750000000000        -1.783077322712273E-085
   38.6650000000000        -2.230705526211065E-085
   38.8550000000000        -2.629411069881933E-085
   39.0450000000000        -2.872514145422392E-085
   39.2350000000000        -2.802625254394905E-085
   39.4250000000000        -2.202199645869547E-085
   39.6150000000000        -7.873372090188737E-086
   39.8050000000000         1.792006199682262E-085
   39.9950000000000         5.941092498569091E-085
   40.1850000000000         1.209321557882947E-084
   40.3750000000000         2.065950062970373E-084
   40.5650000000000         3.194798578583963E-084
   40.7550000000000         4.604396344834704E-084
   40.9450000000000         6.264439231846730E-084
   41.1350000000000         8.084188327988621E-084
   41.3250000000000         9.885918733960394E-084
   41.5150000000000         1.137442613463723E-083
   41.7050000000000         1.210498393427286E-083
   41.8950000000000         1.145407574632023E-083
   42.0850000000000         8.599729394710671E-084
   42.2750000000000         2.521274930161086E-084
   42.4650000000000        -7.968383858390661E-084
   42.6550000000000        -2.414178987747718E-083
   42.8450000000000        -4.720880245901264E-083
   43.0350000000000        -7.808247667312253E-083
   43.2250000000000        -1.170428581321288E-082
   43.4150000000000        -1.632900135193777E-082
   43.6050000000000        -2.143913088137685E-082
   43.7950000000000        -2.656493433597046E-082
   43.9850000000000        -3.094469010020500E-082
   44.1750000000000        -3.346635467929793E-082
   44.3650000000000        -3.263031207326860E-082
   44.5550000000000        -2.655180276659948E-082
   44.7450000000000        -1.302576100531738E-082
   44.9350000000000         1.032065637838112E-082
   45.1250000000000         4.576297290469664E-082
   45.3150000000000         9.508183306598205E-082
   45.5050000000000         1.590243217107914E-081
   45.6950000000000         2.366344372732006E-081
   45.8850000000000         3.244904271098941E-081
   46.0750000000000         4.159222534526048E-081
   46.2650000000000         5.003240072926851E-081
   46.4550000000000         5.627191416065442E-081
   46.6450000000000         5.837736920785974E-081
   46.8350000000000         5.404740347190318E-081
   47.0250000000000         4.076785566921306E-081
   47.2150000000000         1.607029455863268E-081
   47.4050000000000        -2.210064700434645E-081
   47.5950000000000        -7.492267894498541E-081
   47.7850000000000        -1.421690618037343E-080
   47.9750000000000        -2.216834276485989E-080
   48.1650000000000        -3.089508559190980E-080
   48.3550000000000        -3.968872842060541E-080
   48.5450000000000        -4.759854096877874E-080
   48.7350000000000        -5.349497199429616E-080
   48.9250000000000        -5.619145894182952E-080
   49.1150000000000        -5.462563026663796E-080
   49.3050000000000        -4.808744392741662E-080
   49.4950000000000        -3.646293936709821E-080
   49.6850000000000        -2.043919212216161E-080
   49.8750000000000        -1.591567779690981E-081
   50.0650000000000         1.774650591805059E-080
   50.2550000000000         3.494076565428092E-080
   50.4450000000000         4.793846560067703E-080
   50.6350000000000         5.662968018940947E-080
   50.8250000000000         6.465204975230612E-080
   51.0150000000000         8.145924524287983E-080
   51.2050000000000         1.242705157250839E-079
   51.3950000000000         2.192643566480891E-079
   51.5850000000000         4.010979789892690E-079
   51.7750000000000         7.095736773942805E-079
   51.9650000000000         1.182110130997993E-078
   52.1550000000000         1.840719746428916E-078
   52.3450000000000         2.672580905740761E-078
   52.5350000000000         3.604185077467284E-078
   52.7250000000000         4.470591153790242E-078
   52.9150000000000         4.983655416983282E-078
   53.1050000000000         4.706260615704994E-078
   53.2950000000000         3.043422250393998E-078
   53.4850000000000        -7.346519192233807E-079
   53.6750000000000        -7.418613177425013E-078
   53.8650000000000        -1.771376325489945E-077
   54.0550000000000        -3.200075133098638E-077
   54.2450000000000        -4.998784810746474E-077
   54.4350000000000        -7.025229531549874E-077
   54.6250000000000        -8.969084142903912E-077
   54.8150000000000        -1.029341292118374E-076
   55.0050000000000        -1.018273066882902E-076
   55.1950000000000        -7.513947149681249E-077
   55.3850000000000        -8.733779706011076E-078
   55.5750000000000         1.134994891560995E-076
   55.7650000000000         3.075861407160642E-076
   55.9550000000000         5.859000633386107E-076
   56.1450000000000         9.517284680388051E-076
   56.3350000000000         1.391738987564735E-075
   56.5250000000000         1.866371975300129E-075
   56.7150000000000         2.298605721151390E-075
   56.9050000000000         2.562169527499956E-075
   57.0950000000000         2.471127220637770E-075
   57.2850000000000         1.773810624387173E-075
   57.4750000000000         1.552930811615544E-076
   57.6650000000000        -2.746161068669908E-075
   57.8550000000000        -7.302153216604859E-075
   58.0450000000000        -1.382957309203790E-074
   58.2350000000000        -2.249148447232622E-074
   58.4250000000000        -3.315817144640956E-074
   58.6150000000000        -4.522658886701993E-074
   58.8050000000000        -5.740257076119281E-074
   58.9950000000000        -6.745939994373474E-074
   59.1850000000000        -7.199914982950391E-074
   59.3750000000000        -6.625968456960810E-074
   59.5650000000000        -4.402995338590276E-074
   59.7550000000000         2.241879790578208E-075
   59.9450000000000         8.104095927923771E-074
   60.1350000000000         2.009536679352833E-073
   60.3250000000000         3.692749547422714E-073
   60.5150000000000         5.899225559677828E-073
   60.7050000000000         8.605512875755324E-073
   60.8950000000000         1.168817806680965E-072
   61.0850000000000         1.487845441181006E-072
   61.2750000000000         1.771090694537581E-072
   61.4650000000000         1.947027948821905E-072
   61.6550000000000         1.914354461637529E-072
   61.8450000000000         1.538777080340166E-072
   62.0350000000000         6.528704961876474E-073
   62.2250000000000        -9.390223081091020E-073
   62.4150000000000        -3.448377522282037E-072
   62.6050000000000        -7.079636592584472E-072
   62.7950000000000        -1.199365291508704E-071
   62.9850000000000        -1.825411609443727E-071
   63.1750000000000        -2.575401472501291E-071
   63.3650000000000        -3.412027855159064E-071
   63.5550000000000        -4.259683053869764E-071
   63.7450000000000        -4.990975712843027E-071
   63.9350000000000        -5.412359649209641E-071
   64.1250000000000        -5.250528271390855E-071
   64.3150000000000        -4.142243410316740E-071
   64.5050000000000        -1.631561318705539E-071
   64.6950000000000         2.820027781497769E-071
   64.8850000000000         9.803298033221982E-071
   65.0750000000000         1.990184003566128E-070
   65.2650000000000         3.359305121996927E-070
   65.4550000000000         5.109850302991019E-070
   65.6450000000000         7.217345531528500E-070
   65.8350000000000         9.582852629514470E-070
   66.0250000000000         1.199833296898968E-069
   66.2150000000000         1.410635958139995E-069
   66.4050000000000         1.535712868342791E-069
   66.5950000000000         1.496827037679736E-069
   66.7850000000000         1.189632291630254E-069
   66.9750000000000         4.832876763805685E-070
   67.1650000000000        -7.756897188984616E-070
   67.3550000000000        -2.753080998213392E-069
   67.5450000000000        -5.607467351818756E-069
   67.7350000000000        -9.458696571404728E-069
   67.9250000000000        -1.434158052390151E-068
   68.1150000000000        -2.014282400471128E-068
   68.3050000000000        -2.652077059237350E-068
   68.4950000000000        -3.281027458438491E-068
   68.6850000000000        -3.791914240089610E-068
   68.8750000000000        -4.022833106082523E-068
   69.0650000000000        -3.751548712513873E-068
   69.2550000000000        -2.693023172462308E-068
   69.4450000000000        -5.059222655519223E-069
   69.6350000000000         3.187171189681139E-068
   69.8250000000000         8.760401581349339E-068
   70.0150000000000         1.652048466901744E-067
   70.2050000000000         2.661269874988468E-067
   70.3950000000000         3.889381785995507E-067
   70.5850000000000         5.277233339966568E-067
   70.7750000000000         6.702201778530354E-067
   70.9650000000000         7.958310916641713E-067
   71.1550000000000         8.737629585870714E-067
   71.3450000000000         8.616805177285563E-067
   71.5350000000000         7.054098199145574E-067
   71.7250000000000         3.403821145023258E-067
   71.9150000000000        -3.043589773902690E-067
   72.1050000000000        -1.298687299435999E-066
   72.2950000000000        -2.699585663390995E-066
   72.4850000000000        -4.534304758175119E-066
   72.6750000000000        -6.778195147164334E-066
   72.8650000000000        -9.327599260911810E-066
   73.0550000000000        -1.196920551264041E-065
   73.2450000000000        -1.434864485670438E-065
   73.4350000000000        -1.594283847153327E-065
   73.6250000000000        -1.604260782776587E-065
   73.8150000000000        -1.375417302727634E-065
   74.0050000000000        -8.030121545681835E-066
   74.1950000000000         2.258168207992793E-066
   74.3850000000000         1.819434288701353E-065
   74.5750000000000         4.062623171237219E-065
   74.7650000000000         6.990331655089644E-065
   74.9550000000000         1.055425660573541E-064
   75.1450000000000         1.458336372041123E-064
   75.3350000000000         1.874096916486849E-064
   75.5250000000000         2.248296010133602E-064
   75.7150000000000         2.502404578118243E-064
   75.9050000000000         2.532145005543294E-064
   76.0950000000000         2.208791014822514E-064
   76.2850000000000         1.384783352919441E-064
   76.4750000000000        -9.485567086717711E-066
   76.6650000000000        -2.373895946137666E-064
   76.8550000000000        -5.557963976609775E-064
   77.0450000000000        -9.678840836424057E-064
   77.2350000000000        -1.465057592521851E-063
   77.4250000000000        -2.021948947804413E-063
   77.6150000000000        -2.591209205019487E-063
   77.8050000000000        -3.098732147119715E-063
   77.9950000000000        -3.440215535854552E-063
   78.1850000000000        -3.480236175040535E-063
   78.3750000000000        -3.055253823683642E-063
   78.5650000000000        -1.982116327732581E-063
   78.7550000000000        -7.365154107045993E-065
   78.9450000000000         2.837272251813521E-063
   79.1350000000000         6.864334445845701E-063
   79.3250000000000         1.202498355188378E-062
   79.5150000000000         1.818957177642369E-062
   79.7050000000000         2.502543152350308E-062
   79.8950000000000         3.194110190682697E-062
   80.0850000000000         3.803842867573612E-062
   80.2750000000000         4.208292693710005E-062
   80.4650000000000         4.250531920869491E-062
   80.6550000000000         3.744912979067369E-062
   80.8450000000000         2.488010111896890E-062
   81.0350000000000         2.772370073925313E-063
   81.2250000000000        -3.061688675211260E-062
   81.4150000000000        -7.637894415500863E-062
   81.6050000000000        -1.344957460899030E-061
   81.7950000000000        -2.033114594432747E-061
   81.9850000000000        -2.789700189961528E-061
   82.1750000000000        -3.548768475964962E-061
   82.3650000000000        -4.212666978575723E-061
   82.5550000000000        -4.649834513360955E-061
   82.7450000000000        -4.695986599843231E-061
   82.9350000000000        -4.160095664824144E-061
   83.1250000000000        -2.836593414736980E-061
   83.3150000000000        -5.250672306788382E-062
   83.5050000000000         2.941666787861108E-061
   83.6950000000000         7.660908169142772E-061
   83.8850000000000         1.361563245164195E-060
   84.0750000000000         2.062441517643631E-060
   84.2650000000000         2.828954005310806E-060
   84.4550000000000         3.594903882827498E-060
   84.6450000000000         4.264045888212617E-060
   84.8350000000000         4.708611980302587E-060
   85.0250000000000         4.771121981636637E-060
   85.2150000000000         4.270702944446574E-060
   85.4050000000000         3.015114306439376E-060
   85.5950000000000         8.194892137912674E-061
   85.7850000000000        -2.467589612735153E-060
   85.9750000000000        -6.930697554404666E-060
   86.1650000000000        -1.254778395490478E-059
   86.3550000000000        -1.914610080951008E-059
   86.5450000000000        -2.635737379598684E-059
   86.7350000000000        -3.357734460953786E-059
   86.9250000000000        -3.993646689841048E-059
   87.1150000000000        -4.429006800296271E-059
   87.3050000000000        -4.523745931737876E-059
   87.4950000000000        -4.117999930214107E-059
   87.6850000000000        -3.042765311185578E-059
   87.8750000000000        -1.136180039183510E-059
   88.0650000000000         1.734141833569343E-059
   88.2550000000000         5.642833197272079E-059
   88.4450000000000         1.057341695890539E-058
   88.6350000000000         1.638169010574321E-058
   88.8250000000000         2.275880795468224E-058
   89.0150000000000         2.919828523768427E-058
   89.2050000000000         3.497240846416192E-058
   89.3950000000000         3.912471104375667E-058
   89.5850000000000         4.048601519183662E-058
   89.7750000000000         3.772187056665818E-058
   89.9650000000000         2.941876890426507E-058
   90.1550000000000         1.421502655483761E-058
   90.3450000000000        -9.020541361241435E-059
   90.5350000000000        -4.096327428640118E-058
   90.7250000000000        -8.156758498268136E-058
   90.9150000000000        -1.297764372980136E-057
   91.1050000000000        -1.832283384772886E-057
   91.2950000000000        -2.379942990772624E-057
   91.4850000000000        -2.883867951830884E-057
   91.6750000000000        -3.268913767912416E-057
   91.8650000000000        -3.442778419794456E-057
   92.0550000000000        -3.299502091256698E-057
   92.2450000000000        -2.725912503142779E-057
   92.4350000000000        -1.611462226431711E-057
   92.6250000000000         1.383009249283063E-058
   92.8150000000000         2.584702215814912E-057
   93.0050000000000         5.735846167224069E-057
   93.1950000000000         9.524498156341013E-057
   93.3850000000000         1.378561140196028E-056
   93.5750000000000         1.823586144863266E-056
   93.7650000000000         2.245824812094129E-056
   93.9550000000000         2.589545304439597E-056
   94.1450000000000         2.785610262876945E-056
   94.3350000000000         2.753826682651548E-056
   94.5250000000000         2.407429525614489E-056
   94.7150000000000         1.660032331608165E-056
   94.9050000000000         4.352350518004388E-057
   95.0950000000000        -1.321139269194908E-056
   95.2850000000000        -3.626506136361459E-056
   95.4750000000000        -6.445383331875668E-056
   95.6650000000000        -9.672802984362321E-056
   95.8550000000000        -1.311890309183425E-055
   96.0450000000000        -1.649681981100757E-055
   96.2350000000000        -1.941644595201797E-055
   96.4250000000000        -2.138695361768268E-055
   96.6150000000000        -2.183112204417351E-055
   96.8050000000000        -2.011437944658060E-055
   96.9950000000000        -1.559097215515626E-055
   97.1850000000000        -7.668734599073585E-056
   97.3750000000000         4.107512923162042E-056
   97.5650000000000         1.995589620520544E-055
   97.7550000000000         3.974521297174758E-055
   97.9450000000000         6.287786800908701E-055
   98.1350000000000         8.817867548640743E-055
   98.3250000000000         1.138034798392022E-054
   98.5150000000000         1.371845585493761E-054
   98.7050000000000         1.550320783358447E-054
   98.8950000000000         1.634119816147406E-054
   99.0850000000000         1.579200326006159E-054
   99.2750000000000         1.339687915505845E-054
   99.4650000000000         8.719849606667413E-055
   99.6550000000000         1.401381049522560E-055
   99.8450000000000        -8.776404253480080E-055
   100.035000000000        -2.181560416865316E-054
   100.225000000000        -3.742399480061687E-054
   100.415000000000        -5.493862292341495E-054
   100.605000000000        -7.326019098392217E-054
   100.795000000000        -9.080884358222795E-054
   100.985000000000        -1.055135030723408E-053
   101.175000000000        -1.148477261980247E-053
   101.365000000000        -1.159248304624588E-053
   101.555000000000        -1.056634287892900E-053
   101.745000000000        -8.103120097284327E-054
   101.935000000000        -3.936947510601260E-054
   102.125000000000         2.120613793822958E-054
   102.315000000000         1.013431802413426E-053
   102.505000000000         1.999531193338142E-053
   102.695000000000         3.137131165914210E-053
   102.885000000000         4.366192606811931E-053
   103.075000000000         5.596538094194564E-053
   103.265000000000         6.706388573393038E-053
   103.455000000000         7.543547889180970E-053
   103.645000000000         7.930019775915814E-053
   103.835000000000         7.670764896367922E-053
   104.025000000000         6.567132240557067E-053
   104.215000000000         4.435214980259356E-053
   104.405000000000         1.128977277711510E-053
   104.595000000000        -3.432523793174404E-053
   104.785000000000        -9.235125535128976E-053
   104.975000000000        -1.613876788023508E-052
   105.165000000000        -2.384867695683538E-052
   105.355000000000        -3.189199465839795E-052
   105.545000000000        -3.960393631456089E-052
   105.735000000000        -4.612797132368017E-052
   105.925000000000        -5.043463127944104E-052
   106.115000000000        -5.136324834643335E-052
   106.305000000000        -4.769011039903732E-052
   106.495000000000        -3.822510275617577E-052
   106.685000000000        -2.193683396589863E-052
   106.875000000000         1.896494515929060E-053
   107.065000000000         3.351656629451301E-052
   107.255000000000         7.250470575920719E-052
   107.445000000000         1.176059543329445E-051
   107.635000000000         1.665755906523975E-051
   107.825000000000         2.160698677701783E-051
   108.015000000000         2.616054767225044E-051
   108.205000000000         2.976135225293718E-051
   108.395000000000         3.176130383284661E-051
   108.585000000000         3.145257018196833E-051
   108.775000000000         2.811469623665129E-051
   108.965000000000         2.107788830029811E-051
   109.155000000000         9.801651041427912E-052
   109.345000000000        -6.033733713886010E-052
   109.535000000000        -2.642738046596732E-051
   109.725000000000        -5.095629800696857E-051
   109.915000000000        -7.868111411040740E-051
   110.105000000000        -1.080700194369376E-050