  -1.42500000000000         0.000000000000000E+000
  -1.23500000000000         0.000000000000000E+000
  -1.04500000000000         0.000000000000000E+000
 -0.855000000000000         0.000000000000000E+000
 -0.665000000000000         0.000000000000000E+000
 -0.475000000000000         0.000000000000000E+000
 -0.285000000000000         0.000000000000000E+000
 -9.499999999999975E-002    0.000000000000000E+000
  9.500000000000020E-002    0.000000000000000E+000
  0.285000000000000         0.000000000000000E+000
  0.475000000000000         0.000000000000000E+000
  0.665000000000000         0.000000000000000E+000
  0.855000000000000         0.000000000000000E+000
   1.04500000000000         0.000000000000000E+000
   1.23500000000000         0.000000000000000E+000
   1.42500000000000         0.000000000000000E+000
   1.61500000000000         0.000000000000000E+000
   1.80500000000000         0.000000000000000E+000
   1.99500000000000         0.000000000000000E+000
   2.18500000000000         0.000000000000000E+000
   2.37500000000000         0.000000000000000E+000
   2.56500000000000         0.000000000000000E+000
   2.75500000000000         0.000000000000000E+000
   2.94500000000000         0.000000000000000E+000
   3.13500000000000         0.000000000000000E+000
   3.32500000000000         0.000000000000000E+000
   3.51500000000000         0.000000000000000E+000
   3.70500000000000         0.000000000000000E+000
   3.89500000000000         0.000000000000000E+000
   4.08500000000000         0.000000000000000E+000
   4.27500000000000         0.000000000000000E+000
   4.46500000000000         0.000000000000000E+000
   4.65500000000000         0.000000000000000E+000
   4.84500000000000         0.000000000000000E+000
   5.03500000000000         0.000000000000000E+000
   5.22500000000000         0.000000000000000E+000
   5.41500000000000         0.000000000000000E+000
   5.60500000000000         0.000000000000000E+000
   5.79500000000000         0.000000000000000E+000
   5.98500000000000         0.000000000000000E+000
   6.17500000000000         0.000000000000000E+000
   6.36500000000000         1.387339468988603E-166
   6.55500000000000        -2.200021666357755E-160
   6.74500000000000         6.273253378538455E-157
   6.93500000000000         5.970241761603152E-155
   7.12500000000000         4.323306898149059E-153
   7.31500000000000         1.796030585379393E-151
   7.50500000000000         4.509122149665862E-150
   7.69500000000000         6.968857054552428E-149
   7.88500000000000         1.220527881291731E-139
   8.07500000000000        -3.867480361090459E-133
   8.26500000000000        -2.093092314203616E-131
   8.45500000000000        -6.208991519021256E-130
   8.64500000000000        -1.378383571365979E-128
   8.83500000000000        -2.493838915991059E-127
   9.02500000000000        -3.716356785035289E-126
   9.21500000000000        -4.563426122625352E-125
   9.40500000000000        -4.649101369057356E-124
   9.59500000000000        -3.974085070345361E-123
   9.78500000000000        -2.883705888002232E-122
   9.97500000000000        -1.793343105588240E-121
   10.1650000000000        -9.615242953595212E-121
   10.3550000000000        -4.447637470462966E-120
   10.5450000000000        -1.760803477280057E-119
   10.7350000000000        -5.816223317593218E-119
   10.9250000000000        -1.488137652852590E-118
   11.1150000000000        -2.135574849319384E-118
   11.3050000000000         4.546753454879298E-118
   11.4950000000000         5.060436038053695E-117
   11.6850000000000         2.400631084110884E-116
   11.8750000000000         8.139178960672517E-116
   12.0650000000000         2.032653105489990E-115
   12.2550000000000         2.928380771183065E-115
   12.4450000000000        -4.111701882354491E-115
   12.6350000000000        -4.982126669933193E-114
   12.8250000000000        -2.228273530443893E-113
   13.0150000000000        -6.938537894430110E-113
   13.2050000000000        -1.494501848715165E-112
   13.3950000000000        -9.971822835909913E-113
   13.5850000000000         1.067425018513140E-111
   13.7750000000000         7.505093627314969E-111
   13.9650000000000         3.385418814031038E-110
   14.1550000000000         1.260507777129111E-109
   14.3450000000000         4.159107224150096E-109
   14.5350000000000         1.254568913502276E-108
   14.7250000000000         3.518237735550888E-108
   14.9150000000000         9.267384168660150E-108
   15.1050000000000         2.308749691468051E-107
   15.2950000000000         5.466870846920726E-107
   15.4850000000000         1.235169378123240E-106
   15.6750000000000         2.671704185282895E-106
   15.8650000000000         5.550379269962820E-106
   16.0550000000000         1.111345713295181E-105
   16.2450000000000         2.153702494018501E-105
   16.4350000000000         4.060940705708436E-105
   16.6250000000000         7.500455536235449E-105
   16.8150000000000         1.368139154280428E-104
   17.0050000000000         2.487342450035639E-104
   17.1950000000000         4.546982288783682E-104
   17.3850000000000         8.411945239844902E-104
   17.5750000000000         1.578614677724645E-103
   17.7650000000000         2.998376931837605E-103
   17.9550000000000         5.731057642228490E-103
   18.1450000000000         1.094390045511610E-102
   18.3350000000000         2.073275747522548E-102
   18.5250000000000         3.874157941670564E-102
   18.7150000000000         7.109471219721967E-102
   18.9050000000000         1.277145394926046E-101
   19.0950000000000         2.240162534501683E-101
   19.2850000000000         3.827327369163971E-101
   19.4750000000000         6.350513848838389E-101
   19.6650000000000         1.019024488360443E-100
   19.8550000000000         1.570802173580103E-100
   20.0450000000000         2.299746444849409E-100
   20.2350000000000         3.130540137017372E-100
   20.4250000000000         3.781956229345407E-100
   20.6150000000000         3.530073405155116E-100
   20.8050000000000         7.694041887009353E-101
   20.9950000000000        -7.766583275124544E-100
   21.1850000000000        -2.834008814526293E-099
   21.3750000000000        -7.242027478311410E-099
   21.5650000000000        -1.602366476656417E-098
   21.7550000000000        -3.263220246322823E-098
   21.9450000000000        -6.279031029644114E-098
   22.1350000000000        -1.157202664981335E-097
   22.3250000000000        -2.058845158967127E-097
   22.5150000000000        -3.553465508702424E-097
   22.7050000000000        -5.968067855222043E-097
   22.8950000000000        -9.772288265021857E-097
   23.0850000000000        -1.561693941922226E-096
   23.2750000000000        -2.436634196803895E-096
   23.4650000000000        -3.710813832193704E-096
   23.6550000000000        -5.511270708075040E-096
   23.8450000000000        -7.969837163442485E-096
   24.0350000000000        -1.119383995517016E-095
   24.2250000000000        -1.521226011554112E-095
   24.4150000000000        -1.988633037663238E-095
   24.6050000000000        -2.477182503466411E-095
   24.7950000000000        -2.892000370555842E-095
   24.9850000000000        -3.060640113814298E-095
   25.1750000000000        -2.698257965140579E-095
   25.3650000000000        -1.365644786714905E-095
   25.5550000000000         1.577827719320029E-095
   25.7450000000000         7.022539106887389E-095
   25.9350000000000         1.615292371003515E-094
   26.1250000000000         3.048211615118043E-094
   26.3150000000000         5.187358645468814E-094
   26.5050000000000         8.255314999485149E-094
   26.6950000000000         1.251279229228285E-093
   26.8850000000000         1.826498041539628E-093
   27.0750000000000         2.587893022350065E-093
   27.2650000000000         3.582162173575099E-093
   27.4550000000000         4.873047253702869E-093
   27.6450000000000         6.552682728147024E-093
   27.8350000000000         8.757448996607399E-093
   28.0250000000000         1.168636705368754E-092
   28.2150000000000         1.561577132027492E-092
   28.4050000000000         2.089657708980456E-092
   28.5950000000000         2.790888543094841E-092
   28.7850000000000         3.693214524445044E-092
   28.9750000000000         4.786755222287266E-092
   29.1650000000000         5.972422837353494E-092
   29.3550000000000         6.975596477425526E-092
   29.5450000000000         7.211879975889801E-092
   29.7350000000000         5.592476802095797E-092
   29.9250000000000         2.614059897942207E-093
   30.1150000000000        -1.173151972130918E-091
   30.3050000000000        -3.479572225619652E-091
   30.4950000000000        -7.513957269785973E-091
   30.6850000000000        -1.409654312024384E-090
   30.8750000000000        -2.423225101995133E-090
   31.0650000000000        -3.903193363558406E-090
   31.2550000000000        -5.952788608864907E-090
   31.4450000000000        -8.632953459503859E-090
   31.6350000000000        -1.190547940293033E-089
   31.8250000000000        -1.554682589280626E-089
   32.0150000000000        -1.902653150057555E-089
   32.2050000000000        -2.134698784113358E-089
   32.3950000000000        -2.084734976229975E-089
   32.5850000000000        -1.498474148863963E-089
   32.7750000000000        -1.219692564644076E-091
   32.9650000000000         2.862625698661885E-089
   33.1550000000000         7.740657000559605E-089
   33.3450000000000         1.533810430551852E-088
   33.5350000000000         2.640628787558096E-088
   33.7250000000000         4.160350130967058E-088
   33.9150000000000         6.128237706180923E-088
   34.1050000000000         8.516943880539241E-088
   34.2950000000000         1.119172700204768E-087
   34.4850000000000         1.385201802890283E-087
   34.6750000000000         1.596042642456546E-087
   34.8650000000000         1.666353537731280E-087
   35.0550000000000         1.471362920047833E-087
   35.2450000000000         8.406989015295875E-088
   35.4350000000000        -4.437456076307527E-088
   35.6250000000000        -2.642591727216078E-087
   35.8150000000000        -6.042098761437221E-087
   36.0050000000000        -1.092047972756705E-086
   36.1950000000000        -1.749176562881783E-086
   36.3850000000000        -2.582179282001465E-086
   36.5750000000000        -3.571224357588427E-086
   36.7650000000000        -4.655167222540725E-086
   36.9550000000000        -5.713763395135828E-086
   37.1450000000000        -6.548188345621105E-086
   37.3350000000000        -6.862143255636984E-086
   37.5250000000000        -6.247201056511144E-086
   37.7150000000000        -4.177656407907249E-086
   37.9050000000000        -2.184721465396598E-088
   38.0950000000000         6.921529191011206E-086
   38.2850000000000         1.735254218374896E-085
   38.4750000000000         3.185501032028443E-085
   38.6650000000000         5.072937487382541E-085
   38.8550000000000         7.376947864325685E-085
   39.0450000000000         9.998633019945921E-085
   39.2350000000000         1.272927014949983E-084
   39.4250000000000         1.521771988931802E-084
   39.6150000000000         1.694150567425064E-084
   39.8050000000000         1.718843066124386E-084
   39.9950000000000         1.505780292148695E-084
   40.1850000000000         9.492254271954544E-085
   40.3750000000000        -6.477552095146553E-086
   40.5650000000000        -1.645503760763657E-084
   40.7550000000000        -3.878336345509337E-084
   40.9450000000000        -6.798859748071041E-084
   41.1350000000000        -1.036100454495969E-083
   41.3250000000000        -1.440132499615233E-083
   41.5150000000000        -1.860345549351663E-083
   41.7050000000000        -2.246905895851309E-083
   41.8950000000000        -2.530402624110668E-083
   42.0850000000000        -2.623090724776382E-083
   42.2750000000000        -2.423996803689739E-083
   42.4650000000000        -1.829106980635410E-083
   42.6550000000000        -7.475753008538026E-084
   42.8450000000000         8.757646791931163E-084
   43.0350000000000         3.032443572647974E-083
   43.2250000000000         5.619525138068830E-083
   43.4150000000000         8.410776566354406E-083
   43.6050000000000         1.103753273773798E-082
   43.7950000000000         1.299002676353222E-082
   43.9850000000000         1.365282912748152E-082
   44.1750000000000         1.238994342971326E-082
   44.3650000000000         8.694972990338517E-083
   44.5550000000000         2.418204010255837E-083
   44.7450000000000        -5.926203162433397E-083
   44.9350000000000        -1.478520908623958E-082
   45.1250000000000        -2.116024363009206E-082
   45.3150000000000        -2.023825540641256E-082
   45.5050000000000        -5.171973122677020E-083
   45.6950000000000         3.283031607250507E-082
   45.8850000000000         1.038950219731869E-081
   46.0750000000000         2.181007422125387E-081
   46.2650000000000         3.830494546398982E-081
   46.4550000000000         6.001376905649023E-081
   46.6450000000000         8.593581498686546E-081
   46.8350000000000         1.132638161417587E-080
   47.0250000000000         1.366017238091740E-080
   47.2150000000000         1.471405842180939E-080
   47.4050000000000         1.319264375666443E-080
   47.5950000000000         7.342877101069985E-081
   47.7850000000000        -5.029638013528723E-081
   47.9750000000000        -2.644666796219830E-080
   48.1650000000000        -5.949993397853734E-080
   48.3550000000000        -1.064002819487128E-079
   48.5450000000000        -1.682855551708497E-079
   48.7350000000000        -2.442513214557370E-079
   48.9250000000000        -3.300947609698075E-079
   49.1150000000000        -4.168066239929823E-079
   49.3050000000000        -4.889130379215295E-079
   49.4950000000000        -5.228604455937080E-079
   49.6850000000000        -4.857527437988011E-079
   49.8750000000000        -3.348851589759993E-079
   50.0650000000000        -1.866396080115262E-080
   50.2550000000000         5.203635402973099E-079
   50.4450000000000         1.339545673593202E-078
   50.6350000000000         2.486382516611875E-078
   50.8250000000000         3.984251852153889E-078
   51.0150000000000         5.813130478285324E-078
   51.2050000000000         7.885348398544541E-078
   51.3950000000000         1.001721915070777E-077
   51.5850000000000         1.189853315384146E-077
   51.7750000000000         1.306340103256260E-077
   51.9650000000000         1.286776743035703E-077
   52.1550000000000         1.048100026530832E-077
   52.3450000000000         4.901134766048456E-078
   52.5350000000000        -4.994640783742158E-078
   52.7250000000000        -2.035119587698814E-077
   52.9150000000000        -4.217484326087925E-077
   53.1050000000000        -7.109852530002250E-077
   53.2950000000000        -1.070638729381787E-076
   53.4850000000000        -1.489177031506298E-076
   53.6750000000000        -1.939308275956736E-076
   53.8650000000000        -2.372618730364796E-076
   54.0550000000000        -2.714087294147613E-076
   54.2450000000000        -2.857155627727560E-076
   54.4350000000000        -2.660339997310731E-076
   54.6250000000000        -1.946725142333390E-076
   54.8150000000000        -5.080688928126435E-077
   55.0050000000000         1.884354742767880E-076
   55.1950000000000         5.459674533164794E-076
   55.3850000000000         1.041531658045325E-075
   55.5750000000000         1.686997096687314E-075
   55.7650000000000         2.479890261311676E-075
   55.9550000000000         3.394951993330178E-075
   56.1450000000000         4.373645962550897E-075
   56.3350000000000         5.311780857376343E-075
   56.5250000000000         6.045786293651913E-075
   56.7150000000000         6.338749559135391E-075
   56.9050000000000         5.868128609618036E-075
   57.0950000000000         4.218155253945350E-075
   57.2850000000000         8.813638052224835E-076
   57.4750000000000        -4.724580916232924E-075
   57.6650000000000        -1.321660210115980E-074
   57.8550000000000        -2.517228910340814E-074
   58.0450000000000        -4.101042006574213E-074
   58.2350000000000        -6.081317705843006E-074
   58.4250000000000        -8.407823536584108E-074
   58.6150000000000        -1.093928313098256E-073
   58.8050000000000        -1.340303955691090E-073
   58.9950000000000        -1.534852494043449E-073
   59.1850000000000        -1.609842041565616E-073
   59.3750000000000        -1.470475068513776E-073
   59.5650000000000        -9.921656900797063E-074
   59.7550000000000        -2.121976096747296E-075
   59.9450000000000         1.618704153256087E-073
   60.1350000000000         4.111315222035528E-073
   60.3250000000000         7.619996687152142E-073
   60.5150000000000         1.224383195740891E-072
   60.7050000000000         1.795376504974951E-072
   60.8950000000000         2.450648912069089E-072
   61.0850000000000         3.133615518917707E-072
   61.2750000000000         3.742827456515456E-072
   61.4650000000000         4.118669919803157E-072
   61.6550000000000         4.031363294668454E-072
   61.8450000000000         3.173431865658791E-072
   62.0350000000000         1.161196578118594E-072
   62.2250000000000        -2.448646651215387E-072
   62.4150000000000        -8.119890814396943E-072
   62.6050000000000        -1.626666706028234E-071
   62.7950000000000        -2.714374245071103E-071
   62.9850000000000        -4.069018707359536E-071
   63.1750000000000        -5.632309992050484E-071
   63.3650000000000        -7.268502406702250E-071
   63.5550000000000        -8.735964400838883E-071
   63.7450000000000        -9.658601083653208E-071
   63.9350000000000        -9.502213272234271E-071
   64.1250000000000        -7.563380515191488E-071
   64.3150000000000        -2.981240865217755E-071
   64.5050000000000         5.214713150783991E-071
   64.6950000000000         1.800551594649007E-070
   64.8850000000000         3.621611051472125E-070
   65.0750000000000         6.026650489158297E-070
   65.2650000000000         8.983098690253786E-070
   65.4550000000000         1.234056338094629E-069
   65.6450000000000         1.578006407346665E-069
   65.8350000000000         1.875977616402079E-069
   66.0250000000000         2.046449643479640E-069
   66.2150000000000         1.976997434203698E-069
   66.4050000000000         1.523772850608743E-069
   66.5950000000000         5.160545886494368E-070
   66.7850000000000        -1.231718255042934E-069
   66.9750000000000        -3.897786292400758E-069
   67.1650000000000        -7.618224054767457E-069
   67.3550000000000        -1.243741756923567E-068
   67.5450000000000        -1.824312795646510E-068
   67.7350000000000        -2.468754433312825E-068
   67.9250000000000        -3.109893188387882E-068
   68.1150000000000        -3.639284643755701E-068
   68.3050000000000        -3.899738210949716E-068
   68.4950000000000        -3.681330332303885E-068
   68.6850000000000        -2.723665844605848E-068
   68.8750000000000        -7.277682725658936E-069
   69.0650000000000         2.618585742432342E-068
   69.2550000000000         7.598204513490023E-068
   69.4450000000000         1.440113035992706E-067
   69.6350000000000         2.303860660487092E-067
   69.8250000000000         3.323485139761152E-067
   70.0150000000000         4.430096237708113E-067
   70.2050000000000         5.500062378176622E-067
   70.3950000000000         6.342415581637600E-067
   70.5850000000000         6.689560650912640E-067
   70.7750000000000         6.194647882033524E-067
   70.9650000000000         4.439832351311478E-067
   71.1550000000000         9.603317691975723E-068
   71.3450000000000        -4.710495446308021E-067
   71.5350000000000        -1.297015758771117E-066
   71.7250000000000        -2.404649271846380E-066
   71.9150000000000        -3.786647794827372E-066
   72.1050000000000        -5.389735078775549E-066
   72.2950000000000        -7.096886100474562E-066
   72.4850000000000        -8.709317242870731E-066
   72.6750000000000        -9.930831255395089E-066
   72.8650000000000        -1.035816079974563E-065
   73.0550000000000        -9.482028214920983E-066
   73.2450000000000        -6.704582559808132E-066
   73.4350000000000        -1.379478319660479E-066
   73.6250000000000         7.119145465662253E-066
   73.8150000000000         1.929346024521775E-065
   74.0050000000000         3.538140013499273E-065
   74.1950000000000         5.517947693678880E-065
   74.3850000000000         7.783537844941397E-065
   74.5750000000000         1.016245212408874E-064
   74.7650000000000         1.237344374294272E-064
   74.9550000000000         1.400921397177301E-064
   75.1450000000000         1.452816012550756E-064
   75.3350000000000         1.326098562569591E-064
   75.5250000000000         9.438903464491341E-065
   75.7150000000000         2.250534656783633E-065
   75.9050000000000        -9.065845266093715E-065
   76.0950000000000        -2.508967129789555E-064
   76.2850000000000        -4.604315355156677E-064
   76.4750000000000        -7.157708551101859E-064
   76.6650000000000        -1.005274327279676E-063
   76.8550000000000        -1.306617951707684E-063
   77.0450000000000        -1.584457105462558E-063
   77.2350000000000        -1.788708414234888E-063
   77.4250000000000        -1.853992872918068E-063
   77.6150000000000        -1.700889709034503E-063
   77.8050000000000        -1.239720865148877E-063
   77.9950000000000        -3.775924840846199E-064
   78.1850000000000         9.706689779702364E-064
   78.3750000000000         2.867265746555146E-063
   78.5650000000000         5.331820226509537E-063
   78.7550000000000         8.317929384191594E-063
   78.9450000000000         1.168716264826837E-062
   79.1350000000000         1.518273267717941E-062
   79.3250000000000         1.840616761500679E-062
   79.5150000000000         2.080148797096590E-062
   79.7050000000000         2.165252113039276E-062
   79.8950000000000         2.009990278456094E-062
   80.0850000000000         1.518479911710625E-062
   80.2750000000000         5.926175343046869E-063
   80.4650000000000        -8.562754199165498E-063
   80.6550000000000        -2.891572461086325E-062
   80.8450000000000        -5.531309839776456E-062
   81.0350000000000        -8.724656858826710E-062
   81.2250000000000        -1.232629019778013E-061
   81.4150000000000        -1.607097942737720E-061
   81.6050000000000        -1.955171105827846E-061
   81.7950000000000        -2.220573473505689E-061
   81.9850000000000        -2.331389003295563E-061
   82.1750000000000        -2.201930682279696E-061
   82.3650000000000        -1.737186797897457E-061
   82.5550000000000        -8.404450245424105E-062
   82.7450000000000         5.754329441354273E-062
   82.9350000000000         2.572857896475007E-061
   83.1250000000000         5.170632444327830E-061
   83.3150000000000         8.322022512055223E-061
   83.5050000000000         1.189113437090285E-060
   83.6950000000000         1.562975166245514E-060
   83.8850000000000         1.915767142859883E-060
   84.0750000000000         2.195047413535690E-060
   84.2650000000000         2.333946586655873E-060
   84.4550000000000         2.252910419085769E-060
   84.6450000000000         1.863739544862525E-060
   84.8350000000000         1.076434052819346E-060
   85.0250000000000        -1.907690479138188E-061
   85.2150000000000        -1.997994537602437E-060
   85.4050000000000        -4.367122533800748E-060
   85.5950000000000        -7.262585577515464E-060
   85.7850000000000        -1.057074536039810E-059
   85.9750000000000        -1.407969170816890E-059
   86.1650000000000        -1.746203453102972E-059
   86.3550000000000        -2.026398884938657E-059
   86.5450000000000        -2.190469843774127E-059
   86.7350000000000        -2.169019464261630E-059
   86.9250000000000        -1.884651051653871E-059
   87.1150000000000        -1.257611735803321E-059
   87.3050000000000        -2.140866417520584E-060
   87.4950000000000         1.302714140731639E-059
   87.6850000000000         3.318798376014788E-059
   87.8750000000000         5.813446259053977E-059
   88.0650000000000         8.702009637298513E-059
   88.2550000000000         1.181891652215857E-058
   88.4450000000000         1.490291669705543E-058
   88.6350000000000         1.758718011763363E-058
   88.8250000000000         1.939737093444341E-058
   89.0150000000000         1.976118205044205E-058
   89.2050000000000         1.803292714603513E-058
   89.3950000000000         1.353653617929959E-058
   89.5850000000000         5.629569820975316E-059
   89.7750000000000        -6.210450676651483E-059
   89.9650000000000        -2.227809458273764E-058
   90.1550000000000        -4.251386053050966E-058
   90.3450000000000        -6.636661781558014E-058
   90.5350000000000        -9.265546456728741E-058
   90.7250000000000        -1.194461951333698E-057
   90.9150000000000        -1.439619857969725E-057
   91.1050000000000        -1.625518872517944E-057
   91.2950000000000        -1.707436406256100E-057
   91.4850000000000        -1.634084756367577E-057
   91.6750000000000        -1.350640812060100E-057
   91.8650000000000        -8.033700637327211E-058
   92.0550000000000         5.403449651502856E-059
   92.2450000000000         1.252419072652296E-057
   92.4350000000000         2.797655517554520E-057
   92.6250000000000         4.660107034385969E-057
   92.8150000000000         6.763822700139060E-057
   93.0050000000000         8.976530748692701E-057
   93.1950000000000         1.110182792368533E-056
   93.3850000000000         1.287526370297929E-056
   93.5750000000000         1.396625124422189E-056
   93.7650000000000         1.398785024641280E-056
   93.9550000000000         1.251640289477653E-056
   94.1450000000000         9.122702404032417E-057
   94.3350000000000         3.415777102342578E-057
   94.5250000000000        -4.900565562493527E-057
   94.7150000000000        -1.595959923535275E-056
   94.9050000000000        -2.965478450281491E-056
   95.0950000000000        -4.555896677132591E-056
   95.2850000000000        -6.284675400225071E-056
   95.4750000000000        -8.022948986788783E-056
   95.6650000000000        -9.591443718488333E-056
   95.8550000000000        -1.076015771491374E-055
   96.0450000000000        -1.125324721097985E-055
   96.2350000000000        -1.076055481040015E-055
   96.4250000000000        -8.957052154493056E-056
   96.6150000000000        -5.531112950043601E-056
   96.8050000000000        -2.219492103405098E-057
   96.9950000000000         7.134287753529721E-056
   97.1850000000000         1.655132313928247E-055
   97.3750000000000         2.783538626006212E-055
   97.5650000000000         4.052803575910991E-055
   97.7550000000000         5.385514601329332E-055
   97.9450000000000         6.668955139186521E-055
   98.1350000000000         7.753615951164357E-055
   98.3250000000000         8.454922731687566E-055
   98.5150000000000         8.559170039635622E-055
   98.7050000000000         7.834578512522889E-055
   98.8950000000000         6.048199749263522E-055
   99.0850000000000         2.989058580043961E-055
   99.2750000000000        -1.502570384547299E-055
   99.4650000000000        -7.500511639609725E-055
   99.6550000000000        -1.495423420642892E-054
   99.8450000000000        -2.364910309106800E-054
   100.035000000000        -3.316886154551867E-054
   100.225000000000        -4.286488581022169E-054
   100.415000000000        -5.183767133102780E-054
   100.605000000000        -5.893670111079730E-054
   100.795000000000        -6.278516619675935E-054
   100.985000000000        -6.183579562865938E-054
   101.175000000000        -5.446314725002299E-054
   101.365000000000        -3.909596431357607E-054
   101.555000000000        -1.439050166859959E-054
   101.745000000000         2.055798905791372E-054
   101.935000000000         6.597313213715492E-054
   102.125000000000         1.211377474648033E-053
   102.315000000000         1.841358922579526E-053
   102.505000000000         2.516223017593605E-053
   102.695000000000         3.186509741373923E-053
   102.885000000000         3.785996781304418E-053
   103.075000000000         4.232303276874715E-053
   103.265000000000         4.429255382183383E-053
   103.455000000000         4.271382900735315E-053
   103.645000000000         3.650835571363419E-053
   103.835000000000         2.466872400495967E-053
   104.025000000000         6.378827218954061E-054
   104.215000000000        -1.884357554627808E-053
   104.405000000000        -5.098802291448807E-053
   104.595000000000        -8.938587864577481E-053
   104.785000000000        -1.325516769934388E-052
   104.975000000000        -1.780485340477788E-052
   105.165000000000        -2.223982795240932E-052
   105.355000000000        -2.610595354401178E-052
   105.545000000000        -2.884981938477571E-052
   105.735000000000        -2.983740757328804E-052
   105.925000000000        -2.838644397787464E-052
   106.115000000000        -2.381389590720016E-052
   106.305000000000        -1.549914190995150E-052
   106.495000000000        -2.962052361448382E-053
   106.685000000000         1.404640957255290E-052
   106.875000000000         3.544538639856556E-052
   107.065000000000         6.072359053870920E-052
   107.255000000000         8.884573495489970E-052
   107.445000000000         1.181767744247198E-051
   107.635000000000         1.464366289544527E-051
   107.825000000000         1.706993040412444E-051
   108.015000000000         1.874506841792993E-051
   108.205000000000         1.927184465384553E-051
   108.395000000000         1.822852240832790E-051
   108.585000000000         1.519920880942373E-051
   108.775000000000         9.813344580752373E-052
   108.965000000000         1.793650703436731E-052
   109.155000000000        -8.989132605479060E-052
   109.345000000000        -2.245751371963421E-051
   109.535000000000        -3.826855766843565E-051
   109.725000000000        -5.576052132231561E-051
   109.915000000000        -7.391126810750489E-051
   110.105000000000        -9.131586041277414E-051