  -1.42500000000000         0.000000000000000E+000
  -1.23500000000000         8.227636770516962E-015
  -1.04500000000000         1.115175727907492E-014
 -0.855000000000000        -5.514385496025800E-014
 -0.665000000000000        -8.585798970460283E-013
 -0.475000000000000        -5.207830839947140E-012
 -0.285000000000000        -2.320017243183015E-011
 -9.499999999999975E-002   -8.238769124925559E-011
  9.500000000000020E-002   -2.492429588999752E-010
  0.285000000000000        -6.598158451092770E-010
  0.475000000000000        -1.541900481558302E-009
  0.665000000000000        -3.271931233034026E-009
  0.855000000000000        -6.279034695383349E-009
   1.04500000000000        -1.107749025498796E-008
   1.23500000000000        -1.815014533547721E-008
   1.42500000000000        -2.778689475928273E-008
   1.61500000000000        -3.997046015226471E-008
   1.80500000000000        -5.419612535328377E-008
   1.99500000000000        -6.946443901890650E-008
   2.18500000000000        -8.417568324024696E-008
   2.37500000000000        -9.636807468034953E-008
   2.56500000000000        -1.031590656446449E-007
   2.75500000000000        -1.022147374816143E-007
   2.94500000000000        -9.039542525946797E-008
   3.13500000000000        -6.733729080593860E-008
   3.32500000000000        -3.304777932948586E-008
   3.51500000000000         1.187392171761729E-008
   3.70500000000000         6.531781065597104E-008
   3.89500000000000         1.243044910198247E-007
   4.08500000000000         1.854965610240119E-007
   4.27500000000000         2.455393201587334E-007
   4.46500000000000         3.013727461021751E-007
   4.65500000000000         3.507464500450129E-007
   4.84500000000000         3.918981802564781E-007
   5.03500000000000         4.234276674024270E-007
   5.22500000000000         4.456567105898737E-007
   5.41500000000000         4.579822872346082E-007
   5.60500000000000         4.603219807546747E-007
   5.79500000000000         4.533050173738761E-007
   5.98500000000000         4.367778157832830E-007
   6.17500000000000         4.107375481641957E-007
   6.36500000000000         3.773272887538683E-007
   6.55500000000000         3.378010010897748E-007
   6.74500000000000         2.944872426068943E-007
   6.93500000000000         2.529529950025515E-007
   7.12500000000000         2.161229002864666E-007
   7.31500000000000         1.882900795632454E-007
   7.50500000000000         1.727606230689171E-007
   7.69500000000000         1.714629928975957E-007
   7.88500000000000         1.858617503822461E-007
   8.07500000000000         2.153866595615418E-007
   8.26500000000000         2.611296123974364E-007
   8.45500000000000         3.122552957248829E-007
   8.64500000000000         3.698468269527365E-007
   8.83500000000000         4.239799309325336E-007
   9.02500000000000         4.721480266056558E-007
   9.21500000000000         5.129063245854228E-007
   9.40500000000000         5.434409286000468E-007
   9.59500000000000         5.638024937364122E-007
   9.78500000000000         5.766417485639869E-007
   9.97500000000000         5.798015483369920E-007
   10.1650000000000         5.787330358339257E-007
   10.3550000000000         5.740894692142748E-007
   10.5450000000000         5.666759440797848E-007
   10.7350000000000         5.574550555780302E-007
   10.9250000000000         5.451769419456131E-007
   11.1150000000000         5.250163975464396E-007
   11.3050000000000         4.988299830720847E-007
   11.4950000000000         4.673196419264645E-007
   11.6850000000000         4.333427624615343E-007
   11.8750000000000         3.995548077294596E-007
   12.0650000000000         3.670102995643507E-007
   12.2550000000000         3.420306711807535E-007
   12.4450000000000         3.258556480895013E-007
   12.6350000000000         3.193445832371267E-007
   12.8250000000000         3.212014473338558E-007
   13.0150000000000         3.307729447996236E-007
   13.2050000000000         3.359144620444635E-007
   13.3950000000000         3.379491805931021E-007
   13.5850000000000         3.196184165600350E-007
   13.7750000000000         2.842255672614819E-007
   13.9650000000000         2.255379869028587E-007
   14.1550000000000         1.431800316881064E-007
   14.3450000000000         4.377424419772758E-008
   14.5350000000000        -6.640084858749331E-008
   14.7250000000000        -1.789428441262500E-007
   14.9150000000000        -2.852764042984432E-007
   15.1050000000000        -3.764903959619602E-007
   15.2950000000000        -4.507573248000113E-007
   15.4850000000000        -5.038749325857014E-007
   15.6750000000000        -5.319711586060532E-007
   15.8650000000000        -5.348388511436232E-007
   16.0550000000000        -5.123636530043991E-007
   16.2450000000000        -4.656987141177138E-007
   16.4350000000000        -3.987783660713744E-007
   16.6250000000000        -3.104559027786633E-007
   16.8150000000000        -2.014115372758229E-007
   17.0050000000000        -7.365912696635495E-008
   17.1950000000000         6.899589872524175E-008
   17.3850000000000         2.201212421701288E-007
   17.5750000000000         3.720301123677861E-007
   17.7650000000000         5.132792179749555E-007
   17.9550000000000         6.294392120386349E-007
   18.1450000000000         7.055463146442877E-007
   18.3350000000000         7.334247550334610E-007
   18.5250000000000         7.068238433845609E-007
   18.7150000000000         6.180459468176307E-007
   18.9050000000000         4.755368258714708E-007
   19.0950000000000         2.905577353815101E-007
   19.2850000000000         7.829875963465649E-008
   19.4750000000000        -1.427492405745707E-007
   19.6650000000000        -3.535210542019599E-007
   19.8550000000000        -5.367308597705576E-007
   20.0450000000000        -6.788129584110313E-007
   20.2350000000000        -7.730164185309632E-007
   20.4250000000000        -8.149126365423212E-007
   20.6150000000000        -8.044300183496005E-007
   20.8050000000000        -7.421759585492182E-007
   20.9950000000000        -6.397049312633369E-007
   21.1850000000000        -5.001442740842518E-007
   21.3750000000000        -3.346863092919191E-007
   21.5650000000000        -1.505547260594892E-007
   21.7550000000000         4.419872288825072E-008
   21.9450000000000         2.415256719480144E-007
   22.1350000000000         4.319307979420384E-007
   22.3250000000000         6.049889559096900E-007
   22.5150000000000         7.485984880669132E-007
   22.7050000000000         8.495278742411697E-007
   22.8950000000000         9.018791702134948E-007
   23.0850000000000         8.901962172449768E-007
   23.2750000000000         8.165904790090452E-007
   23.4650000000000         6.846089229254939E-007
   23.6550000000000         5.046467108330444E-007
   23.8450000000000         2.832985867257116E-007
   24.0350000000000         5.336193575421225E-008
   24.2250000000000        -1.636768846981129E-007
   24.4150000000000        -3.438871199845440E-007
   24.6050000000000        -4.695653712497476E-007
   24.7950000000000        -5.184372476602911E-007
   24.9850000000000        -4.873400490020354E-007
   25.1750000000000        -3.789948397914603E-007
   25.3650000000000        -2.020267555398743E-007
   25.5550000000000         2.668139675782752E-008
   25.7450000000000         2.889374405640037E-007
   25.9350000000000         5.637332025571317E-007
   26.1250000000000         8.302808683123200E-007
   26.3150000000000         1.068699338599465E-006
   26.5050000000000         1.269091780987655E-006
   26.6950000000000         1.417836162010235E-006
   26.8850000000000         1.504711283490316E-006
   27.0750000000000         1.522518628259758E-006
   27.2650000000000         1.469173193546693E-006
   27.4550000000000         1.348623304295349E-006
   27.6450000000000         1.162049533764045E-006
   27.8350000000000         9.187670537564900E-007
   28.0250000000000         6.311083812366109E-007
   28.2150000000000         3.173502262347643E-007
   28.4050000000000        -4.388779193310079E-009
   28.5950000000000        -3.030507604025453E-007
   28.7850000000000        -5.562005421883167E-007
   28.9750000000000        -7.376320912940927E-007
   29.1650000000000        -8.345183926866678E-007
   29.3550000000000        -8.344014786064030E-007
   29.5450000000000        -7.244063186690812E-007
   29.7350000000000        -5.256162773647677E-007
   29.9250000000000        -2.549804361742770E-007
   30.1150000000000         6.102685213679549E-008
   30.3050000000000         3.898485327973822E-007
   30.4950000000000         6.978629414110524E-007
   30.6850000000000         9.535892863377649E-007
   30.8750000000000         1.137900539147769E-006
   31.0650000000000         1.234834761629932E-006
   31.2550000000000         1.230045740137846E-006
   31.4450000000000         1.134394761745791E-006
   31.6350000000000         9.560227755387747E-007
   31.8250000000000         7.148360101415944E-007
   32.0150000000000         4.282710664765659E-007
   32.2050000000000         1.168445288430636E-007
   32.3950000000000        -1.969835453170787E-007
   32.5850000000000        -4.976722102431422E-007
   32.7750000000000        -7.662807961697644E-007
   32.9650000000000        -9.883855031031908E-007
   33.1550000000000        -1.151273867427529E-006
   33.3450000000000        -1.245173113445872E-006
   33.5350000000000        -1.262770101609861E-006
   33.7250000000000        -1.201240172936358E-006
   33.9150000000000        -1.064814434314687E-006
   34.1050000000000        -8.610097704105834E-007
   34.2950000000000        -5.966289373828923E-007
   34.4850000000000        -2.932383254683926E-007
   34.6750000000000         2.284664688510378E-008
   34.8650000000000         3.265826892156343E-007
   35.0550000000000         5.924183403036570E-007
   35.2450000000000         7.984213412998558E-007
   35.4350000000000         9.288514887781690E-007
   35.6250000000000         9.774949993796761E-007
   35.8150000000000         9.452434932385796E-007
   36.0050000000000         8.354212399135776E-007
   36.1950000000000         6.706234214382352E-007
   36.3850000000000         4.682494380409466E-007
   36.5750000000000         2.506684147040373E-007
   36.7650000000000         3.809596851163232E-008
   36.9550000000000        -1.537368397156415E-007
   37.1450000000000        -3.158589642284122E-007
   37.3350000000000        -4.430966955785228E-007
   37.5250000000000        -5.334334462542739E-007
   37.7150000000000        -5.903063950831811E-007
   37.9050000000000        -6.156762248167022E-007
   38.0950000000000        -6.144224022887910E-007
   38.2850000000000        -5.994767592181888E-007
   38.4750000000000        -5.685969095844686E-007
   38.6650000000000        -5.222047887198820E-007
   38.8550000000000        -4.646217206092294E-007
   39.0450000000000        -3.982793481143391E-007
   39.2350000000000        -3.271758031033747E-007
   39.4250000000000        -2.571551584077677E-007
   39.6150000000000        -1.949193316648178E-007
   39.8050000000000        -1.465139099721614E-007
   39.9950000000000        -1.157174834443608E-007
   40.1850000000000        -1.101209707417131E-007
   40.3750000000000        -1.286484258367772E-007
   40.5650000000000        -1.759799458062231E-007
   40.7550000000000        -2.376037801279334E-007
   40.9450000000000        -3.057796259323126E-007
   41.1350000000000        -3.698536623828500E-007
   41.3250000000000        -4.196812228420603E-007
   41.5150000000000        -4.447338825800375E-007
   41.7050000000000        -4.481797287022808E-007
   41.8950000000000        -4.269151082847464E-007
   42.0850000000000        -3.762166602195784E-007
   42.2750000000000        -3.065281627925868E-007
   42.4650000000000        -2.245316115342225E-007
   42.6550000000000        -1.347111412066135E-007
   42.8450000000000        -4.006111017058707E-008
   43.0350000000000         5.882869326667579E-008
   43.2250000000000         1.632543981545275E-007
   43.4150000000000         2.766564808556606E-007
   43.6050000000000         4.020548130752313E-007
   43.7950000000000         5.398283258407421E-007
   43.9850000000000         6.886920482570347E-007
   44.1750000000000         8.432351088189916E-007
   44.3650000000000         9.945345790379125E-007
   44.5550000000000         1.130341077286534E-006
   44.7450000000000         1.235401510591705E-006
   44.9350000000000         1.307255792078293E-006
   45.1250000000000         1.335604548745930E-006
   45.3150000000000         1.304233009431179E-006
   45.5050000000000         1.225977220466291E-006
   45.6950000000000         1.103585930019983E-006
   45.8850000000000         9.468092394202760E-007
   46.0750000000000         7.676169808585596E-007
   46.2650000000000         5.781456357229020E-007
   46.4550000000000         3.896925834818697E-007
   46.6450000000000         2.100088497793157E-007
   46.8350000000000         4.257126205055755E-008
   47.0250000000000        -1.061169396649929E-007
   47.2150000000000        -2.307392162162143E-007
   47.4050000000000        -3.367303467548606E-007
   47.5950000000000        -4.213782474585809E-007
   47.7850000000000        -4.809148676721067E-007
   47.9750000000000        -5.145026593512096E-007
   48.1650000000000        -5.163132725590526E-007
   48.3550000000000        -4.861902060385548E-007
   48.5450000000000        -4.267683719136777E-007
   48.7350000000000        -3.410599005088275E-007
   48.9250000000000        -2.364834685299168E-007
   49.1150000000000        -1.197075032779867E-007
   49.3050000000000        -1.080145425907478E-008
   49.4950000000000         8.426575965765399E-008
   49.6850000000000         1.441893075315407E-007
   49.8750000000000         1.650188321605014E-007
   50.0650000000000         1.420073904051863E-007
   50.2550000000000         6.847970718918408E-008
   50.4450000000000        -4.010879986084965E-008
   50.6350000000000        -1.741975521048835E-007
   50.8250000000000        -3.180346561174368E-007
   51.0150000000000        -4.543504984592393E-007
   51.2050000000000        -5.764918330819125E-007
   51.3950000000000        -6.711689546607634E-007
   51.5850000000000        -7.259888709848494E-007
   51.7750000000000        -7.457195307797490E-007
   51.9650000000000        -7.327147219660933E-007
   52.1550000000000        -6.927928631167783E-007
   52.3450000000000        -6.339322082051349E-007
   52.5350000000000        -5.634849271386632E-007
   52.7250000000000        -4.829623315088213E-007
   52.9150000000000        -3.999341422238157E-007
   53.1050000000000        -3.213734804421803E-007
   53.2950000000000        -2.505454016278213E-007
   53.4850000000000        -1.878759442476957E-007
   53.6750000000000        -1.355603510410071E-007
   53.8650000000000        -1.024325792411305E-007
   54.0550000000000        -9.024818464959505E-008
   54.2450000000000        -1.004169972292207E-007
   54.4350000000000        -1.329429356683017E-007
   54.6250000000000        -1.870745260383371E-007
   54.8150000000000        -2.576735808167289E-007
   55.0050000000000        -3.369901997537593E-007
   55.1950000000000        -4.150876313943339E-007
   55.3850000000000        -4.804601349981019E-007
   55.5750000000000        -5.204052236503569E-007
   55.7650000000000        -5.277004710713351E-007
   55.9550000000000        -4.904518875428474E-007
   56.1450000000000        -4.096844218795549E-007
   56.3350000000000        -2.952669862501585E-007
   56.5250000000000        -1.565880350414672E-007
   56.7150000000000        -7.936649646046138E-009
   56.9050000000000         1.355914493296591E-007
   57.0950000000000         2.598512830025775E-007
   57.2850000000000         3.557988688423645E-007
   57.4750000000000         4.222528227976398E-007
   57.6650000000000         4.558920897284195E-007
   57.8550000000000         4.590855268889242E-007
   58.0450000000000         4.460203253723866E-007
   58.2350000000000         4.256519836433067E-007
   58.4250000000000         4.063106229805874E-007
   58.6150000000000         3.965316956474344E-007
   58.8050000000000         3.924678128302832E-007
   58.9950000000000         3.955276405741131E-007
   59.1850000000000         4.060598158244284E-007
   59.3750000000000         4.093083523947832E-007
   59.5650000000000         4.025120888315390E-007
   59.7550000000000         3.781402147536259E-007
   59.9450000000000         3.315339296812981E-007
   60.1350000000000         2.536258281204725E-007
   60.3250000000000         1.525767341903838E-007
   60.5150000000000         3.120097495798902E-008
   60.7050000000000        -1.043870082080075E-007
   60.8950000000000        -2.470601265204148E-007
   61.0850000000000        -3.905336739113851E-007
   61.2750000000000        -5.299234343205053E-007
   61.4650000000000        -6.578330148089559E-007
   61.6550000000000        -7.681166271830098E-007
   61.8450000000000        -8.538900257757852E-007
   62.0350000000000        -9.081443746844496E-007
   62.2250000000000        -9.252580448351956E-007
   62.4150000000000        -9.067739273950259E-007
   62.6050000000000        -8.398682998375091E-007
   62.7950000000000        -7.249607614513316E-007
   62.9850000000000        -5.651425752754591E-007
   63.1750000000000        -3.678484949504493E-007
   63.3650000000000        -1.464920526927274E-007
   63.5550000000000         8.319568275842292E-008
   63.7450000000000         3.030629808665416E-007
   63.9350000000000         4.865052419504164E-007
   64.1250000000000         6.121511540593225E-007
   64.3150000000000         6.666924102865363E-007
   64.5050000000000         6.384455498071750E-007
   64.6950000000000         5.319842534488980E-007
   64.8850000000000         3.574941333449310E-007
   65.0750000000000         1.238905148317596E-007
   65.2650000000000        -1.392192079279944E-007
   65.4550000000000        -4.045551880091472E-007
   65.6450000000000        -6.451858795290949E-007
   65.8350000000000        -8.365609922743099E-007
   66.0250000000000        -9.596821471094020E-007
   66.2150000000000        -1.004620477721626E-006
   66.4050000000000        -9.683942799624886E-007
   66.5950000000000        -8.583124483711167E-007
   66.7850000000000        -6.852577999067383E-007
   66.9750000000000        -4.651530545715542E-007
   67.1650000000000        -2.201807950176897E-007
   67.3550000000000         2.637450613153739E-008
   67.5450000000000         2.518621398812369E-007
   67.7350000000000         4.350780856876530E-007
   67.9250000000000         5.619849597778248E-007
   68.1150000000000         6.164559302484719E-007
   68.3050000000000         5.920879917697325E-007
   68.4950000000000         4.837062571130570E-007
   68.6850000000000         2.940449862794348E-007
   68.8750000000000         3.337670308078758E-008
   69.0650000000000        -2.832748094262545E-007
   69.2550000000000        -6.351815865425189E-007
   69.4450000000000        -9.969503924534481E-007
   69.6350000000000        -1.337701771260959E-006
   69.8250000000000        -1.628754456155307E-006
   70.0150000000000        -1.843679732153137E-006
   70.2050000000000        -1.962967575533041E-006
   70.3950000000000        -1.972908039458130E-006
   70.5850000000000        -1.872116764054490E-006
   70.7750000000000        -1.665843731240735E-006
   70.9650000000000        -1.369336815617710E-006
   71.1550000000000        -1.010534998648877E-006
   71.3450000000000        -6.196389843179283E-007
   71.5350000000000        -2.288815207954719E-007
   71.7250000000000         1.312602205014313E-007
   71.9150000000000         4.346774949390654E-007
   72.1050000000000         6.619291857827797E-007
   72.2950000000000         8.030668699316172E-007
   72.4850000000000         8.551317986805749E-007
   72.6750000000000         8.230874967102312E-007
   72.8650000000000         7.220852700338801E-007
   73.0550000000000         5.643200089237075E-007
   73.2450000000000         3.671106370245806E-007
   73.4350000000000         1.496342268132822E-007
   73.6250000000000        -7.037509915939509E-008
   73.8150000000000        -2.768613582162440E-007
   74.0050000000000        -4.566239936128822E-007
   74.1950000000000        -5.988416318639181E-007
   74.3850000000000        -6.957265996488265E-007
   74.5750000000000        -7.492166134316688E-007
   74.7650000000000        -7.467233233606444E-007
   74.9550000000000        -7.021984030175448E-007
   75.1450000000000        -6.125886255968018E-007
   75.3350000000000        -4.930880987822198E-007
   75.5250000000000        -3.563203009520377E-007
   75.7150000000000        -2.132611344295200E-007
   75.9050000000000        -8.027286377848208E-008
   76.0950000000000         2.584105186365328E-008
   76.2850000000000         9.374229414043665E-008
   76.4750000000000         1.142185908117576E-007
   76.6650000000000         8.250224595796662E-008
   76.8550000000000        -8.176659856428389E-011
   77.0450000000000        -1.187425293893798E-007
   77.2350000000000        -2.644945180931204E-007
   77.4250000000000        -4.269002453367258E-007
   77.6150000000000        -5.911257563789422E-007
   77.8050000000000        -7.385508704561007E-007
   77.9950000000000        -8.570139824414623E-007
   78.1850000000000        -9.378006872465008E-007
   78.3750000000000        -9.764612861614723E-007
   78.5650000000000        -9.686816642927828E-007
   78.7550000000000        -9.254601470307448E-007
   78.9450000000000        -8.394413744482672E-007
   79.1350000000000        -7.289020846275174E-007
   79.3250000000000        -5.968679159758476E-007
   79.5150000000000        -4.530467265863034E-007
   79.7050000000000        -3.054839170677483E-007
   79.8950000000000        -1.620117756795289E-007
   80.0850000000000        -2.952596390571299E-008
   80.2750000000000         8.784614671835773E-008
   80.4650000000000         1.815528824865267E-007
   80.6550000000000         2.478656321195931E-007
   80.8450000000000         2.826440504265730E-007
   81.0350000000000         2.829042280066467E-007
   81.2250000000000         2.485345844398074E-007
   81.4150000000000         1.849391599213353E-007
   81.6050000000000         9.797103936239318E-008
   81.7950000000000        -5.982193624402347E-009
   81.9850000000000        -1.211426304853661E-007
   82.1750000000000        -2.416533729066568E-007
   82.3650000000000        -3.555815306798025E-007
   82.5550000000000        -4.574948991291963E-007
   82.7450000000000        -5.443501204358105E-007
   82.9350000000000        -6.126186815175114E-007
   83.1250000000000        -6.663002830986850E-007
   83.3150000000000        -7.061240148933432E-007
   83.5050000000000        -7.337197941768879E-007
   83.6950000000000        -7.554880052105492E-007
   83.8850000000000        -7.742533062023465E-007
   84.0750000000000        -7.881614589549165E-007
   84.2650000000000        -7.987664816777722E-007
   84.4550000000000        -8.034084860650378E-007
   84.6450000000000        -8.000117228303670E-007
   84.8350000000000        -7.855739107200694E-007
   85.0250000000000        -7.574518242034109E-007
   85.2150000000000        -7.146304188175990E-007
   85.4050000000000        -6.574763199891540E-007
   85.5950000000000        -5.900017941159136E-007
   85.7850000000000        -5.154648205736475E-007
   85.9750000000000        -4.406454628907688E-007
   86.1650000000000        -3.714075401937870E-007
   86.3550000000000        -3.137107930289210E-007
   86.5450000000000        -2.733882560097371E-007
   86.7350000000000        -2.552396933014384E-007
   86.9250000000000        -2.619013251950318E-007
   87.1150000000000        -2.946137073015175E-007
   87.3050000000000        -3.517680359561413E-007
   87.4950000000000        -4.304822254610381E-007
   87.6850000000000        -5.251705455777594E-007
   87.8750000000000        -6.304619626157737E-007
   88.0650000000000        -7.383873833940285E-007
   88.2550000000000        -8.486898134599802E-007
   88.4450000000000        -9.507694172309312E-007
   88.6350000000000        -1.040561354577895E-006
   88.8250000000000        -1.107750807168958E-006
   89.0150000000000        -1.152111330859999E-006
   89.2050000000000        -1.165353014815766E-006
   89.3950000000000        -1.146330046392649E-006
   89.5850000000000        -1.097360424602631E-006
   89.7750000000000        -1.022598482947762E-006
   89.9650000000000        -9.282011851827263E-007
   90.1550000000000        -8.222719865741302E-007
   90.3450000000000        -7.144194182917172E-007
   90.5350000000000        -6.103402380858109E-007
   90.7250000000000        -5.267144177489067E-007
   90.9150000000000        -4.694394247494737E-007
   91.1050000000000        -4.443737841711620E-007
   91.2950000000000        -4.538962070883947E-007
   91.4850000000000        -4.951603861919802E-007
   91.6750000000000        -5.618489387019508E-007
   91.8650000000000        -6.430667231634565E-007
   92.0550000000000        -7.289182840052798E-007
   92.2450000000000        -8.003506471766109E-007
   92.4350000000000        -8.474537889152967E-007
   92.6250000000000        -8.601569286108911E-007
   92.8150000000000        -8.301679261605085E-007
   93.0050000000000        -7.540017386501320E-007
   93.1950000000000        -6.337755122444785E-007
   93.3850000000000        -4.765997772375062E-007
   93.5750000000000        -2.940811730107411E-007
   93.7650000000000        -1.012230775891498E-007
   93.9550000000000         8.512788827797507E-008
   94.1450000000000         2.474251606264136E-007
   94.3350000000000         3.697170563604485E-007
   94.5250000000000         4.382058143562685E-007
   94.7150000000000         4.436990259011744E-007
   94.9050000000000         3.898873776660679E-007
   95.0950000000000         2.672176989765552E-007
   95.2850000000000         9.032687828694672E-008
   95.4750000000000        -1.342006815891688E-007
   95.6650000000000        -3.918792489037601E-007
   95.8550000000000        -6.650324551659704E-007
   96.0450000000000        -9.352714879079974E-007
   96.2350000000000        -1.184434724588675E-006
   96.4250000000000        -1.395905782223932E-006
   96.6150000000000        -1.556307317275138E-006
   96.8050000000000        -1.653935814373638E-006
   96.9950000000000        -1.684277234827304E-006
   97.1850000000000        -1.645781503484843E-006
   97.3750000000000        -1.539135304491694E-006
   97.5650000000000        -1.382387409947796E-006
   97.7550000000000        -1.186932398738196E-006
   97.9450000000000        -9.703148425189461E-007
   98.1350000000000        -7.519688762197683E-007
   98.3250000000000        -5.512828124706817E-007
   98.5150000000000        -3.855884576951735E-007
   98.7050000000000        -2.688328846555596E-007
   98.8950000000000        -2.124967824116559E-007
   99.0850000000000        -2.075662733577640E-007
   99.2750000000000        -2.622322671454567E-007
   99.4650000000000        -3.602097124593539E-007
   99.6550000000000        -4.890938149437367E-007
   99.8450000000000        -6.392247247434638E-007
   100.035000000000        -7.828283143884444E-007
   100.225000000000        -9.143054561305933E-007
   100.415000000000        -1.012248806168076E-006
   100.605000000000        -1.071651919601414E-006
   100.795000000000        -1.089239178494022E-006
   100.985000000000        -1.064331423087338E-006
   101.175000000000        -1.001723968967275E-006
   101.365000000000        -9.104705144021470E-007
   101.555000000000        -7.978000725786843E-007
   101.745000000000        -6.737779162371853E-007
   101.935000000000        -5.488665311627174E-007
   102.125000000000        -4.321266060122741E-007
   102.315000000000        -3.315193558468809E-007
   102.505000000000        -2.533662414341975E-007
   102.695000000000        -2.048307483481823E-007
   102.885000000000        -1.904961636241615E-007
   103.075000000000        -2.117962366099650E-007
   103.265000000000        -2.672967223013406E-007
   103.455000000000        -3.578391293500946E-007
   103.645000000000        -4.792110243140739E-007
   103.835000000000        -6.268718162223535E-007
   104.025000000000        -7.983897426333396E-007
   104.215000000000        -9.803473895274606E-007
   104.405000000000        -1.161384397629121E-006
   104.595000000000        -1.330025677816468E-006
   104.785000000000        -1.475407582244246E-006
   104.975000000000        -1.588509281035524E-006
   105.165000000000        -1.662344380804169E-006
   105.355000000000        -1.697985824341232E-006
   105.545000000000        -1.695259134307965E-006
   105.735000000000        -1.655527344047922E-006
   105.925000000000        -1.578208825789597E-006
   106.115000000000        -1.480161779526082E-006
   106.305000000000        -1.364147869032942E-006
   106.495000000000        -1.237285932788859E-006
   106.685000000000        -1.104046539076938E-006
   106.875000000000        -9.675357226350797E-007
   107.065000000000        -8.302845672003449E-007
   107.255000000000        -6.945248868509998E-007
   107.445000000000        -5.632712563672103E-007
   107.635000000000        -4.408394411107655E-007
   107.825000000000        -3.323565169565034E-007
   108.015000000000        -2.444249117964661E-007
   108.205000000000        -1.838845874079166E-007
   108.395000000000        -1.544080690644677E-007
   108.585000000000        -1.599826342490179E-007
   108.775000000000        -2.014195629439962E-007
   108.965000000000        -2.844876230717342E-007
   109.155000000000        -3.986906888482608E-007
   109.345000000000        -5.362979444740039E-007
   109.535000000000        -6.869148846604403E-007
   109.725000000000        -8.397642469337430E-007
   109.915000000000        -9.846881944818862E-007
   110.105000000000        -1.113429279274085E-006