  -1.42500000000000         0.000000000000000E+000
  -1.23500000000000         0.000000000000000E+000
  -1.04500000000000         0.000000000000000E+000
 -0.855000000000000         0.000000000000000E+000
 -0.665000000000000         0.000000000000000E+000
 -0.475000000000000         0.000000000000000E+000
 -0.285000000000000         0.000000000000000E+000
 -9.499999999999975E-002    0.000000000000000E+000
  9.500000000000020E-002    0.000000000000000E+000
  0.285000000000000         0.000000000000000E+000
  0.475000000000000         0.000000000000000E+000
  0.665000000000000         0.000000000000000E+000
  0.855000000000000         0.000000000000000E+000
   1.04500000000000         0.000000000000000E+000
   1.23500000000000         0.000000000000000E+000
   1.42500000000000         0.000000000000000E+000
   1.61500000000000         0.000000000000000E+000
   1.80500000000000         0.000000000000000E+000
   1.99500000000000         0.000000000000000E+000
   2.18500000000000         0.000000000000000E+000
   2.37500000000000         0.000000000000000E+000
   2.56500000000000         0.000000000000000E+000
   2.75500000000000         0.000000000000000E+000
   2.94500000000000         0.000000000000000E+000
   3.13500000000000         0.000000000000000E+000
   3.32500000000000         0.000000000000000E+000
   3.51500000000000         0.000000000000000E+000
   3.70500000000000         0.000000000000000E+000
   3.89500000000000         0.000000000000000E+000
   4.08500000000000         0.000000000000000E+000
   4.27500000000000         0.000000000000000E+000
   4.46500000000000         0.000000000000000E+000
   4.65500000000000         0.000000000000000E+000
   4.84500000000000         0.000000000000000E+000
   5.03500000000000         0.000000000000000E+000
   5.22500000000000         0.000000000000000E+000
   5.41500000000000         0.000000000000000E+000
   5.60500000000000         0.000000000000000E+000
   5.79500000000000         0.000000000000000E+000
   5.98500000000000         0.000000000000000E+000
   6.17500000000000        -4.390703859522920E-166
   6.36500000000000         5.701082919502780E-160
   6.55500000000000         7.870583738075299E-157
   6.74500000000000         4.434977622180908E-155
   6.93500000000000        -3.515234908438193E-153
   7.12500000000000        -2.608994080270030E-151
   7.31500000000000        -7.225228332342876E-150
   7.50500000000000        -9.950181990830688E-149
   7.69500000000000        -6.238746337522405E-140
   7.88500000000000         1.407724197546070E-132
   8.07500000000000         7.349773364201076E-131
   8.26500000000000         1.898893987783451E-129
   8.45500000000000         3.266943355806471E-128
   8.64500000000000         4.247911591490636E-127
   8.83500000000000         4.480481336779354E-126
   9.02500000000000         3.997775228390668E-125
   9.21500000000000         3.087405837454256E-124
   9.40500000000000         2.082742349325540E-123
   9.59500000000000         1.226274452088172E-122
   9.78500000000000         6.241098002135481E-122
   9.97500000000000         2.684234593131365E-121
   10.1650000000000         9.233810116855517E-121
   10.3550000000000         2.105866781465921E-120
   10.5450000000000        -7.157670852149450E-121
   10.7350000000000        -4.117488190290059E-119
   10.9250000000000        -2.834506666462496E-118
   11.1150000000000        -1.357654363364656E-117
   11.3050000000000        -5.239024286379813E-117
   11.4950000000000        -1.690076929576251E-116
   11.6850000000000        -4.540244406195674E-116
   11.8750000000000        -9.660066609037835E-116
   12.0650000000000        -1.327035497752264E-115
   12.2550000000000         5.257519403001475E-116
   12.4450000000000         1.086997168961436E-114
   12.6350000000000         4.238403160933392E-114
   12.8250000000000         1.073045383354592E-113
   13.0150000000000         1.843936010658569E-113
   13.2050000000000         1.900392911358420E-113
   13.3950000000000         3.890590455897933E-113
   13.5850000000000         4.625208591218550E-112
   13.7750000000000         3.615120030915462E-111
   13.9650000000000         2.002152980517416E-110
   14.1550000000000         8.996688352611296E-110
   14.3450000000000         3.504939727094542E-109
   14.5350000000000         1.226716639490617E-108
   14.7250000000000         3.939326816209008E-108
   14.9150000000000         1.176324671632604E-107
   15.1050000000000         3.295531520307739E-107
   15.2950000000000         8.714377330329959E-107
   15.4850000000000         2.183730503861427E-106
   15.6750000000000         5.198112004634947E-106
   15.8650000000000         1.176344899487274E-105
   16.0550000000000         2.528365517275128E-105
   16.2450000000000         5.143061928481991E-105
   16.4350000000000         9.823504445399158E-105
   16.6250000000000         1.733192005746970E-104
   16.8150000000000         2.721993852946906E-104
   17.0050000000000         3.426156230147958E-104
   17.1950000000000         1.898797496082849E-104
   17.3850000000000        -7.543565021837776E-104
   17.5750000000000        -3.964807791742642E-103
   17.7650000000000        -1.299367497640386E-102
   17.9550000000000        -3.594297206493763E-102
   18.1450000000000        -9.049327278247980E-102
   18.3350000000000        -2.137761495960967E-101
   18.5250000000000        -4.810962704430364E-101
   18.7150000000000        -1.040235346421560E-100
   18.9050000000000        -2.172166214377600E-100
   19.0950000000000        -4.394779643544583E-100
   19.2850000000000        -8.633729784339586E-100
   19.4750000000000        -1.649315479528040E-099
   19.6650000000000        -3.066698259867131E-099
   19.8550000000000        -5.553469019322235E-099
   20.0450000000000        -9.797592383387714E-099
   20.2350000000000        -1.684026698589897E-098
   20.4250000000000        -2.819234422889822E-098
   20.6150000000000        -4.593868250139819E-098
   20.8050000000000        -7.277510264105835E-098
   20.9950000000000        -1.118720849309297E-097
   21.1850000000000        -1.663789251571052E-097
   21.3750000000000        -2.382599960348502E-097
   21.5650000000000        -3.259776828755860E-097
   21.7550000000000        -4.202914358591597E-097
   21.9450000000000        -4.971203763114710E-097
   22.1350000000000        -5.060202697598055E-097
   22.3250000000000        -3.523788539744303E-097
   22.5150000000000         1.290002652777944E-097
   22.7050000000000         1.211549807591522E-096
   22.8950000000000         3.328386773500183E-096
   23.0850000000000         7.139332110492836E-096
   23.2750000000000         1.361322387090695E-095
   23.4650000000000         2.412110843144849E-095
   23.6550000000000         4.052851996404522E-095
   23.8450000000000         6.526286386386003E-095
   24.0350000000000         1.013128167003210E-094
   24.2250000000000         1.520880211620091E-094
   24.4150000000000         2.210261263903026E-094
   24.6050000000000         3.107772346345118E-094
   24.7950000000000         4.217205584378770E-094
   24.9850000000000         5.494741776811279E-094
   25.1750000000000         6.809503998264392E-094
   25.3650000000000         7.883989572234356E-094
   25.5550000000000         8.207945892154353E-094
   25.7450000000000         6.919120296267548E-094
   25.9350000000000         2.645673756582222E-094
   26.1250000000000        -6.690937297117342E-094
   26.3150000000000        -2.410552008364426E-093
   26.5050000000000        -5.378940984337841E-093
   26.6950000000000        -1.013162483214523E-092
   26.8850000000000        -1.737332923820879E-092
   27.0750000000000        -2.794101112331916E-092
   27.2650000000000        -4.274544276896207E-092
   27.4550000000000        -6.264310761972304E-092
   27.6450000000000        -8.820415862596405E-092
   27.8350000000000        -1.193352803135699E-091
   28.0250000000000        -1.547126882964506E-091
   28.2150000000000        -1.909837600196898E-091
   28.4050000000000        -2.217108385196914E-091
   28.5950000000000        -2.360638319100074E-091
   28.7850000000000        -2.173265605260507E-091
   28.9750000000000        -1.413727178372399E-091
   29.1650000000000         2.460326523489944E-092
   29.3550000000000         3.226451142639918E-091
   29.5450000000000         8.032224216658183E-091
   29.7350000000000         1.522161674431634E-090
   29.9250000000000         2.534224790588159E-090
   30.1150000000000         3.882098295483841E-090
   30.3050000000000         5.579565519583911E-090
   30.4950000000000         7.587902518139064E-090
   30.6850000000000         9.785198904245904E-090
   30.8750000000000         1.192950355215238E-089
   31.0650000000000         1.361856845859969E-089
   31.2550000000000         1.425160074905545E-089
   31.4450000000000         1.300181912584991E-089
   31.6350000000000         8.812557852009116E-090
   31.8250000000000         4.337171822572834E-091
   32.0150000000000        -1.348128134776066E-089
   32.2050000000000        -3.419645057687569E-089
   32.3950000000000        -6.261273417847238E-089
   32.5850000000000        -9.887465839116144E-089
   32.7750000000000        -1.418688894555873E-088
   32.9650000000000        -1.886460051708981E-088
   33.1550000000000        -2.338353300683593E-088
   33.3450000000000        -2.691731833192890E-088
   33.5350000000000        -2.833245807481027E-088
   33.7250000000000        -2.622404319818124E-088
   33.9150000000000        -1.903441234327110E-088
   34.1050000000000        -5.286379061163088E-089
   34.2950000000000         1.604071959834303E-088
   34.4850000000000         4.497626302928328E-088
   34.6750000000000         7.987413365172127E-088
   34.8650000000000         1.166299452178868E-087
   35.0550000000000         1.479114371103245E-087
   35.2450000000000         1.625941550718477E-087
   35.4350000000000         1.456907773188163E-087
   35.6250000000000         7.916456350949959E-088
   35.8150000000000        -5.589309860333801E-088
   36.0050000000000        -2.751933205251565E-087
   36.1950000000000        -5.847957854610094E-087
   36.3850000000000        -9.719477887589285E-087
   36.5750000000000        -1.393260131175693E-086
   36.7650000000000        -1.760888325116312E-086
   36.9550000000000        -1.928321361945922E-086
   37.1450000000000        -1.678644589192306E-086
   37.3350000000000        -7.197044576241692E-087
   37.5250000000000         1.307658496028137E-086
   37.7150000000000         4.800465733975803E-086
   37.9050000000000         1.013448142244223E-085
   38.0950000000000         1.756585388386376E-085
   38.2850000000000         2.708582202479027E-085
   38.4750000000000         3.822501643452734E-085
   38.6650000000000         4.981171846846633E-085
   38.8550000000000         5.970074355464136E-085
   39.0450000000000         6.450692835205490E-085
   39.2350000000000         5.939943105386097E-085
   39.4250000000000         3.803907837941428E-085
   39.6150000000000        -7.231778109733932E-086
   39.8050000000000        -8.481349106381362E-085
   39.9950000000000        -2.027401007013738E-084
   40.1850000000000        -3.668949193651423E-084
   40.3750000000000        -5.784440265113375E-084
   40.5650000000000        -8.304591796027692E-084
   40.7550000000000        -1.103834721678022E-083
   40.9450000000000        -1.362800384887775E-083
   41.1350000000000        -1.550596576538801E-083
   41.3250000000000        -1.586203297331391E-083
   41.5150000000000        -1.363375130005152E-083
   41.7050000000000        -7.535887789890848E-084
   41.8950000000000         3.852127704649845E-084
   42.0850000000000         2.192091134955793E-083
   42.2750000000000         4.777002472280939E-083
   42.4650000000000         8.183942427664770E-083
   42.6550000000000         1.234340169137820E-082
   42.8450000000000         1.701612435630777E-082
   43.0350000000000         2.173288998794881E-082
   43.2250000000000         2.573853626692803E-082
   43.4150000000000         2.795252196069612E-082
   43.6050000000000         2.696260467055031E-082
   43.7950000000000         2.107200892045959E-082
   43.9850000000000         8.422813768025143E-083
   44.1750000000000        -1.278209146118525E-082
   44.3650000000000        -4.394079762010607E-082
   44.5550000000000        -8.559085077866715E-082
   44.7450000000000        -1.368355112738167E-081
   44.9350000000000        -1.946957103403175E-081
   45.1250000000000        -2.534612554613950E-081
   45.3150000000000        -3.041579163759672E-081
   45.5050000000000        -3.342939371487427E-081
   45.6950000000000        -3.280937533444181E-081
   45.8850000000000        -2.674583030223267E-081
   46.0750000000000        -1.338967302753220E-081
   46.2650000000000         8.836334886481453E-082
   46.4550000000000         4.079794090496966E-081
   46.6450000000000         8.208839055938266E-081
   46.8350000000000         1.303808293818703E-080
   47.0250000000000         1.807664982920458E-080
   47.2150000000000         2.251977503743385E-080
   47.4050000000000         2.522072525055540E-080
   47.5950000000000         2.471262771196311E-080
   47.7850000000000         1.930654548668061E-080
   47.9750000000000         7.293628703664341E-081
   48.1650000000000        -1.272373578622649E-080
   48.3550000000000        -4.135630623107470E-080
   48.5450000000000        -7.781065031817221E-080
   48.7350000000000        -1.191617723027621E-079
   48.9250000000000        -1.595881470741328E-079
   49.1150000000000        -1.896938251672156E-079
   49.3050000000000        -1.961032361754060E-079
   49.4950000000000        -1.615780833463462E-079
   49.6850000000000        -6.596227553940630E-080
   49.8750000000000         1.117045121837937E-079
   50.0650000000000         3.895708362679695E-079
   50.2550000000000         7.775931256616853E-079
   50.4450000000000         1.270292201370527E-078
   50.6350000000000         1.837827691085165E-078
   50.8250000000000         2.415987484392508E-078
   51.0150000000000         2.896249144081148E-078
   51.2050000000000         3.117759964413339E-078
   51.3950000000000         2.863857802792978E-078
   51.5850000000000         1.866530745034622E-078
   51.7750000000000        -1.771447814695464E-079
   51.9650000000000        -3.572230749474568E-078
   52.1550000000000        -8.572714362503587E-078
   52.3450000000000        -1.530485969840275E-077
   52.5350000000000        -2.366640459385449E-077
   52.7250000000000        -3.320461290684849E-077
   52.9150000000000        -4.298158202486100E-077
   53.1050000000000        -5.144229751242746E-077
   53.2950000000000        -5.630949841274796E-077
   53.4850000000000        -5.453886587147250E-077
   53.6750000000000        -4.237727731755154E-077
   53.8650000000000        -1.557418814454675E-077
   54.0550000000000         3.020072441008444E-077
   54.2450000000000         9.868465307349006E-077
   54.4350000000000         1.920592572616226E-076
   54.6250000000000         3.096935404484367E-076
   54.8150000000000         4.466332639569665E-076
   55.0050000000000         5.919442244709133E-076
   55.1950000000000         7.271023692595311E-076
   55.3850000000000         8.247255575749263E-076
   55.5750000000000         8.480516649149487E-076
   55.7650000000000         7.516714338936448E-076
   55.9550000000000         4.841005844575145E-076
   56.1450000000000        -7.204843988100627E-078
   56.3350000000000        -7.678591879061116E-076
   56.5250000000000        -1.825259905330885E-075
   56.7150000000000        -3.174059734862452E-075
   56.9050000000000        -4.759045854227388E-075
   57.0950000000000        -6.456889977183327E-075
   57.2850000000000        -8.059262874946507E-075
   57.4750000000000        -9.260990836113685E-075
   57.6650000000000        -9.658148994698114E-075
   57.8550000000000        -8.762038634479080E-075
   58.0450000000000        -6.035596333902413E-075
   58.2350000000000        -9.585584795188649E-076
   58.4250000000000         6.873789599626350E-075
   58.6150000000000         1.761669151227373E-074
   58.8050000000000         3.101066331813066E-074
   58.9950000000000         4.619665293141823E-074
   59.1850000000000         6.153377963047419E-074
   59.3750000000000         7.445429910907897E-074
   59.5650000000000         8.140390970133284E-074
   59.7550000000000         7.792806858333861E-074
   59.9450000000000         5.897374929890847E-074
   60.1350000000000         1.947716086638577E-074
   60.3250000000000        -4.470340496533569E-074
   60.5150000000000        -1.354795180567267E-073
   60.7050000000000        -2.508712132210036E-073
   60.8950000000000        -3.830928355876452E-073
   61.0850000000000        -5.165934146169482E-073
   61.2750000000000        -6.263902478061092E-073
   61.4650000000000        -6.771805787813683E-073
   61.6550000000000        -6.238587512376253E-073
   61.8450000000000        -4.141762271503088E-073
   62.0350000000000         5.680328892145457E-075
   62.2250000000000         6.819016723357066E-073
   62.4150000000000         1.639829815890923E-072
   62.6050000000000         2.866758631892354E-072
   62.7950000000000         4.291599525311245E-072
   62.9850000000000         5.763319296796005E-072
   63.1750000000000         7.031395764411119E-072
   63.3650000000000         7.733052435090846E-072
   63.5550000000000         7.393547200656369E-072
   63.7450000000000         5.447018687286365E-072
   63.9350000000000         1.285944107318189E-072
   64.1250000000000        -5.653359160286117E-072
   64.3150000000000        -1.576410733633139E-071
   64.5050000000000        -2.910085306760218E-071
   64.6950000000000        -4.517663074594325E-071
   64.8850000000000        -6.274262346192325E-071
   65.0750000000000        -7.958043703455613E-071
   65.2650000000000        -9.235169423933934E-071
   65.4550000000000        -9.656423607501300E-071
   65.6450000000000        -8.672595022932422E-071
   65.8350000000000        -5.676229238741828E-071
   66.0250000000000        -7.671414621702951E-073
   66.2150000000000         8.586660083218414E-071
   66.4050000000000         2.049354714355262E-070
   66.5950000000000         3.536029007517528E-070
   66.7850000000000         5.224338100657834E-070
   66.9750000000000         6.935764035128200E-070
   67.1650000000000         8.395167862078951E-070
   67.3550000000000         9.229627593918475E-070
   67.5450000000000         8.985105405807053E-070
   67.7350000000000         7.167735598426220E-070
   67.9250000000000         3.315585435262441E-070
   68.1150000000000        -2.895910845599208E-070
   68.3050000000000        -1.151649871637789E-069
   68.4950000000000        -2.216068899233588E-069
   68.6850000000000        -3.384344849531470E-069
   68.8750000000000        -4.484324577365537E-069
   69.0650000000000        -5.263695047944667E-069
   69.2550000000000        -5.396340997783785E-069
   69.4450000000000        -4.508092456351061E-069
   69.6350000000000        -2.228426791914976E-069
   69.8250000000000         1.726557842844647E-069
   70.0150000000000         7.437658722454750E-069
   70.2050000000000         1.463575484482750E-068
   70.3950000000000         2.253597287689955E-068
   70.5850000000000         2.967505148912657E-068
   70.7750000000000         3.378739350646105E-068
   70.9650000000000         3.176980827792795E-068
   71.1550000000000         1.979867553327960E-068
   71.3450000000000        -6.326886926661800E-069
   71.5350000000000        -5.054051492225989E-068
   71.7250000000000        -1.154989847266190E-067
   71.9150000000000        -2.011745088452866E-067
   72.1050000000000        -3.030717742292689E-067
   72.2950000000000        -4.101781298645435E-067
   72.4850000000000        -5.028727432991229E-067
   72.6750000000000        -5.511673584883704E-067
   72.8650000000000        -5.138183551413241E-067
   73.0550000000000        -3.390190360064892E-067
   73.2450000000000         3.247654788017702E-068
   73.4350000000000         6.608724495213369E-067
   73.6250000000000         1.596612865424872E-066
   73.8150000000000         2.864777132956633E-066
   74.0050000000000         4.444415801814992E-066
   74.1950000000000         6.243444259695997E-066
   74.3850000000000         8.070851261083102E-066
   74.5750000000000         9.609479648230299E-066
   74.7650000000000         1.039444515732042E-065
   74.9550000000000         9.804246013527540E-066
   75.1450000000000         7.073548152844544E-066
   75.3350000000000         1.338155428759374E-066
   75.5250000000000        -8.276689382832453E-066
   75.7150000000000        -2.251437721465870E-065
   75.9050000000000        -4.178410369424401E-065
   76.0950000000000        -6.589575656190348E-065
   76.2850000000000        -9.374052414322727E-065
   76.4750000000000        -1.229385028958860E-064
   76.6650000000000        -1.494917265541157E-064
   76.8550000000000        -1.675014159571014E-064
   77.0450000000000        -1.690303677485526E-064
   77.2350000000000        -1.442127100458231E-064
   77.4250000000000        -8.172998451426757E-065
   77.6150000000000         3.022036644450321E-065
   77.8050000000000         2.023466941668113E-064
   77.9950000000000         4.419890053001129E-064
   78.1850000000000         7.501241656130013E-064
   78.3750000000000         1.117722750167936E-063
   78.5650000000000         1.521666757745505E-063
   78.7550000000000         1.920613906070419E-063
   78.9450000000000         2.251404059619222E-063
   79.1350000000000         2.426832124326575E-063
   79.3250000000000         2.335835028461225E-063
   79.5150000000000         1.847322328477499E-063
   79.7050000000000         8.189728883491394E-064
   79.8950000000000        -8.877342397139796E-064
   80.0850000000000        -3.385253627337165E-063
   80.2750000000000        -6.730017331861522E-063
   80.4650000000000        -1.088521903744678E-062
   80.6550000000000        -1.567803094361817E-062
   80.8450000000000        -2.075458921965332E-062
   81.0350000000000        -2.553805945825192E-062
   81.2250000000000        -2.919728189425082E-062
   81.4150000000000        -3.063569033557777E-062
   81.6050000000000        -2.851209249559541E-062
   81.7950000000000        -2.130608320923517E-062
   81.9850000000000        -7.440831971136369E-063
   82.1750000000000         1.452582988055946E-062
   82.3650000000000         4.563529231509968E-062
   82.5550000000000         8.618740651339223E-062
   82.7450000000000         1.353358983957608E-061
   82.9350000000000         1.906446389422033E-061
   83.1250000000000         2.476464671375606E-061
   83.3150000000000         2.994655718527328E-061
   83.5050000000000         3.365845010096323E-061
   83.6950000000000         3.468553290895485E-061
   83.8850000000000         3.158681749812873E-061
   84.0750000000000         2.277951128816362E-061
   84.2650000000000         6.681891748962714E-062
   84.4550000000000        -1.807709125585218E-061
   84.6450000000000        -5.237825307395260E-061
   84.8350000000000        -9.626712414861506E-061
   85.0250000000000        -1.485584782103953E-060
   85.2150000000000        -2.064188955728701E-060
   85.4050000000000        -2.649715114611375E-060
   85.5950000000000        -3.169840865439030E-060
   85.7850000000000        -3.527182038385122E-060
   85.9750000000000        -3.600314677961703E-060
   86.1650000000000        -3.248331278825635E-060
   86.3550000000000        -2.319930775213060E-060
   86.5450000000000        -6.679083525396811E-061
   86.7350000000000         1.830389866101695E-060
   86.9250000000000         5.246585209735190E-060
   87.1150000000000         9.569424673738020E-060
   87.3050000000000         1.466920607088532E-059
   87.4950000000000         2.026126863095586E-059
   87.6850000000000         2.587267469697659E-059
   87.8750000000000         3.081759329205462E-059
   88.0650000000000         3.418819359797850E-059
   88.2550000000000         3.486886973956156E-059
   88.4450000000000         3.158210457456221E-059
   88.6350000000000         2.297395934812811E-059
   88.8250000000000         7.745749702919924E-060
   89.0150000000000        -1.516435154317535E-059
   89.2050000000000        -4.635049742786803E-059
   89.3950000000000        -8.566607574924903E-059
   89.5850000000000        -1.319232732918807E-058
   89.7750000000000        -1.825897482319463E-058
   89.9650000000000        -2.335174178213312E-058
   90.1550000000000        -2.787491233586557E-058
   90.3450000000000        -3.104586991117344E-058
   90.5350000000000        -3.190871896869377E-058
   90.7250000000000        -2.937407450791935E-058
   90.9150000000000        -2.229119470843318E-058
   91.1050000000000        -9.557376882973074E-059
   91.2950000000000         9.732804151086721E-059
   91.4850000000000         3.609942848537313E-058
   91.6750000000000         6.945627737791399E-058
   91.8650000000000         1.088691697431156E-057
   92.0550000000000         1.523131039332866E-057
   92.2450000000000         1.964557596987312E-057
   92.4350000000000         2.365030111761797E-057
   92.6250000000000         2.661493471610987E-057
   92.8150000000000         2.776813223559728E-057
   93.0050000000000         2.622839756890231E-057
   93.1950000000000         2.105969917733719E-057
   93.3850000000000         1.135576459121193E-057
   93.5750000000000        -3.645022313507154E-058
   93.7650000000000        -2.441489773480855E-057
   93.9550000000000        -5.096662270043715E-057
   94.1450000000000        -8.266709372841813E-057
   94.3350000000000        -1.180491530411557E-056
   94.5250000000000        -1.546420015756398E-056
   94.7150000000000        -1.888465500882674E-056
   94.9050000000000        -2.158873426241839E-056
   95.0950000000000        -2.298765150828762E-056
   95.2850000000000        -2.240266142625661E-056
   95.4750000000000        -1.910468972457969E-056
   95.6650000000000        -1.237508299870441E-056
   95.8550000000000        -1.588987126718504E-057
   96.0450000000000         1.367905314969397E-056
   96.2350000000000         3.353028695083753E-056
   96.4250000000000         5.760402746401412E-056
   96.6150000000000         8.493711457922626E-056
   96.8050000000000         1.138348632455856E-055
   96.9950000000000         1.417719909049668E-055
   97.1850000000000         1.653457871162539E-055
   97.3750000000000         1.803065536508655E-055
   97.5650000000000         1.816914249262797E-055
   97.7550000000000         1.640863284813216E-055
   97.9450000000000         1.220363021896091E-055
   98.1350000000000         5.061595339687217E-056
   98.3250000000000        -5.384100511351537E-056
   98.5150000000000        -1.928717229012525E-055
   98.7050000000000        -3.649142765422862E-055
   98.8950000000000        -5.643042182912166E-055
   99.0850000000000        -7.803321860281276E-055
   99.2750000000000        -9.964855904675013E-055
   99.4650000000000        -1.190023128133661E-054
   99.6550000000000        -1.332050160488598E-054
   99.8450000000000        -1.388271457236326E-054
   100.035000000000        -1.320590607180528E-054
   100.225000000000        -1.089697674154673E-054
   100.415000000000        -6.587339774354463E-055
   100.605000000000         1.958169560138072E-057
   100.795000000000         9.091038960798933E-055
   100.985000000000         2.060025382491787E-054
   101.175000000000         3.425839960423729E-054
   101.365000000000         4.944914247120602E-054
   101.555000000000         6.517344746725544E-054
   101.745000000000         8.001402777400501E-054
   101.935000000000         9.213010715061366E-054
   102.125000000000         9.929380616213141E-054
   102.315000000000         9.897916027679646E-054
   102.505000000000         8.851323626690919E-054
   102.695000000000         6.529576316742260E-054
   102.885000000000         2.708892908486403E-054
   103.075000000000        -2.762758498737100E-054
   103.265000000000        -9.924960700925960E-054
   103.455000000000        -1.866126423684745E-053
   103.645000000000        -2.865612251282594E-053
   103.835000000000        -3.935686241287847E-053
   104.025000000000        -4.994624657792014E-053
   104.215000000000        -5.933201530182283E-053
   104.405000000000        -6.616026736071966E-053
   104.595000000000        -6.885948228427198E-053
   104.785000000000        -6.572123127945328E-053
   104.975000000000        -5.502201361134578E-053
   105.165000000000        -3.518806691626453E-053
   105.355000000000        -5.001367867239068E-054
   105.545000000000         3.615961996804575E-053
   105.735000000000         8.805645827559632E-053
   105.925000000000         1.493227296889477E-052
   106.115000000000         2.172162113859001E-052
   106.305000000000         2.874220952310645E-052
   106.495000000000         3.539433017671391E-052
   106.685000000000         4.091172923848492E-052
   106.875000000000         4.437994066388518E-052
   107.065000000000         4.477497015756223E-052
   107.255000000000         4.102526658799968E-052
   107.445000000000         3.209863024988450E-052
   107.635000000000         1.711384776411709E-052
   107.825000000000        -4.525591052629358E-053
   108.015000000000        -3.298129758626447E-052
   108.205000000000        -6.782227931364231E-052
   108.395000000000        -1.078722758521904E-051
   108.585000000000        -1.510782115009731E-051
   108.775000000000        -1.944189559183695E-051
   108.965000000000        -2.338758704977117E-051
   109.155000000000        -2.644875990790838E-051
   109.345000000000        -2.805107395912859E-051
   109.535000000000        -2.757049253694336E-051
   109.725000000000        -2.437550340829317E-051
   109.915000000000        -1.788344357120572E-051
   110.105000000000        -7.630128564519619E-052