  -1.42500000000000         0.000000000000000E+000
  -1.23500000000000         0.000000000000000E+000
  -1.04500000000000         0.000000000000000E+000
 -0.855000000000000         0.000000000000000E+000
 -0.665000000000000         0.000000000000000E+000
 -0.475000000000000         0.000000000000000E+000
 -0.285000000000000         0.000000000000000E+000
 -9.499999999999975E-002    0.000000000000000E+000
  9.500000000000020E-002    0.000000000000000E+000
  0.285000000000000         0.000000000000000E+000
  0.475000000000000         0.000000000000000E+000
  0.665000000000000         0.000000000000000E+000
  0.855000000000000         0.000000000000000E+000
   1.04500000000000         0.000000000000000E+000
   1.23500000000000         0.000000000000000E+000
   1.42500000000000         0.000000000000000E+000
   1.61500000000000         0.000000000000000E+000
   1.80500000000000         0.000000000000000E+000
   1.99500000000000         0.000000000000000E+000
   2.18500000000000         0.000000000000000E+000
   2.37500000000000         0.000000000000000E+000
   2.56500000000000         0.000000000000000E+000
   2.75500000000000         0.000000000000000E+000
   2.94500000000000         0.000000000000000E+000
   3.13500000000000         0.000000000000000E+000
   3.32500000000000         0.000000000000000E+000
   3.51500000000000         0.000000000000000E+000
   3.70500000000000         0.000000000000000E+000
   3.89500000000000         0.000000000000000E+000
   4.08500000000000         0.000000000000000E+000
   4.27500000000000         0.000000000000000E+000
   4.46500000000000         0.000000000000000E+000
   4.65500000000000         0.000000000000000E+000
   4.84500000000000         0.000000000000000E+000
   5.03500000000000         0.000000000000000E+000
   5.22500000000000         0.000000000000000E+000
   5.41500000000000         0.000000000000000E+000
   5.60500000000000         0.000000000000000E+000
   5.79500000000000         0.000000000000000E+000
   5.98500000000000         0.000000000000000E+000
   6.17500000000000         3.650893339443693E-166
   6.36500000000000        -5.789530700941460E-160
   6.55500000000000         1.650856151881873E-156
   6.74500000000000         1.571122042584162E-154
   6.93500000000000         1.137547256002949E-152
   7.12500000000000         4.724825161061140E-151
   7.31500000000000         1.185473379675714E-149
   7.50500000000000         1.829183354920693E-148
   7.69500000000000         3.211915476964841E-139
   7.88500000000000        -1.017757989760647E-132
   8.07500000000000        -5.508137701076040E-131
   8.26500000000000        -1.632927378594780E-129
   8.45500000000000        -3.621817050136252E-128
   8.64500000000000        -6.546394538084309E-127
   8.83500000000000        -9.743613024530602E-126
   9.02500000000000        -1.194338877227748E-124
   9.21500000000000        -1.213667842422896E-123
   9.40500000000000        -1.033802844505029E-122
   9.59500000000000        -7.466354932399100E-122
   9.78500000000000        -4.614742776012596E-121
   9.97500000000000        -2.454440095998681E-120
   10.1650000000000        -1.123237673658985E-119
   10.3550000000000        -4.380660651958172E-119
   10.5450000000000        -1.413541992249190E-118
   10.7350000000000        -3.452782381906800E-118
   10.9250000000000        -4.089348730421218E-118
   11.1150000000000         1.588129238876812E-117
   11.3050000000000         1.387893032364641E-116
   11.4950000000000         6.197798814637083E-116
   11.6850000000000         2.008719830754513E-115
   11.8750000000000         4.717342097576056E-115
   12.0650000000000         5.564375987146875E-115
   12.2550000000000        -1.616935523116969E-114
   12.4450000000000        -1.388148617645131E-113
   12.6350000000000        -5.755675030579863E-113
   12.8250000000000        -1.694822428272840E-112
   13.0150000000000        -3.346511830712568E-112
   13.2050000000000        -7.982328793367922E-113
   13.3950000000000         3.202303166801728E-111
   13.5850000000000         2.001266277808965E-110
   13.7750000000000         8.628095558367695E-110
   13.9650000000000         3.119623265410425E-109
   14.1550000000000         1.005411932301840E-108
   14.3450000000000         2.969784567866749E-108
   14.5350000000000         8.164018455620738E-108
   14.7250000000000         2.108635593462598E-107
   14.9150000000000         5.149805047139373E-107
   15.1050000000000         1.194771692119661E-106
   15.2950000000000         2.642880023622195E-106
   15.4850000000000         5.592150264712689E-106
   15.6750000000000         1.135581550484100E-105
   15.8650000000000         2.221513933597082E-105
   16.0550000000000         4.207012018479526E-105
   16.2450000000000         7.762092085298044E-105
   16.4350000000000         1.407040274267618E-104
   16.6250000000000         2.531697588709434E-104
   16.8150000000000         4.571833937926563E-104
   17.0050000000000         8.365376669745404E-104
   17.1950000000000         1.559105997318227E-103
   17.3850000000000         2.957674865384938E-103
   17.5750000000000         5.676795810139774E-103
   17.7650000000000         1.092748148553644E-102
   17.9550000000000         2.090927242968024E-102
   18.1450000000000         3.947815745525524E-102
   18.3350000000000         7.315178674102509E-102
   18.5250000000000         1.325314597947215E-101
   18.7150000000000         2.341393686207869E-101
   18.9050000000000         4.024251085603912E-101
   19.0950000000000         6.711005195362958E-101
   19.2850000000000         1.081671398509659E-100
   19.4750000000000         1.674451977484331E-100
   19.6650000000000         2.462502075516484E-100
   19.8550000000000         3.370320938128860E-100
   20.0450000000000         4.104573587992812E-100
   20.2350000000000         3.900552064463150E-100
   20.4250000000000         1.051403337204587E-100
   20.6150000000000        -7.927768528011777E-100
   20.8050000000000        -2.972804389547279E-099
   20.9950000000000        -7.660392719464177E-099
   21.1850000000000        -1.701412934420778E-098
   21.3750000000000        -3.470962092641546E-098
   21.5650000000000        -6.681624996030742E-098
   21.7550000000000        -1.230701198154657E-097
   21.9450000000000        -2.186528000918561E-097
   22.1350000000000        -3.765636989480829E-097
   22.3250000000000        -6.305954851897602E-097
   22.5150000000000        -1.028742814803925E-096
   22.7050000000000        -1.636532304294588E-096
   22.8950000000000        -2.539176727368478E-096
   23.0850000000000        -3.840540448162391E-096
   23.2750000000000        -5.655578658609151E-096
   23.4650000000000        -8.091148713871439E-096
   23.6550000000000        -1.120795613486521E-095
   23.8450000000000        -1.495412959761874E-095
   24.0350000000000        -1.905900776868063E-095
   24.2250000000000        -2.287497479332164E-095
   24.4150000000000        -2.515674978716574E-095
   24.6050000000000        -2.377282454980536E-095
   24.7950000000000        -1.535414764073387E-095
   24.9850000000000         5.098484353033218E-096
   25.1750000000000         4.460514018682611E-095
   25.3650000000000         1.125285706437003E-094
   25.5550000000000         2.207416814105867E-094
   25.7450000000000         3.835551576503980E-094
   25.9350000000000         6.173572906392905E-094
   26.1250000000000         9.400174406487631E-094
   26.3150000000000         1.370290364307133E-093
   26.5050000000000         1.927745696530008E-093
   26.6950000000000         2.634122477871351E-093
   26.8850000000000         3.517404718741529E-093
   27.0750000000000         4.620168768514399E-093
   27.2650000000000         6.013563766717907E-093
   27.4550000000000         7.817159354136647E-093
   27.6450000000000         1.022210984974876E-092
   27.8350000000000         1.350969559352769E-092
   28.0250000000000         1.804821664123032E-092
   28.2150000000000         2.423739483188687E-092
   28.4050000000000         3.235030029124603E-092
   28.5950000000000         4.219886356485762E-092
   28.7850000000000         5.252280734716908E-092
   28.9750000000000         5.997916612916971E-092
   29.1650000000000         5.760108566153318E-092
   29.3550000000000         3.261729311937647E-092
   29.5450000000000        -3.639788619288765E-092
   29.7350000000000        -1.829072101604100E-091
   29.9250000000000        -4.558946453527625E-091
   30.1150000000000        -9.225560064734405E-091
   30.3050000000000        -1.668632973067120E-090
   30.4950000000000        -2.793939709111631E-090
   30.6850000000000        -4.399550986885619E-090
   30.8750000000000        -6.561944872457955E-090
   31.0650000000000        -9.288325018078354E-090
   31.2550000000000        -1.244673709459329E-089
   31.4450000000000        -1.566497577385639E-089
   31.6350000000000        -1.819440114026947E-089
   31.8250000000000        -1.873961078327688E-089
   32.0150000000000        -1.526358407454559E-089
   32.2050000000000        -4.791627004537368E-090
   32.3950000000000         1.674275355919462E-089
   32.5850000000000         5.454047501535618E-089
   32.7750000000000         1.147657854612065E-088
   32.9650000000000         2.040224717422644E-088
   33.1550000000000         3.283020686014905E-088
   33.3450000000000         4.912008125005619E-088
   33.5350000000000         6.911946580040015E-088
   33.7250000000000         9.177918206902179E-088
   33.9150000000000         1.146472039361101E-087
   34.1050000000000         1.332497183122831E-087
   34.2950000000000         1.403966881148313E-087
   34.4850000000000         1.254920900662573E-087
   34.6750000000000         7.398729864236756E-088
   34.8650000000000        -3.281045326545087E-088
   35.0550000000000        -2.172775358425506E-087
   35.2450000000000        -5.039759283364699E-087
   35.4350000000000        -9.166554286172804E-087
   35.6250000000000        -1.473250829949071E-086
   35.8150000000000        -2.178391579039731E-086
   36.0050000000000        -3.013070228258054E-086
   36.1950000000000        -3.921398182223051E-086
   36.3850000000000        -4.794862617649065E-086
   36.5750000000000        -5.455231422471737E-086
   36.7650000000000        -5.638260625124738E-086
   36.9550000000000        -4.981634534422054E-086
   37.1450000000000        -3.022052264476727E-086
   37.3350000000000         7.920718134472664E-087
   37.5250000000000         7.064439072972987E-086
   37.7150000000000         1.638251011015047E-085
   37.9050000000000         2.920838315504856E-085
   38.0950000000000         4.572207736421821E-085
   38.2850000000000         6.561442402440319E-085
   38.4750000000000         8.783377023704332E-085
   38.6650000000000         1.103012324288749E-084
   38.8550000000000         1.296235666464047E-084
   39.0450000000000         1.408505864519512E-084
   39.2350000000000         1.373443912992657E-084
   39.4250000000000         1.108483032829160E-084
   39.6150000000000         5.186080978752231E-085
   39.8050000000000        -4.957112507272879E-085
   39.9950000000000        -2.025309576128768E-084
   40.1850000000000        -4.133041613421475E-084
   40.3750000000000        -6.828234705155557E-084
   40.5650000000000        -1.003568638041545E-083
   40.7550000000000        -1.356146312449312E-083
   40.9450000000000        -1.705965315644831E-083
   41.1350000000000        -2.000648749495075E-083
   41.3250000000000        -2.169066039093931E-083
   41.5150000000000        -2.123087884831781E-083
   41.7050000000000        -1.763308091471064E-083
   41.8950000000000        -9.899600761186119E-084
   42.0850000000000         2.800153168971802E-084
   42.2750000000000         2.089430905634136E-083
   42.4650000000000         4.411635533778782E-083
   42.6550000000000         7.118083315338227E-083
   42.8450000000000         9.947418088162569E-083
   43.0350000000000         1.248358015493609E-082
   43.2250000000000         1.415350787817482E-082
   43.4150000000000         1.425791473597146E-082
   43.6050000000000         1.205065841362582E-082
   43.7950000000000         6.882358920377717E-083
   43.9850000000000        -1.579166667944629E-083
   44.1750000000000        -1.304698983458684E-082
   44.3650000000000        -2.624141952488794E-082
   44.5550000000000        -3.847677934939978E-082
   44.7450000000000        -4.527213972761953E-082
   44.9350000000000        -4.008958017804913E-082
   45.1250000000000        -1.435012189519205E-082
   45.3150000000000         4.207439607214487E-082
   45.5050000000000         1.396541354708359E-081
   45.6950000000000         2.870184081470102E-081
   45.8850000000000         4.875537530000885E-081
   46.0750000000000         7.346169280702928E-081
   46.2650000000000         1.005360390400956E-080
   46.4550000000000         1.253443934812517E-080
   46.6450000000000         1.401317028559696E-080
   46.8350000000000         1.333313390060750E-080
   47.0250000000000         8.914938967456639E-081
   47.2150000000000        -1.230338484876230E-081
   47.4050000000000        -1.939784558089317E-080
   47.5950000000000        -4.795337307945568E-080
   47.7850000000000        -8.891985542965340E-080
   47.9750000000000        -1.433428841184437E-079
   48.1650000000000        -2.104042473329330E-079
   48.3550000000000        -2.862779505060851E-079
   48.5450000000000        -3.627658934395373E-079
   48.7350000000000        -4.258136994709419E-079
   48.9250000000000        -4.540929014138036E-079
   49.1150000000000        -4.179428340834790E-079
   49.3050000000000        -2.790890042124364E-079
   49.4950000000000         8.316563480864715E-081
   49.6850000000000         4.946718068887075E-079
   49.8750000000000         1.229181007888549E-078
   50.0650000000000         2.250654471771867E-078
   50.2550000000000         3.574235879985142E-078
   50.4450000000000         5.173734148196224E-078
   50.6350000000000         6.959753101475494E-078
   50.8250000000000         8.754599899140657E-078
   51.0150000000000         1.026604354313330E-077
   51.2050000000000         1.106339124321698E-077
   51.3950000000000         1.056101251393926E-077
   51.5850000000000         8.016268110144277E-078
   51.7750000000000         2.550616517146226E-078
   51.9650000000000        -6.795791492774439E-078
   52.1550000000000        -2.096482280081203E-077
   52.3450000000000        -4.072537118171177E-077
   52.5350000000000        -6.645350169220156E-077
   52.7250000000000        -9.784263809772920E-077
   52.9150000000000        -1.335456037448272E-076
   53.1050000000000        -1.707606044139460E-076
   53.2950000000000        -2.047873101331773E-076
   53.4850000000000        -2.285972490986707E-076
   53.6750000000000        -2.324846575943416E-076
   53.8650000000000        -2.038892153133886E-076
   54.0550000000000        -1.275097098323062E-076
   54.2450000000000         1.414402548338998E-077
   54.4350000000000         2.395869698405712E-076
   54.6250000000000         5.663871327626547E-076
   54.8150000000000         1.008178917131913E-075
   55.0050000000000         1.570458796309852E-075
   55.1950000000000         2.244989957285623E-075
   55.3850000000000         3.002709587817988E-075
   55.5750000000000         3.785154219121976E-075
   55.7650000000000         4.494618149060165E-075
   55.9550000000000         4.983567634840055E-075
   56.1450000000000         5.044286484332012E-075
   56.3350000000000         4.400369292371092E-075
   56.5250000000000         2.702549215155389E-075
   56.7150000000000        -4.675202211417798E-076
   56.9050000000000        -5.580511329447473E-075
   57.0950000000000        -1.312306527472514E-074
   57.2850000000000        -2.353351623731125E-074
   57.4750000000000        -3.709991027995338E-074
   57.6650000000000        -5.380975838730319E-074
   57.8550000000000        -7.314162622258506E-074
   58.0450000000000        -9.379181040795247E-074
   58.2350000000000        -1.133363560528921E-073
   58.4250000000000        -1.278411953984093E-073
   58.6150000000000        -1.314530531664946E-073
   58.8050000000000        -1.160326791961032E-073
   58.9950000000000        -7.093107523013833E-074
   59.1850000000000         1.694142777096651E-074
   59.3750000000000         1.625464082857656E-073
   59.5650000000000         3.813829756700797E-073
   59.7550000000000         6.870710114041564E-073
   59.9450000000000         1.087509206053422E-072
   60.1350000000000         1.579287508920015E-072
   60.3250000000000         2.140135982992996E-072
   60.5150000000000         2.719412726999309E-072
   60.7050000000000         3.227015042968940E-072
   60.8950000000000         3.521681615638830E-072
   61.0850000000000         3.400469853806231E-072
   61.2750000000000         2.592248423382763E-072
   61.4650000000000         7.593048372447284E-073
   61.6550000000000        -2.487468563537805E-072
   61.8450000000000        -7.553070306710159E-072
   62.0350000000000        -1.479494346545836E-071
   62.2250000000000        -2.442391419083036E-071
   62.4150000000000        -3.636321160280778E-071
   62.6050000000000        -5.006276746398444E-071
   62.7950000000000        -6.427242108766584E-071
   62.9850000000000        -7.678778281524683E-071
   63.1750000000000        -8.419693945638720E-071
   63.3650000000000        -8.167511602074738E-071
   63.5550000000000        -6.289733360397260E-071
   63.7450000000000        -2.016444398408917E-071
   63.9350000000000         5.513738338057155E-071
   64.1250000000000         1.716045370267505E-070
   64.3150000000000         3.362656227888284E-070
   64.5050000000000         5.522830739923110E-070
   64.6950000000000         8.158262464194017E-070
   64.8850000000000         1.112131288028761E-069
   65.0750000000000         1.410917799679385E-069
   65.2650000000000         1.661556024154735E-069
   65.4550000000000         1.788675100845490E-069
   65.6450000000000         1.689266521861712E-069
   65.8350000000000         1.232745358244671E-069
   66.0250000000000         2.658416257937331E-070
   66.2150000000000        -1.375465244397098E-069
   66.4050000000000        -3.844586435669108E-069
   66.5950000000000        -7.251292383293888E-069
   66.7850000000000        -1.161537073960578E-068
   66.9750000000000        -1.680659420980138E-068
   67.1650000000000        -2.247271388640766E-068
   67.3550000000000        -2.796027342552011E-068
   67.5450000000000        -3.223717569445415E-068
   67.7350000000000        -3.383106296687822E-068
   67.9250000000000        -3.080342659060200E-068
   68.1150000000000        -2.078539533057457E-068
   68.3050000000000        -1.106465488110116E-069
   68.4950000000000         3.094927279852281E-068
   68.6850000000000         7.772531736152606E-068
   68.8750000000000         1.405855680799524E-067
   69.0650000000000         2.191045470014715E-067
   69.2550000000000         3.100669636182820E-067
   69.4450000000000         4.063263708258131E-067
   69.6350000000000         4.956242378338018E-067
   69.8250000000000         5.595356782160582E-067
   70.0150000000000         5.727834837935447E-067
   70.2050000000000         5.032419326130230E-067
   70.3950000000000         3.130258612463204E-067
   70.5850000000000        -3.888623673791509E-068
   70.7750000000000        -5.920337630529373E-067
   70.9650000000000        -1.377451608641040E-066
   71.1550000000000        -2.407980999373553E-066
   71.3450000000000        -3.665918251818092E-066
   71.5350000000000        -5.088420334777836E-066
   71.7250000000000        -6.551663252779619E-066
   71.9150000000000        -7.855488965603081E-066
   72.1050000000000        -8.711153435913662E-066
   72.2950000000000        -8.735742537092582E-066
   72.4850000000000        -7.457750407685608E-066
   72.6750000000000        -4.339061991776060E-066
   72.8650000000000         1.181060632826603E-066
   73.0550000000000         9.614679578782892E-066
   73.2450000000000         2.132249972436974E-065
   73.4350000000000         3.637823164597471E-065
   73.6250000000000         5.440246990757427E-065
   73.8150000000000         7.437435439297494E-065
   74.0050000000000         9.443688603045015E-065
   74.1950000000000         1.117209955642665E-064
   74.3850000000000         1.222238008002593E-064
   74.5750000000000         1.207869973158243E-064
   74.7650000000000         1.012305749390600E-064
   74.9550000000000         5.670306269907486E-065
   75.1450000000000        -1.969021963360822E-065
   75.3350000000000        -1.339278068688480E-064
   75.5250000000000        -2.897487097082176E-064
   75.7150000000000        -4.869670718575015E-064
   75.9050000000000        -7.194791040705047E-064
   76.0950000000000        -9.730870601440278E-064
   76.2850000000000        -1.223353005608501E-063
   76.4750000000000        -1.433796820431601E-063
   76.6650000000000        -1.554860780519732E-063
   76.8550000000000        -1.524165205744426E-063
   77.0450000000000        -1.268659111913695E-063
   77.2350000000000        -7.093046511987125E-064
   77.4250000000000         2.311018557904860E-064
   77.6150000000000         1.616505283603137E-063
   77.8050000000000         3.482361118289166E-063
   77.9950000000000         5.816815376629245E-063
   78.1850000000000         8.539100606946754E-063
   78.3750000000000         1.147671381194552E-062
   78.5650000000000         1.434385167799066E-062
   78.7550000000000         1.672458532041797E-062
   78.9450000000000         1.806527182365214E-062
   79.1350000000000         1.768159201773268E-062
   79.3250000000000         1.478619814154337E-062
   79.5150000000000         8.543035566805191E-063
   79.7050000000000        -1.846276806328820E-063
   79.8950000000000        -1.702032108759608E-062
   80.0850000000000        -3.729928274082649E-062
   80.2750000000000        -6.249356135860988E-062
   80.4650000000000        -9.168921040502665E-062
   80.6550000000000        -1.230272215752607E-061
   80.8450000000000        -1.535022209931681E-061
   81.0350000000000        -1.788152725790442E-061
   81.2250000000000        -1.933242781197497E-061
   81.4150000000000        -1.901426542236401E-061
   81.6050000000000        -1.614409291494653E-061
   81.7950000000000        -9.900470985992559E-062
   81.9850000000000         4.905997691050566E-063
   82.1750000000000         1.563690014205541E-061
   82.3650000000000         3.582856994045489E-061
   82.5550000000000         6.085841426402328E-061
   82.7450000000000         8.982376107940574E-061
   82.9350000000000         1.209263026366422E-060
   83.1250000000000         1.512938056731636E-060
   83.3150000000000         1.768553138572375E-060
   83.5050000000000         1.923086618526295E-060
   83.6950000000000         1.912246594130521E-060
   83.8850000000000         1.663348019184674E-060
   84.0750000000000         1.100472220515763E-060
   84.2650000000000         1.522710672370477E-061
   84.4550000000000        -1.237386952087759E-060
   84.6450000000000        -3.095990437543218E-060
   84.8350000000000        -5.406601559937746E-060
   85.0250000000000        -8.090601553741536E-060
   85.2150000000000        -1.099040391022876E-059
   85.4050000000000        -1.385418694713955E-059
   85.5950000000000        -1.632532322788776E-059
   85.7850000000000        -1.793975297540377E-059
   85.9750000000000        -1.813497150166218E-059
   86.1650000000000        -1.627446616109915E-059
   86.3550000000000        -1.169122080713565E-059
   86.5450000000000        -3.753173140078214E-060
   86.7350000000000         8.047862950533061E-060
   86.9250000000000         2.398441390679761E-059
   87.1150000000000         4.396222131320558E-059
   87.3050000000000         6.737699675091997E-059
   87.4950000000000         9.297065836228543E-059
   87.6850000000000         1.187034767979563E-058
   87.8750000000000         1.416634542443085E-058
   88.0650000000000         1.580386911343314E-058
   88.2550000000000         1.631817647304451E-058
   88.4450000000000         1.517964104072385E-058
   88.6350000000000         1.182751115102101E-058
   88.8250000000000         5.721057717916890E-059
   89.0150000000000        -3.590641548442847E-059
   89.2050000000000        -1.638064702932226E-058
   89.3950000000000        -3.264041401331531E-058
   89.5850000000000        -5.196575488408179E-058
   89.7750000000000        -7.344122211503412E-058
   89.9650000000000        -9.553528908910047E-058
   90.1550000000000        -1.160224295601119E-057
   90.3450000000000        -1.319515895704678E-057
   90.5350000000000        -1.396830982047096E-057
   90.7250000000000        -1.350171611307503E-057
   90.9150000000000        -1.134360318905910E-057
   91.1050000000000        -7.047803902273025E-058
   91.2950000000000        -2.254179960429995E-059
   91.4850000000000         9.389357742000004E-058
   91.6750000000000         2.186091296407517E-057
   91.8650000000000         3.696513969934548E-057
   92.0550000000000         5.409971411539519E-057
   92.2450000000000         7.220055318524979E-057
   92.4350000000000         8.967599899299136E-057
   92.6250000000000         1.043728205943301E-056
   92.8150000000000         1.135900977449140E-056
   93.0050000000000         1.141580321985860E-056
   93.1950000000000         1.025982356391208E-056
   93.3850000000000         7.537956106675154E-057
   93.5750000000000         2.927859324825031E-057
   93.7650000000000        -3.815390393277247E-057
   93.9550000000000        -1.280302063784312E-056
   94.1450000000000        -2.394901524324726E-056
   94.3350000000000        -3.690333675401565E-056
   94.5250000000000        -5.098783246761927E-056
   94.7150000000000        -6.514268142189836E-056
   94.9050000000000        -7.789307246308729E-056
   95.0950000000000        -8.734728815641003E-056
   95.2850000000000        -9.123821867516293E-056
   95.4750000000000        -8.702021890166470E-056
   95.6650000000000        -7.203180863486741E-056
   95.8550000000000        -4.373167085503996E-056
   96.0450000000000        -1.044988122112743E-059
   96.2350000000000         6.042618569702085E-056
   96.4250000000000         1.376168910620143E-055
   96.6150000000000         2.298711301092776E-055
   96.8050000000000         3.333000185150874E-055
   96.9950000000000         4.414019039374468E-055
   97.1850000000000         5.447657501719053E-055
   97.3750000000000         6.309661215744062E-055
   97.5650000000000         6.847305198218735E-055
   97.7550000000000         6.884609377040872E-055
   97.9450000000000         6.231845657460595E-055
   98.1350000000000         4.699914717108010E-055
   98.3250000000000         2.119879180187541E-055
   98.5150000000000        -1.632484787275466E-055
   98.7050000000000        -6.607816553610795E-055
   98.8950000000000        -1.275136824336560E-054
   99.0850000000000        -1.987044772055479E-054
   99.2750000000000        -2.760413215698338E-054
   99.4650000000000        -3.539911532074111E-054
   99.6550000000000        -4.249629329331125E-054
   99.8450000000000        -4.793322983970989E-054
   100.035000000000        -5.056784926093079E-054
   100.225000000000        -4.912844680397137E-054
   100.415000000000        -4.229425079098842E-054
   100.605000000000        -2.880919701508305E-054
   100.795000000000        -7.629196099637059E-055
   100.985000000000         2.190004985983256E-054
   101.175000000000         5.984166135548235E-054
   101.365000000000         1.054543304774300E-053
   101.555000000000         1.569840878197100E-053
   101.745000000000         2.114832468572488E-053
   101.935000000000         2.646835747549726E-053
   102.125000000000         3.109546318968361E-053
   102.315000000000         3.433804060383084E-053
   102.505000000000         3.539870575774729E-053
   102.695000000000         3.341509904502139E-053
   102.885000000000         2.752088251317872E-053
   103.075000000000         1.692785791786750E-053
   103.265000000000         1.028411154226344E-054
   103.455000000000        -2.048473186368324E-053
   103.645000000000        -4.748711842735127E-053
   103.835000000000        -7.928823288073719E-053
   104.025000000000        -1.145060514506257E-052
   104.215000000000        -1.509653950880056E-052
   104.405000000000        -1.856376397355177E-052
   104.595000000000        -2.146411949446074E-052
   104.785000000000        -2.333227773736948E-052
   104.975000000000        -2.364384277122483E-052
   105.165000000000        -2.184500036640498E-052
   105.355000000000        -1.739471429570104E-052
   105.545000000000        -9.819615866516478E-053
   105.735000000000         1.219408965529129E-053
   105.925000000000         1.585134648970495E-052
   106.115000000000         3.391395281032407E-052
   106.305000000000         5.487327248882050E-052
   106.495000000000         7.775145126974842E-052
   106.685000000000         1.010722072631946E-051
   106.875000000000         1.228346867530429E-051
   107.065000000000         1.405272330429846E-051
   107.255000000000         1.511925891737120E-051
   107.445000000000         1.515549842093500E-051
   107.635000000000         1.382171832013806E-051
   107.825000000000         1.079317242759120E-051
   108.015000000000         5.794511183476572E-052
   108.205000000000        -1.359331604215851E-052
   108.395000000000        -1.071746274847843E-051
   108.585000000000        -2.214520480940929E-051
   108.775000000000        -3.527778448943947E-051
   108.965000000000        -4.948020312166166E-051
   109.155000000000        -6.381885374492352E-051
   109.345000000000        -7.705111858672787E-051
   109.535000000000        -8.763949369126690E-051
   109.725000000000        -9.379660641860328E-051
   109.915000000000        -9.356668181699613E-051
   110.105000000000        -8.494745637771644E-051