  -1.42500000000000         0.000000000000000E+000
  -1.23500000000000         0.000000000000000E+000
  -1.04500000000000         0.000000000000000E+000
 -0.855000000000000         0.000000000000000E+000
 -0.665000000000000         0.000000000000000E+000
 -0.475000000000000         0.000000000000000E+000
 -0.285000000000000         0.000000000000000E+000
 -9.499999999999975E-002    0.000000000000000E+000
  9.500000000000020E-002    0.000000000000000E+000
  0.285000000000000         0.000000000000000E+000
  0.475000000000000         0.000000000000000E+000
  0.665000000000000         0.000000000000000E+000
  0.855000000000000         0.000000000000000E+000
   1.04500000000000         0.000000000000000E+000
   1.23500000000000         0.000000000000000E+000
   1.42500000000000         0.000000000000000E+000
   1.61500000000000         0.000000000000000E+000
   1.80500000000000         0.000000000000000E+000
   1.99500000000000         0.000000000000000E+000
   2.18500000000000         0.000000000000000E+000
   2.37500000000000         0.000000000000000E+000
   2.56500000000000         0.000000000000000E+000
   2.75500000000000         0.000000000000000E+000
   2.94500000000000         0.000000000000000E+000
   3.13500000000000         0.000000000000000E+000
   3.32500000000000         0.000000000000000E+000
   3.51500000000000         0.000000000000000E+000
   3.70500000000000         0.000000000000000E+000
   3.89500000000000         0.000000000000000E+000
   4.08500000000000         0.000000000000000E+000
   4.27500000000000         0.000000000000000E+000
   4.46500000000000         0.000000000000000E+000
   4.65500000000000         0.000000000000000E+000
   4.84500000000000         0.000000000000000E+000
   5.03500000000000         0.000000000000000E+000
   5.22500000000000         0.000000000000000E+000
   5.41500000000000         0.000000000000000E+000
   5.60500000000000         0.000000000000000E+000
   5.79500000000000         0.000000000000000E+000
   5.98500000000000         0.000000000000000E+000
   6.17500000000000         6.727219005366148E-166
   6.36500000000000        -8.063349490490280E-160
   6.55500000000000        -1.669858825284508E-155
   6.74500000000000        -1.252008191904769E-155
   6.93500000000000        -1.128026790951789E-151
   7.12500000000000        -7.555126874290609E-150
   7.31500000000000        -2.415214129371676E-148
   7.50500000000000        -5.070504921072740E-147
   7.69500000000000         2.506241242128803E-137
   7.88500000000000        -6.049761600506638E-131
   8.07500000000000        -1.468606041286981E-129
   8.26500000000000        -2.802262737492265E-129
   8.45500000000000         3.845959853465128E-127
   8.64500000000000         7.996236766243825E-126
   8.83500000000000         8.601489145909088E-125
   9.02500000000000         5.332931486984254E-124
   9.21500000000000         7.733560937949688E-124
   9.40500000000000        -2.497584160133286E-122
   9.59500000000000        -3.648695889345622E-121
   9.78500000000000        -3.268289591822743E-120
   9.97500000000000        -2.297629490884807E-119
   10.1650000000000        -1.371114086997264E-118
   10.3550000000000        -7.219639092643534E-118
   10.5450000000000        -3.433176343752313E-117
   10.7350000000000        -1.497146059656984E-116
   10.9250000000000        -6.050287466641347E-116
   11.1150000000000        -2.282273568987469E-115
   11.3050000000000        -8.074760902746707E-115
   11.4950000000000        -2.687268909614864E-114
   11.6850000000000        -8.421588206542747E-114
   11.8750000000000        -2.483325453456546E-113
   12.0650000000000        -6.867793026486339E-113
   12.2550000000000        -1.768853833543912E-112
   12.4450000000000        -4.184412898267920E-112
   12.6350000000000        -8.833434178253013E-112
   12.8250000000000        -1.549253740001304E-111
   13.0150000000000        -1.709288361139183E-111
   13.2050000000000         1.910012557942824E-111
   13.3950000000000         2.047499858335842E-110
   13.5850000000000         8.652291272095020E-110
   13.7750000000000         2.849296974152765E-109
   13.9650000000000         8.178602836957917E-109
   14.1550000000000         2.128969563877265E-108
   14.3450000000000         5.118211030179379E-108
   14.5350000000000         1.147109919768811E-107
   14.7250000000000         2.408252001346606E-107
   14.9150000000000         4.742952524232435E-107
   15.1050000000000         8.743799690490234E-107
   15.2950000000000         1.496378192237487E-106
   15.4850000000000         2.325432569883219E-106
   15.6750000000000         3.085897653933541E-106
   15.8650000000000         2.739507737108890E-106
   16.0550000000000        -1.761047410156299E-106
   16.2450000000000        -1.840673808864574E-105
   16.4350000000000        -6.666757299501080E-105
   16.6250000000000        -1.912328611149741E-104
   16.8150000000000        -4.893022046269486E-104
   17.0050000000000        -1.162004038804694E-103
   17.1950000000000        -2.607033486620350E-103
   17.3850000000000        -5.580207277266459E-103
   17.5750000000000        -1.147234260426906E-102
   17.7650000000000        -2.278224179470386E-102
   17.9550000000000        -4.392769296761625E-102
   18.1450000000000        -8.263435495268071E-102
   18.3350000000000        -1.522730068418186E-101
   18.5250000000000        -2.756359625580667E-101
   18.7150000000000        -4.906400775374004E-101
   18.9050000000000        -8.581097017890020E-101
   19.0950000000000        -1.470837916672379E-100
   19.2850000000000        -2.461232767157180E-100
   19.4750000000000        -4.001747897376093E-100
   19.6650000000000        -6.287634335967879E-100
   19.8550000000000        -9.484353256674711E-100
   20.0450000000000        -1.360915983286575E-099
   20.2350000000000        -1.829002103704345E-099
   20.4250000000000        -2.228889338875760E-099
   20.6150000000000        -2.256242987037123E-099
   20.8050000000000        -1.242049580845232E-099
   20.9950000000000         2.201933111177853E-099
   21.1850000000000         1.084486238661587E-098
   21.3750000000000         3.002435806389216E-098
   21.5650000000000         6.969148308550390E-098
   21.7550000000000         1.477972468174053E-097
   21.9450000000000         2.957155024504537E-097
   22.1350000000000         5.667034050590916E-097
   22.3250000000000         1.048866433735324E-096
   22.5150000000000         1.884813186022140E-096
   22.7050000000000         3.301267480348596E-096
   22.8950000000000         5.653456602964278E-096
   23.0850000000000         9.491168961077531E-096
   23.2750000000000         1.565591033921812E-095
   23.4650000000000         2.542131100783738E-095
   23.6550000000000         4.069120970620841E-095
   23.8450000000000         6.427044754805000E-095
   24.0350000000000         1.002202760572462E-094
   24.2250000000000         1.543002749486985E-094
   24.4150000000000         2.344775929341946E-094
   24.6050000000000         3.514474424140029E-094
   24.7950000000000         5.190519683923220E-094
   24.9850000000000         7.544058242749272E-094
   25.1750000000000         1.077437019696793E-093
   25.3650000000000         1.509433916711292E-093
   25.5550000000000         2.070054252975010E-093
   25.7450000000000         2.772089100415768E-093
   25.9350000000000         3.613049779916227E-093
   26.1250000000000         4.562290815633572E-093
   26.3150000000000         5.541793373820029E-093
   26.5050000000000         6.397794085681298E-093
   26.6950000000000         6.859088485229577E-093
   26.8850000000000         6.476189855706407E-093
   27.0750000000000         4.534134686751274E-093
   27.2650000000000        -6.805641438419397E-095
   27.4550000000000        -8.973791652031645E-093
   27.6450000000000        -2.455055508995098E-092
   27.8350000000000        -5.005760173356770E-092
   28.0250000000000        -8.970785863453644E-092
   28.2150000000000        -1.484458560086228E-091
   28.4050000000000        -2.311360975850487E-091
   28.5950000000000        -3.406880474368153E-091
   28.7850000000000        -4.744513390938756E-091
   28.9750000000000        -6.180422726384932E-091
   29.1650000000000        -7.356964469025850E-091
   29.3550000000000        -7.564248771509926E-091
   29.5450000000000        -5.558908182042840E-091
   29.7350000000000         6.470416708962740E-092
   29.9250000000000         1.399015661431273E-090
   30.1150000000000         3.847747118819152E-090
   30.3050000000000         7.909821643497170E-090
   30.4950000000000         1.413291842446145E-089
   30.6850000000000         2.299605026191408E-089
   30.8750000000000         3.468958326933588E-089
   31.0650000000000         4.875366294509665E-089
   31.2550000000000         6.353816630916256E-089
   31.4450000000000         7.546131805137894E-089
   31.6350000000000         7.807671735673458E-089
   31.8250000000000         6.101746085980851E-089
   32.0150000000000         8.979044731186621E-090
   32.2050000000000        -9.896430265473299E-089
   32.3950000000000        -2.892409445980517E-088
   32.5850000000000        -5.921834681376708E-088
   32.7750000000000        -1.038051116005328E-087
   32.9650000000000        -1.649577059945835E-087
   33.1550000000000        -2.429838043105223E-087
   33.3450000000000        -3.344321269130961E-087
   33.5350000000000        -4.296450651548500E-087
   33.7250000000000        -5.096687381919648E-087
   33.9150000000000        -5.426813483736787E-087
   34.1050000000000        -4.803314811116853E-087
   34.2950000000000        -2.547036090870964E-087
   34.4850000000000         2.229475563370829E-087
   34.6750000000000         1.060042370959274E-086
   34.8650000000000         2.374894794026306E-086
   35.0550000000000         4.280576692851595E-086
   35.2450000000000         6.857342844587948E-086
   35.4350000000000         1.011052785929459E-085
   35.6250000000000         1.391143349919998E-085
   35.8150000000000         1.792026309920451E-085
   36.0050000000000         2.149299346868633E-085
   36.1950000000000         2.357857257088985E-085
   36.3850000000000         2.261929799389988E-085
   36.5750000000000         1.647580417239027E-085
   36.7650000000000         2.408595499249991E-086
   36.9550000000000        -2.284014500949139E-085
   37.1450000000000        -6.280900202513436E-085
   37.3350000000000        -1.208590950304672E-084
   37.5250000000000        -1.994263207590769E-084
   37.7150000000000        -2.989212837827312E-084
   37.9050000000000        -4.162356344299040E-084
   38.0950000000000        -5.428567077986981E-084
   38.2850000000000        -6.626635044901185E-084
   38.4750000000000        -7.495814755682065E-084
   38.6650000000000        -7.654139937838792E-084
   38.8550000000000        -6.583428618873430E-084
   39.0450000000000        -3.627895661973986E-084
   39.2350000000000         1.984659542377513E-084
   39.4250000000000         1.108833429811008E-083
   39.6150000000000         2.447945922930910E-083
   39.8050000000000         4.276027430144234E-083
   39.9950000000000         6.611684511586453E-083
   40.1850000000000         9.402750950353906E-083
   40.3750000000000         1.249073494109668E-082
   40.5650000000000         1.557078838935796E-082
   40.7550000000000         1.815096767156338E-082
   40.9450000000000         1.951684951964940E-082
   41.1350000000000         1.871017267727945E-082
   41.3250000000000         1.453283476896224E-082
   41.5150000000000         5.589867263517013E-083
   41.7050000000000        -9.613648128492904E-083
   41.8950000000000        -3.250711905299340E-082
   42.0850000000000        -6.420875982331695E-082
   42.2750000000000        -1.051943759480672E-081
   42.4650000000000        -1.548858575304651E-081
   42.6550000000000        -2.111797397333679E-081
   42.8450000000000        -2.699556085526336E-081
   43.0350000000000        -3.246266363733643E-081
   43.2250000000000        -3.658176438675639E-081
   43.4150000000000        -3.812758320621917E-081
   43.6050000000000        -3.561301997622928E-081
   43.7950000000000        -2.736108558350567E-081
   43.9850000000000        -1.163115518345207E-081
   44.1750000000000         1.319789400483975E-081
   44.3650000000000         4.839426382775284E-081
   44.5550000000000         9.460859436606350E-081
   44.7450000000000         1.516119645105542E-080
   44.9350000000000         2.180854419131981E-080
   45.1250000000000         2.915218134248470E-080
   45.3150000000000         3.683033681225813E-080
   45.5050000000000         4.440077272198306E-080
   45.6950000000000         5.139591496277298E-080
   45.8850000000000         5.739781149392942E-080
   46.0750000000000         6.211819761485587E-080
   46.2650000000000         6.545534908396428E-080
   46.4550000000000         6.748296886939683E-080
   46.6450000000000         6.830906681722423E-080
   46.8350000000000         6.772827808256542E-080
   47.0250000000000         6.458493112477762E-080
   47.2150000000000         5.577415269871200E-080
   47.4050000000000         3.484403821396369E-080
   47.5950000000000        -9.765763091570513E-081
   47.7850000000000        -9.669432581870962E-080
   47.9750000000000        -2.535097553746387E-079
   48.1650000000000        -5.178804284585314E-079
   48.3550000000000        -9.372310357044513E-079
   48.5450000000000        -1.565748969014669E-078
   48.7350000000000        -2.457334150894425E-078
   48.9250000000000        -3.652912638399566E-078
   49.1150000000000        -5.160564613492380E-078
   49.3050000000000        -6.927282730527998E-078
   49.4950000000000        -8.802031002730841E-078
   49.6850000000000        -1.049127757119856E-077
   49.8750000000000        -1.151046703681849E-077
   50.0650000000000        -1.113806120285821E-077
   50.2550000000000        -8.382782521461193E-078
   50.4450000000000        -1.979340525630883E-078
   50.6350000000000         9.567236627553349E-078
   50.8250000000000         2.786426152202694E-077
   51.0150000000000         5.441403265744653E-077
   51.2050000000000         9.027004708054036E-077
   51.3950000000000         1.355459970394742E-076
   51.5850000000000         1.887695501972684E-076
   51.7750000000000         2.460949628937557E-076
   51.9650000000000         3.004216803945928E-076
   52.1550000000000         3.405111987542086E-076
   52.3450000000000         3.502511001116771E-076
   52.5350000000000         3.082806158059279E-076
   52.7250000000000         1.882605933438949E-076
   52.9150000000000        -3.986715391247959E-077
   53.1050000000000        -4.072442826512211E-076
   53.2950000000000        -9.416940435665738E-076
   53.4850000000000        -1.661220707213981E-075
   53.6750000000000        -2.565221699115116E-075
   53.8650000000000        -3.623479062562123E-075
   54.0550000000000        -4.763385218092912E-075
   54.2450000000000        -5.856392267537779E-075
   54.4350000000000        -6.705351413429661E-075
   54.6250000000000        -7.035203008648254E-075
   54.8150000000000        -6.490329981036608E-075
   55.0050000000000        -4.642699757956156E-075
   55.1950000000000        -1.015548426909496E-075
   55.3850000000000         4.872386237723355E-075
   55.5750000000000         1.343743536307264E-074
   55.7650000000000         2.493296537013952E-074
   55.9550000000000         3.932173077873868E-074
   56.1450000000000         5.612141326176025E-074
   56.3350000000000         7.423154340107557E-074
   56.5250000000000         9.175702342479924E-074
   56.7150000000000         1.058519405763585E-073
   56.9050000000000         1.126168111756937E-073
   57.0950000000000         1.070919796967080E-073
   57.2850000000000         8.339832878118260E-074
   57.4750000000000         3.508196908851109E-074
   57.6650000000000        -4.428006392102841E-074
   57.8550000000000        -1.601635043917171E-073
   58.0450000000000        -3.158384011550363E-073
   58.2350000000000        -5.107684677203105E-073
   58.4250000000000        -7.387154548279055E-073
   58.6150000000000        -9.856601290432325E-073
   58.8050000000000        -1.227732576246725E-072
   58.9950000000000        -1.429439691927319E-072
   59.1850000000000        -1.542580873421739E-072
   59.3750000000000        -1.506344092860134E-072
   59.5650000000000        -1.249159093154300E-072
   59.7550000000000        -6.929328963532737E-073
   59.9450000000000         2.397190726693751E-073
   60.1350000000000         1.614733158000704E-072
   60.3250000000000         3.472054294379775E-072
   60.5150000000000         5.807360283006864E-072
   60.7050000000000         8.550660054061328E-072
   60.8950000000000         1.154309041277681E-071
   61.0850000000000         1.451412941569884E-071
   61.2750000000000         1.706248048988542E-071
   61.4650000000000         1.864499061854456E-071
   61.6550000000000         1.857903504599715E-071
   61.8450000000000         1.606466553414335E-071
   62.0350000000000         1.023326019605829E-071
   62.2250000000000         2.291590533467768E-073
   62.4150000000000        -1.467049208243252E-071
   62.6050000000000        -3.489506821754120E-071
   62.7950000000000        -6.038059761857359E-071
   62.9850000000000        -9.033849239665904E-071
   63.1750000000000        -1.230088314198296E-070
   63.3650000000000        -1.554241921558222E-070
   63.5550000000000        -1.832214962089586E-070
   63.7450000000000        -2.005513347297286E-070
   63.9350000000000        -2.001453441744856E-070
   64.1250000000000        -1.736103676533073E-070
   64.3150000000000        -1.120206850122039E-070
   64.5050000000000        -6.873273550541021E-072
   64.6950000000000         1.485477778283746E-070
   64.8850000000000         3.573866457774647E-070
   65.0750000000000         6.170544303157887E-070
   65.2650000000000         9.168106558115835E-070
   65.4550000000000         1.235304686912615E-069
   65.6450000000000         1.538409713769536E-069
   65.8350000000000         1.777807757649442E-069
   66.0250000000000         1.890906615746012E-069
   66.2150000000000         1.802768634280991E-069
   66.4050000000000         1.430779466142095E-069
   66.5950000000000         6.927487583097901E-070
   66.7850000000000        -4.810245696230154E-070
   66.9750000000000        -2.131512122070466E-069
   67.1650000000000        -4.250851780066909E-069
   67.3550000000000        -6.759434316655684E-069
   67.5450000000000        -9.482204556312491E-069
   67.7350000000000        -1.212736227632383E-068
   67.9250000000000        -1.427192340797230E-068
   68.1150000000000        -1.535985309988802E-068
   68.3050000000000        -1.471950175371649E-068
   68.4950000000000        -1.160758344393898E-068
   68.6850000000000        -5.286586418190076E-069
   68.8750000000000         4.859096818277789E-069
   69.0650000000000         1.916629219226789E-068
   69.2550000000000         3.749866731869543E-068
   69.4450000000000         5.902562382306448E-068
   69.6350000000000         8.199499176713691E-068
   69.8250000000000         1.035317147980323E-067
   70.0150000000000         1.195074297059446E-067
   70.2050000000000         1.245381898490325E-067
   70.3950000000000         1.121774462105356E-067
   70.5850000000000         7.537596317063097E-068
   70.7750000000000         7.276155411451759E-069
   70.9650000000000        -9.760848867042801E-068
   71.1550000000000        -2.418116000701861E-067
   71.3450000000000        -4.229657313403455E-067
   71.5350000000000        -6.315990054915897E-067
   71.7250000000000        -8.488847528782635E-067
   71.9150000000000        -1.044667075547364E-066
   72.1050000000000        -1.176209566188418E-066
   72.2950000000000        -1.188234083823352E-066
   72.4850000000000        -1.014911035450127E-066
   72.6750000000000        -5.845050022871733E-067
   72.8650000000000         1.726629315309335E-067
   73.0550000000000         1.312438440207225E-066
   73.2450000000000         2.861066141898955E-066
   73.4350000000000         4.795763177199396E-066
   73.6250000000000         7.022681775444418E-066
   73.8150000000000         9.354225708237050E-066
   74.0050000000000         1.148876946382387E-065
   74.1950000000000         1.299700208237254E-065
   74.3850000000000         1.332025159029887E-065
   74.5750000000000         1.178705600906986E-065
   74.7650000000000         7.654691312946323E-066
   74.9550000000000         1.820548335947200E-067
   75.1450000000000        -1.126108649175638E-065
   75.3350000000000        -2.704625944383547E-065
   75.5250000000000        -4.710208993622803E-065
   75.7150000000000        -7.070226586223731E-065
   75.9050000000000        -9.624226734411294E-065
   76.0950000000000        -1.210310920501039E-064
   76.2850000000000        -1.411347084265204E-064
   76.4750000000000        -1.513183058919206E-064
   76.6650000000000        -1.451430548180777E-064
   76.8550000000000        -1.152780480675439E-064
   77.0450000000000        -5.408697070934565E-065
   77.2350000000000         4.546082456760915E-065
   77.4250000000000         1.885264447166264E-064
   77.6150000000000         3.767914232643511E-064
   77.8050000000000         6.065584418506026E-064
   77.9950000000000         8.666853657205446E-064
   78.1850000000000         1.136554257721244E-063
   78.3750000000000         1.384365034276406E-063
   78.5650000000000         1.566132530226566E-063
   78.7550000000000         1.625844561605289E-063
   78.9450000000000         1.497292075582449E-063
   79.1350000000000         1.108092358595416E-063
   79.3250000000000         3.863719844504632E-064
   79.5150000000000        -7.295633639409489E-064
   79.7050000000000        -2.278488973878253E-063
   79.8950000000000        -4.260729911892082E-063
   80.0850000000000        -6.620602017069179E-063
   80.2750000000000        -9.228186266715807E-063
   80.4650000000000        -1.186248054623175E-062
   80.6550000000000        -1.419869007486814E-062
   80.8450000000000        -1.580309280748809E-062
   81.0350000000000        -1.613944567665946E-062
   81.2250000000000        -1.459115323480464E-062
   81.4150000000000        -1.050325461800888E-062
   81.6050000000000        -3.247541669557983E-063
   81.7950000000000         7.687348342711192E-063
   81.9850000000000         2.258133798390360E-062
   82.1750000000000         4.134751332420414E-062
   82.3650000000000         6.338374623544225E-062
   82.5550000000000         8.742403010708999E-062
   82.7450000000000         1.114075686732458E-061
   82.9350000000000         1.323890164487419E-061
   83.1250000000000         1.465180002376213E-061
   83.3150000000000         1.491193306389275E-061
   83.5050000000000         1.349061612930005E-061
   83.6950000000000         9.835569229775082E-062
   83.8850000000000         3.426975126796820E-062
   84.0750000000000        -6.147025877510595E-062
   84.2650000000000        -1.909636905280857E-061
   84.4550000000000        -3.532015855145757E-061
   84.6450000000000        -5.428953380855499E-061
   84.8350000000000        -7.493268673306765E-061
   85.0250000000000        -9.553632164386710E-061
   85.2150000000000        -1.136816589350462E-060
   85.4050000000000        -1.262363073881176E-060
   85.5950000000000        -1.294253706516390E-060
   85.7850000000000        -1.190053168993202E-060
   85.9750000000000        -9.056167985357524E-061
   86.1650000000000        -3.994583751943024E-061
   86.3550000000000         3.614370741111921E-061
   86.5450000000000         1.394443785286672E-060
   86.7350000000000         2.693045354474000E-060
   86.9250000000000         4.218010365904173E-060
   87.1150000000000         5.888761209055935E-060
   87.3050000000000         7.575980604901789E-060
   87.4950000000000         9.096767391659874E-060
   87.6850000000000         1.021387699304977E-059
   87.8750000000000         1.064072155264452E-059
   88.0650000000000         1.005381255995647E-059
   88.2550000000000         8.114154094459581E-060
   88.4450000000000         4.498687592134180E-060
   88.6350000000000        -1.057794096216575E-060
   88.8250000000000        -8.710834270813911E-060
   89.0150000000000        -1.844647426493843E-059
   89.2050000000000        -3.001685359719368E-059
   89.3950000000000        -4.287652929088639E-059
   89.5850000000000        -5.612672578912117E-059
   89.7750000000000        -6.847660474172018E-059
   89.9650000000000        -7.823224639206640E-059
   90.1550000000000        -8.332508516853016E-059
   90.3450000000000        -8.139172155291035E-059
   90.5350000000000        -6.991599501619331E-059
   90.7250000000000        -4.644160554738765E-059
   90.9150000000000        -8.859110562237188E-060
   91.1050000000000         4.423541667124563E-059
   91.2950000000000         1.131214753982918E-058
   91.4850000000000         1.964970996783844E-058
   91.6750000000000         2.910181709346876E-058
   91.8650000000000         3.908818222272448E-058
   92.0550000000000         4.875147805183156E-058
   92.2450000000000         5.694389809883356E-058
   92.4350000000000         6.223948372436385E-058
   92.6250000000000         6.298050385522590E-058
   92.8150000000000         5.736563579501850E-058
   93.0050000000000         4.358613719093297E-058
   93.1950000000000         2.001341275005995E-058
   93.3850000000000        -1.456278949412521E-058
   93.5750000000000        -6.065193215035313E-058
   93.7650000000000        -1.177493659333320E-057
   93.9550000000000        -1.840136388597572E-057
   94.1450000000000        -2.559647776972455E-057
   94.3350000000000        -3.282427334941038E-057
   94.5250000000000        -3.934731289202414E-057
   94.7150000000000        -4.422933249675514E-057
   94.9050000000000        -4.635942799472943E-057
   95.0950000000000        -4.450312219801147E-057
   95.2850000000000        -3.738473026652842E-057
   95.4750000000000        -2.380377910463790E-057
   95.6650000000000        -2.785698347937160E-058
   95.8550000000000         2.623646159722714E-057
   96.0450000000000         6.321688105254472E-057
   96.2350000000000         1.072810925559493E-056
   96.4250000000000         1.565176642002798E-056
   96.6150000000000         2.078014092507065E-056
   96.8050000000000         2.566772849851518E-056
   96.9950000000000         2.973381706637400E-056
   97.1850000000000         3.227317536199845E-056
   97.3750000000000         3.248309121951080E-056
   97.5650000000000         2.950973639836231E-056
   97.7550000000000         2.251591268239803E-056
   97.9450000000000         1.077078874930452E-056
   98.1350000000000        -6.239762402190066E-057
   98.3250000000000        -2.868615572190141E-056
   98.5150000000000        -5.625835355534516E-056
   98.7050000000000        -8.802965993943954E-056
   98.8950000000000        -1.223347464560547E-055
   99.0850000000000        -1.566788265369861E-055
   99.2750000000000        -1.876975185867812E-055
   99.4650000000000        -2.111885094901622E-055
   99.6550000000000        -2.222361487986675E-055
   99.8450000000000        -2.154480600257316E-055
   100.035000000000        -1.853182755717235E-055
   100.225000000000        -1.267239066804080E-055
   100.415000000000        -3.555173105038316E-056
   100.605000000000         9.056266781882481E-056
   100.795000000000         2.514171260142543E-055
   100.985000000000         4.433990720619496E-055
   101.175000000000         6.586879075021314E-055
   101.365000000000         8.845949961458361E-055
   101.555000000000         1.103149283383408E-054
   101.745000000000         1.291048299472625E-054
   101.935000000000         1.420098496103252E-054
   102.125000000000         1.458262751774672E-054
   102.315000000000         1.371413782425358E-054
   102.505000000000         1.125857804103859E-054
   102.695000000000         6.916415043296987E-055
   102.885000000000         4.658663227138343E-056
   103.075000000000        -8.190888152529893E-055
   103.265000000000        -1.897803103825995E-054
   103.455000000000        -3.159645728967014E-054
   103.645000000000        -4.547874244560885E-054
   103.835000000000        -5.975435779828114E-054
   104.025000000000        -7.323160646196838E-054
   104.215000000000        -8.440327635818647E-054
   104.405000000000        -9.148305653022855E-054
   104.595000000000        -9.247919072178991E-054
   104.785000000000        -8.531050451149842E-054
   104.975000000000        -6.796772151843990E-054
   105.165000000000        -3.871980454521626E-054
   105.355000000000         3.639094794601874E-055
   105.545000000000         5.951155091944869E-054
   105.735000000000         1.282029070299236E-053
   105.925000000000         2.076329452319394E-053
   106.115000000000         2.940809471477180E-053
   106.305000000000         3.819976486096224E-053
   106.495000000000         4.639221330086579E-053
   106.685000000000         5.305442682027321E-053
   106.875000000000         5.709530222312104E-053
   107.065000000000         5.731070301330875E-053
   107.255000000000         5.245553233971840E-053
   107.445000000000         4.134225197950056E-053
   107.635000000000         2.296536046981632E-053
   107.825000000000        -3.351131232224945E-054
   108.015000000000        -3.778917451340476E-053
   108.205000000000        -7.986444706080077E-053
   108.395000000000        -1.282593627808473E-052
   108.585000000000        -1.806778759814132E-052
   108.775000000000        -2.337418620145007E-052
   108.965000000000        -2.829513297648887E-052
   109.155000000000        -3.227319728436586E-052
   109.345000000000        -3.465931009439651E-052
   109.535000000000        -3.474163156925312E-052
   109.725000000000        -3.178899573110104E-052
   109.915000000000        -2.510960014507239E-052
   110.105000000000        -1.412445463549958E-052