  -1.42500000000000         0.000000000000000E+000
  -1.23500000000000         0.000000000000000E+000
  -1.04500000000000         0.000000000000000E+000
 -0.855000000000000         0.000000000000000E+000
 -0.665000000000000         0.000000000000000E+000
 -0.475000000000000         0.000000000000000E+000
 -0.285000000000000         0.000000000000000E+000
 -9.499999999999975E-002    0.000000000000000E+000
  9.500000000000020E-002    0.000000000000000E+000
  0.285000000000000         0.000000000000000E+000
  0.475000000000000         0.000000000000000E+000
  0.665000000000000         0.000000000000000E+000
  0.855000000000000         0.000000000000000E+000
   1.04500000000000         0.000000000000000E+000
   1.23500000000000         0.000000000000000E+000
   1.42500000000000         0.000000000000000E+000
   1.61500000000000         0.000000000000000E+000
   1.80500000000000         0.000000000000000E+000
   1.99500000000000         0.000000000000000E+000
   2.18500000000000         0.000000000000000E+000
   2.37500000000000         0.000000000000000E+000
   2.56500000000000         0.000000000000000E+000
   2.75500000000000         0.000000000000000E+000
   2.94500000000000         0.000000000000000E+000
   3.13500000000000         0.000000000000000E+000
   3.32500000000000         0.000000000000000E+000
   3.51500000000000         0.000000000000000E+000
   3.70500000000000         0.000000000000000E+000
   3.89500000000000         0.000000000000000E+000
   4.08500000000000         0.000000000000000E+000
   4.27500000000000         0.000000000000000E+000
   4.46500000000000         0.000000000000000E+000
   4.65500000000000         0.000000000000000E+000
   4.84500000000000         0.000000000000000E+000
   5.03500000000000         0.000000000000000E+000
   5.22500000000000         0.000000000000000E+000
   5.41500000000000         0.000000000000000E+000
   5.60500000000000         0.000000000000000E+000
   5.79500000000000         0.000000000000000E+000
   5.98500000000000         0.000000000000000E+000
   6.17500000000000         6.390858055097842E-167
   6.36500000000000        -7.660169234249657E-161
   6.55500000000000        -1.586519087532785E-156
   6.74500000000000        -4.362292753862599E-156
   6.93500000000000        -1.072180621457817E-152
   7.12500000000000        -7.391751137862281E-151
   7.31500000000000        -2.440144639587475E-149
   7.50500000000000        -5.290439481268160E-148
   7.69500000000000         2.380929179011620E-138
   7.88500000000000        -5.747268758622946E-132
   8.07500000000000        -1.510121162013674E-130
   8.26500000000000        -5.567446501853954E-130
   8.45500000000000         3.571365899767156E-128
   8.64500000000000         8.318927703987539E-127
   8.83500000000000         9.762949951805552E-126
   9.02500000000000         6.859721376676958E-125
   9.21500000000000         1.927288918036420E-124
   9.40500000000000        -2.106507231412458E-123
   9.59500000000000        -3.914182313232248E-122
   9.78500000000000        -3.842919453042665E-121
   9.97500000000000        -2.877527472867995E-120
   10.1650000000000        -1.808585931568257E-119
   10.3550000000000        -9.969801452227018E-119
   10.5450000000000        -4.944363385588534E-118
   10.7350000000000        -2.242876847889457E-117
   10.9250000000000        -9.412938697872873E-117
   11.1150000000000        -3.684231069656312E-116
   11.3050000000000        -1.352341381780378E-115
   11.4950000000000        -4.672349131675434E-115
   11.6850000000000        -1.522576339202517E-114
   11.8750000000000        -4.681786399607795E-114
   12.0650000000000        -1.356534895555354E-113
   12.2550000000000        -3.689386374938273E-113
   12.4450000000000        -9.344989770159512E-113
   12.6350000000000        -2.171194449285440E-112
   12.8250000000000        -4.482161749220714E-112
   13.0150000000000        -7.577776745304174E-112
   13.2050000000000        -7.387088758340712E-112
   13.3950000000000         1.387867182589548E-111
   13.5850000000000         1.155266875649887E-110
   13.7750000000000         4.684066671944043E-110
   13.9650000000000         1.516057149249919E-109
   14.1550000000000         4.315545504444324E-109
   14.3450000000000         1.120036706879813E-108
   14.5350000000000         2.696021178527224E-108
   14.7250000000000         6.073615003586870E-108
   14.9150000000000         1.286725930288696E-107
   15.1050000000000         2.567967390687349E-107
   15.2950000000000         4.820187643909535E-107
   15.4850000000000         8.450907867924206E-107
   15.6750000000000         1.359167158055013E-106
   15.8650000000000         1.912580670204043E-106
   16.0550000000000         2.005534401264540E-106
   16.2450000000000         8.959477887834699E-108
   16.4350000000000        -7.992464774069023E-106
   16.6250000000000        -3.249300601451759E-105
   16.8150000000000        -9.714383726000024E-105
   17.0050000000000        -2.540179303860063E-104
   17.1950000000000        -6.120764953013854E-104
   17.3850000000000        -1.389864367870632E-103
   17.5750000000000        -3.009856606616508E-103
   17.7650000000000        -6.264042124518935E-103
   17.9550000000000        -1.260148592693935E-102
   18.1450000000000        -2.462488047936755E-102
   18.3350000000000        -4.694107984984498E-102
   18.5250000000000        -8.759243194283409E-102
   18.7150000000000        -1.603886557519035E-101
   18.9050000000000        -2.885198847879117E-101
   19.0950000000000        -5.097699085417428E-101
   19.2850000000000        -8.833166235055511E-101
   19.4750000000000        -1.497299786636212E-100
   19.6650000000000        -2.474791098803890E-100
   19.8550000000000        -3.973129920104935E-100
   20.0450000000000        -6.167013663611281E-100
   20.2350000000000        -9.197435846252656E-100
   20.4250000000000        -1.305243271670375E-099
   20.6150000000000        -1.731330842632099E-099
   20.8050000000000        -2.063668636580923E-099
   20.9950000000000        -1.972479701199324E-099
   21.1850000000000        -7.330341289089198E-100
   21.3750000000000         3.149541813889344E-099
   21.5650000000000         1.262254672308197E-098
   21.7550000000000         3.328397606385833E-098
   21.9450000000000         7.541768724430495E-098
   22.1350000000000         1.573474834577117E-097
   22.3250000000000         3.108266181431813E-097
   22.5150000000000         5.895261820201403E-097
   22.7050000000000         1.082203845325360E-096
   22.8950000000000         1.932902633240084E-096
   23.0850000000000         3.371642061824055E-096
   23.2750000000000         5.760614595352143E-096
   23.4650000000000         9.662950623322416E-096
   23.6550000000000         1.594364009115677E-095
   23.8450000000000         2.591499753031131E-095
   24.0350000000000         4.154161627281445E-095
   24.2250000000000         6.572106861837919E-095
   24.4150000000000         1.026549660672541E-094
   24.6050000000000         1.583178444253328E-094
   24.7950000000000         2.410152884519337E-094
   24.9850000000000         3.619937787553224E-094
   25.1750000000000         5.360188489326357E-094
   25.3650000000000         7.817715878914039E-094
   25.5550000000000         1.121822964011603E-093
   25.7450000000000         1.581826582583727E-093
   25.9350000000000         2.188414776215266E-093
   26.1250000000000         2.965072132792497E-093
   26.3150000000000         3.924960130790590E-093
   26.5050000000000         5.059220939443215E-093
   26.6950000000000         6.318624783679749E-093
   26.8850000000000         7.585476226068667E-093
   27.0750000000000         8.631457057602148E-093
   27.2650000000000         9.055734493477019E-093
   27.4550000000000         8.196758927167514E-093
   27.6450000000000         5.011945986679161E-093
   27.8350000000000        -2.075828911555113E-093
   28.0250000000000        -1.535354764652501E-092
   28.2150000000000        -3.797815053762512E-092
   28.4050000000000        -7.403843612902390E-092
   28.5950000000000        -1.283617299061010E-091
   28.7850000000000        -2.057999716265166E-091
   28.9750000000000        -3.095868647410916E-091
   29.1650000000000        -4.381920430974939E-091
   29.3550000000000        -5.799435688825840E-091
   29.5450000000000        -7.046135599413352E-091
   29.7350000000000        -7.512762917972277E-091
   29.9250000000000        -6.122229080877420E-091
   30.1150000000000        -1.137804439639517E-091
   30.3050000000000         1.003188588456099E-090
   30.4950000000000         3.097248894912167E-090
   30.6850000000000         6.624500920117844E-090
   30.8750000000000         1.210463610558659E-089
   31.0650000000000         2.003174449595768E-089
   31.2550000000000         3.069946827511231E-089
   31.4450000000000         4.390441928936375E-089
   31.6350000000000         5.849053265313454E-089
   31.8250000000000         7.170447958370614E-089
   32.0150000000000         7.835414761485068E-089
   32.2050000000000         6.980554811211378E-089
   32.3950000000000         3.292604962309923E-089
   32.5850000000000        -5.080926958679444E-089
   32.7750000000000        -2.056815550803793E-088
   32.9650000000000        -4.610062317957397E-088
   33.1550000000000        -8.485506665855904E-088
   33.3450000000000        -1.397095801248028E-087
   33.5350000000000        -2.122969133712576E-087
   33.7250000000000        -3.015317246892051E-087
   33.9150000000000        -4.015049829129412E-087
   34.1050000000000        -4.986912017140508E-087
   34.2950000000000        -5.685195352829349E-087
   34.4850000000000        -5.715363602941863E-087
   34.6750000000000        -4.496523172010324E-087
   34.8650000000000        -1.233332865274023E-087
   35.0550000000000         5.089365047259984E-087
   35.2450000000000         1.567038860782755E-086
   35.4350000000000         3.178986577651596E-086
   35.6250000000000         5.461072906708581E-086
   35.8150000000000         8.485084083557007E-086
   36.0050000000000         1.222934345750663E-085
   36.1950000000000         1.651114223126637E-085
   36.3850000000000         2.089993993492139E-085
   36.5750000000000         2.461397464071896E-085
   36.7650000000000         2.640799260952479E-085
   36.9550000000000         2.446699540605185E-085
   37.1450000000000         1.633032643776240E-085
   37.3350000000000        -1.118142782519746E-086
   37.5250000000000        -3.154525728252644E-085
   37.7150000000000        -7.888827971399822E-085
   37.9050000000000        -1.468281869441986E-084
   38.0950000000000        -2.379419594559159E-084
   38.2850000000000        -3.524663796233534E-084
   38.4750000000000        -4.866296527288942E-084
   38.6650000000000        -6.305542223173424E-084
   38.8550000000000        -7.658111236061088E-084
   39.0450000000000        -8.628187042741592E-084
   39.2350000000000        -8.784294474103257E-084
   39.4250000000000        -7.542360059256936E-084
   39.6150000000000        -4.163419674152115E-084
   39.8050000000000         2.224355011269274E-084
   39.9950000000000         1.256768135591342E-083
   40.1850000000000         2.778139504475677E-083
   40.3750000000000         4.858020664163483E-083
   40.5650000000000         7.523865380556674E-083
   40.7550000000000         1.072743220634420E-082
   40.9450000000000         1.430587483950941E-082
   41.1350000000000         1.793744194821766E-082
   41.3250000000000         2.109552765561062E-082
   41.5150000000000         2.300718434869615E-082
   41.7050000000000         2.262492516652344E-082
   41.8950000000000         1.862345228428224E-082
   42.0850000000000         9.435443791032759E-083
   42.2750000000000        -6.657854107248740E-083
   42.4650000000000        -3.136547628770932E-082
   42.6550000000000        -6.614170802777344E-082
   42.8450000000000        -1.118495661149436E-081
   43.0350000000000        -1.683348793829134E-081
   43.2250000000000        -2.339270860058016E-081
   43.4150000000000        -3.049009662191284E-081
   43.6050000000000        -3.749545392424544E-081
   43.7950000000000        -4.347799395242026E-081
   43.9850000000000        -4.718225682528125E-081
   44.1750000000000        -4.703341663724942E-081
   44.3650000000000        -4.118216164315312E-081
   44.5550000000000        -2.759689011474056E-081
   44.7450000000000        -4.205937021461880E-082
   44.9350000000000         3.091531658879458E-081
   45.1250000000000         7.932800584590888E-081
   45.3150000000000         1.420113980929145E-080
   45.5050000000000         2.191809521504437E-080
   45.6950000000000         3.101878054509618E-080
   45.8850000000000         4.135418455848292E-080
   46.0750000000000         5.270820542381753E-080
   46.2650000000000         6.482769236020544E-080
   46.4550000000000         7.745683256577473E-080
   46.6450000000000         9.035707595600374E-080
   46.8350000000000         1.032806237214838E-079
   47.0250000000000         1.158503785961813E-079
   47.2150000000000         1.272844915594128E-079
   47.4050000000000         1.358932196961171E-079
   47.5950000000000         1.382756558327444E-079
   47.7850000000000         1.281619473862678E-079
   47.9750000000000         9.489255967289970E-080
   48.1650000000000         2.161049220874856E-080
   48.3550000000000        -1.166250968867348E-079
   48.5450000000000        -3.544081973350513E-079
   48.7350000000000        -7.366010937264150E-079
   48.9250000000000        -1.317074538709344E-078
   49.1150000000000        -2.154354877639079E-078
   49.3050000000000        -3.302700375321014E-078
   49.4950000000000        -4.796985179980604E-078
   49.6850000000000        -6.629849494503899E-078
   49.8750000000000        -8.720015232265519E-078
   50.0650000000000        -1.087162541503480E-077
   50.2550000000000        -1.272610556884515E-077
   50.4450000000000        -1.371050725831890E-077
   50.6350000000000        -1.298965712863626E-077
   50.8250000000000        -9.433664804426134E-078
   51.0150000000000        -1.617226857376153E-078
   51.2050000000000         1.212776071773260E-077
   51.3950000000000         3.358028490913397E-077
   51.5850000000000         6.439026189662452E-077
   51.7750000000000         1.057023906402718E-076
   51.9650000000000         1.576214717526649E-076
   52.1550000000000         2.185100952718010E-076
   52.3450000000000         2.841325136640602E-076
   52.5350000000000         3.466930266762327E-076
   52.7250000000000         3.938644415454659E-076
   52.9150000000000         4.079618182914503E-076
   53.1050000000000         3.654862318178989E-076
   53.2950000000000         2.373370908272083E-076
   53.4850000000000        -9.939810496944471E-078
   53.6750000000000        -4.114518390982087E-076
   53.8650000000000        -9.993784114575461E-076
   54.0550000000000        -1.796130518119775E-075
   54.2450000000000        -2.805009379254690E-075
   54.4350000000000        -3.998375028946597E-075
   54.6250000000000        -5.303727699043999E-075
   54.8150000000000        -6.588653333064061E-075
   55.0050000000000        -7.646291158268374E-075
   55.1950000000000        -8.183824735830612E-075
   55.3850000000000        -7.817425143803294E-075
   55.5750000000000        -6.077992091727675E-075
   55.7650000000000        -2.432804022072520E-075
   55.9550000000000         3.671392112070909E-075
   56.1450000000000         1.273849079591831E-074
   56.3350000000000         2.512202167888772E-074
   56.5250000000000         4.089093552734583E-074
   56.7150000000000         5.966378710745581E-074
   56.9050000000000         8.041831852390076E-074
   57.0950000000000         1.012906536567789E-073
   57.2850000000000         1.193872329621785E-073
   57.4750000000000         1.306428612597994E-073
   57.6650000000000         1.297690422507103E-073
   57.8550000000000         1.103469032609995E-073
   58.0450000000000         6.512672223405790E-074
   58.2350000000000        -1.340093030910004E-074
   58.4250000000000        -1.321019029511805E-073
   58.6150000000000        -2.959175834189387E-073
   58.8050000000000        -5.061898904214847E-073
   58.9950000000000        -7.586212558980189E-073
   59.1850000000000        -1.040963209606179E-072
   59.3750000000000        -1.330611081402957E-072
   59.5650000000000        -1.592383884074328E-072
   59.7550000000000        -1.776882623077548E-072
   59.9450000000000        -1.819937936327518E-072
   60.1350000000000        -1.643764974413861E-072
   60.3250000000000        -1.160520166437715E-072
   60.5150000000000        -2.789757815859849E-073
   60.7050000000000         1.085036150435493E-072
   60.8950000000000         2.993942444785115E-072
   61.0850000000000         5.469378328490302E-072
   61.2750000000000         8.469156269520806E-072
   61.4650000000000         1.186136602482165E-071
   61.6550000000000         1.539764846295312E-071
   61.8450000000000         1.868880001806646E-071
   62.0350000000000         2.118710296243562E-071
   62.2250000000000         2.218103279112910E-071
   62.4150000000000         2.080910615336596E-071
   62.6050000000000         1.610037792486845E-071
   62.7950000000000         7.049189670437549E-072
   62.9850000000000        -7.269123881009553E-072
   63.1750000000000        -2.753711964357596E-071
   63.3650000000000        -5.398825688326289E-071
   63.5550000000000        -8.615959727791705E-071
   63.7450000000000        -1.226180162170923E-070
   63.9350000000000        -1.606842007129926E-070
   64.1250000000000        -1.961909933366330E-070
   64.3150000000000        -2.233259433398565E-070
   64.5050000000000        -2.346208694033172E-070
   64.6950000000000        -2.211617914969230E-070
   64.8850000000000        -1.730980212543684E-070
   65.0750000000000        -8.052611902550931E-071
   65.2650000000000         6.519106415659103E-071
   65.4550000000000         2.696420217153898E-070
   65.6450000000000         5.331448897801941E-070
   65.8350000000000         8.481855495649969E-070
   66.0250000000000         1.196713415037565E-069
   66.2150000000000         1.547612563790130E-069
   66.4050000000000         1.854799633330323E-069
   66.5950000000000         2.056534814653253E-069
   66.7850000000000         2.076648612578496E-069
   66.9750000000000         1.828457626867615E-069
   67.1650000000000         1.222133056164565E-069
   67.3550000000000         1.761558769759186E-070
   67.5450000000000        -1.366799815956058E-069
   67.7350000000000        -3.419708665056508E-069
   67.9250000000000        -5.927640805064643E-069
   68.1150000000000        -8.742659573311371E-069
   68.3050000000000        -1.160019828440380E-068
   68.4950000000000        -1.410127137818107E-068
   68.6850000000000        -1.570621751508333E-068
   68.8750000000000        -1.574682902707500E-068
   69.0650000000000        -1.346441707107316E-068
   69.2550000000000        -8.081245917531640E-069
   69.4450000000000         1.088561740935553E-069
   69.6350000000000         1.448552022200468E-068
   69.8250000000000         3.211055734569576E-068
   70.0150000000000         5.329927607357357E-068
   70.2050000000000         7.648360993129639E-068
   70.3950000000000         9.897159535695534E-068
   70.5850000000000         1.167891692481662E-067
   70.7750000000000         1.246411205134640E-067
   70.9650000000000         1.160595488538613E-067
   71.1550000000000         8.381464042350298E-068
   71.3450000000000         2.066079393950249E-068
   71.5350000000000        -7.952285605953135E-068
   71.7250000000000        -2.201688131046674E-067
   71.9150000000000        -4.000562368051019E-067
   72.1050000000000        -6.110395177700012E-067
   72.2950000000000        -8.356616645211193E-067
   72.4850000000000        -1.044960450852100E-066
   72.6750000000000        -1.196904974437143E-066
   72.8650000000000        -1.236029971158986E-066
   73.0550000000000        -1.094945340843861E-066
   73.2450000000000        -6.984624055437742E-067
   73.4350000000000         2.893637977056929E-068
   73.6250000000000         1.151688650271732E-066
   73.8150000000000         2.707494861221471E-066
   74.0050000000000         4.687579402567259E-066
   74.1950000000000         7.013727699455918E-066
   74.3850000000000         9.513866798359697E-066
   74.5750000000000         1.189906102029973E-065
   74.7650000000000         1.374602701589126E-065
   74.9550000000000         1.449051789981266E-065
   75.1450000000000         1.343800989228731E-065
   75.3350000000000         9.798812028406083E-066
   75.5250000000000         2.754718837300050E-066
   75.7150000000000        -8.436694963554158E-066
   75.9050000000000        -2.429642561815743E-065
   76.0950000000000        -4.493739476060803E-065
   76.2850000000000        -6.984314580588734E-065
   76.4750000000000        -9.762618216613924E-065
   76.6650000000000        -1.257900114335891E-064
   76.8550000000000        -1.505300162077231E-064
   77.0450000000000        -1.666196929915277E-064
   77.2350000000000        -1.674391768749926E-064
   77.4250000000000        -1.452103862929902E-064
   77.6150000000000        -9.150518883479737E-065
   77.8050000000000         1.913048351123227E-066
   77.9950000000000         1.418712100703822E-064
   78.1850000000000         3.321789742973520E-064
   78.3750000000000         5.716663070371287E-064
   78.5650000000000         8.519635756649111E-064
   78.7550000000000         1.155201399388937E-063
   78.9450000000000         1.451899379921772E-063
   79.1350000000000         1.699410901168669E-063
   79.3250000000000         1.841385013758028E-063
   79.5150000000000         1.808781832706431E-063
   79.7050000000000         1.523016860613607E-063
   79.8950000000000         9.017910664654251E-064
   80.0850000000000        -1.319354667858945E-064
   80.2750000000000        -1.637570353745469E-063
   80.4650000000000        -3.641183700975486E-063
   80.6550000000000        -6.116994909979977E-063
   80.8450000000000        -8.967164283803819E-063
   81.0350000000000        -1.200170543979784E-062
   81.2250000000000        -1.492111233638693E-062
   81.4150000000000        -1.730508108240421E-062
   81.6050000000000        -1.861140672972307E-062
   81.7950000000000        -1.818962509577351E-062
   81.9850000000000        -1.531409989474511E-062
   82.1750000000000        -9.240859020474872E-063
   82.3650000000000         7.086106376915354E-064
   82.5550000000000         1.503534939023210E-062
   82.7450000000000         3.392435127436400E-062
   82.9350000000000         5.708502686095282E-062
   83.1250000000000         8.358119344615730E-062
   83.3150000000000         1.116667398794294E-061
   83.5050000000000         1.386491616129626E-061
   83.6950000000000         1.608090377040840E-061
   83.8850000000000         1.734084548428273E-061
   84.0750000000000         1.708244066296491E-061
   84.2650000000000         1.468431814458459E-061
   84.4550000000000         9.514748022179315E-062
   84.6450000000000         1.001827247978124E-062
   84.8350000000000        -1.127428370347602E-061
   85.0250000000000        -2.746883949928484E-061
   85.2150000000000        -4.734454765428159E-061
   85.4050000000000        -7.013675445498216E-061
   85.5950000000000        -9.442461386875901E-061
   85.7850000000000        -1.180255291861001E-060
   85.9750000000000        -1.379343938776252E-060
   86.1650000000000        -1.503326080280607E-060
   86.3550000000000        -1.506938103883503E-060
   86.5450000000000        -1.340129422240706E-060
   86.7350000000000        -9.518179539634418E-061
   86.9250000000000        -2.952676605275156E-061
   87.1150000000000         6.648756390936947E-061
   87.3050000000000         1.944026111419679E-060
   87.4950000000000         3.527937171093036E-060
   87.6850000000000         5.362448387640453E-060
   87.8750000000000         7.343635249481410E-060
   88.0650000000000         9.309615990178503E-060
   88.2550000000000         1.103557282234803E-059
   88.4450000000000         1.223379278257443E-059
   88.6350000000000         1.256067766468661E-059
   88.8250000000000         1.163265796981871E-059
   89.0150000000000         9.052713658922240E-060
   89.2050000000000         4.448697512019689E-060
   89.3950000000000        -2.476173862347917E-060
   89.5850000000000        -1.188148309494863E-059
   89.7750000000000        -2.371879949537856E-059
   89.9650000000000        -3.765614035308829E-059
   90.1550000000000        -5.300408685134496E-059
   90.3450000000000        -6.865218348988181E-059
   90.5350000000000        -8.302641656394665E-059
   90.7250000000000        -9.408038861748686E-059
   90.9150000000000        -9.933395664790119E-059
   91.1050000000000        -9.597320756754540E-059
   91.2950000000000        -8.102430282093935E-059
   91.4850000000000        -5.161053818865510E-059
   91.6750000000000        -5.296587480413273E-060
   91.8650000000000         5.948391186997029E-059
   92.0550000000000         1.429315891307985E-058
   92.2450000000000         2.433421964739304E-058
   92.4350000000000         3.565664092059678E-058
   92.6250000000000         4.755253974065780E-058
   92.8150000000000         5.898542300743102E-058
   93.0050000000000         6.857584144109643E-058
   93.1950000000000         7.461779868549075E-058
   93.3850000000000         7.513560789480455E-058
   93.5750000000000         6.799020933857910E-058
   93.7650000000000         5.104208602062901E-058
   93.9550000000000         2.237460056528553E-058
   94.1450000000000        -1.942334900762973E-058
   94.3350000000000        -7.492306257080790E-058
   94.5250000000000        -1.434860695001707E-057
   94.7150000000000        -2.228838826195110E-057
   94.9050000000000        -3.089432050864214E-057
   95.0950000000000        -3.952626277695253E-057
   95.2850000000000        -4.730560876108381E-057
   95.4750000000000        -5.311851715134462E-057
   95.6650000000000        -5.564451750933926E-057
   95.8550000000000        -5.341669500065672E-057
   96.0450000000000        -4.491862744892838E-057
   96.2350000000000        -2.872131995612146E-057
   96.4250000000000        -3.660438064279695E-058
   96.6150000000000         3.094987391356401E-057
   96.8050000000000         7.507534986597054E-057
   96.9950000000000         1.277068181526152E-056
   97.1850000000000         1.866134609595691E-056
   97.3750000000000         2.481319142120029E-056
   97.5650000000000         3.070251004489823E-056
   97.7550000000000         3.564494670757047E-056
   97.9450000000000         3.880718334358221E-056
   98.1350000000000         3.923763084655809E-056
   98.3250000000000         3.591966862476940E-056
   98.5150000000000         2.784994024343098E-056
   98.7050000000000         1.414257896142644E-056
   98.8950000000000        -5.842039646145504E-057
   99.0850000000000        -3.234832908048437E-056
   99.2750000000000        -6.506408186724225E-056
   99.4650000000000        -1.029582545345519E-055
   99.6550000000000        -1.441335970719907E-055
   99.8450000000000        -1.857135969103086E-055
   100.035000000000        -2.237863987920668E-055
   100.225000000000        -2.534304061060193E-055
   100.415000000000        -2.688465916904444E-055
   100.605000000000        -2.636205526974425E-055
   100.795000000000        -2.311324722832999E-055
   100.985000000000        -1.651249334660605E-055
   101.175000000000        -6.042667040747288E-056
   101.365000000000         8.618520543908402E-056
   101.555000000000         2.750209119943622E-055
   101.745000000000         5.024696823656854E-055
   101.935000000000         7.600286279453936E-055
   102.125000000000         1.033472946493796E-054
   102.315000000000         1.302292217242799E-054
   102.505000000000         1.539533017963075E-054
   102.695000000000         1.712195452264263E-054
   102.885000000000         1.782327125241365E-054
   103.075000000000         1.708939417858113E-054
   103.265000000000         1.450834685545609E-054
   103.455000000000         9.703770464302733E-055
   103.645000000000         2.381626489451226E-055
   103.835000000000        -7.615518033718324E-055
   104.025000000000        -2.024918463844202E-054
   104.215000000000        -3.522449850635674E-054
   104.405000000000        -5.193370013075617E-054
   104.595000000000        -6.941011361969789E-054
   104.785000000000        -8.630013466686029E-054
   104.975000000000        -1.008615661397044E-053
   105.165000000000        -1.109968811157518E-053
   105.355000000000        -1.143295485420602E-053
   105.545000000000        -1.083302371992253E-053
   105.735000000000        -9.049736369403500E-054
   105.925000000000        -5.859295772915799E-054
   106.115000000000        -1.093013795309053E-054
   106.305000000000         5.329732864385682E-054
   106.495000000000         1.336597078975934E-053
   106.685000000000         2.281340160126754E-053
   106.875000000000         3.327762586039000E-053
   107.065000000000         4.414619635785082E-053
   107.255000000000         5.457398871638840E-053
   107.445000000000         6.348477822671421E-053
   107.635000000000         6.959400140939933E-053
   107.825000000000         7.145735318697051E-053
   108.015000000000         6.754902414113570E-053
   108.205000000000         5.637193009158616E-053
   108.395000000000         3.660016815662960E-053
   108.585000000000         7.251130474214840E-054
   108.775000000000        -3.211874463539698E-053
   108.965000000000        -8.120459785443898E-053
   109.155000000000        -1.387445116022510E-052
   109.345000000000        -2.023303936120752E-052
   109.535000000000        -2.682612881925424E-052
   109.725000000000        -3.314653841278788E-052
   109.915000000000        -3.855190502102436E-052
   110.105000000000        -4.227914022517870E-052