  -1.42500000000000         0.000000000000000E+000
  -1.23500000000000         0.000000000000000E+000
  -1.04500000000000         0.000000000000000E+000
 -0.855000000000000         0.000000000000000E+000
 -0.665000000000000         0.000000000000000E+000
 -0.475000000000000         0.000000000000000E+000
 -0.285000000000000         0.000000000000000E+000
 -9.499999999999975E-002    0.000000000000000E+000
  9.500000000000020E-002    0.000000000000000E+000
  0.285000000000000         0.000000000000000E+000
  0.475000000000000         0.000000000000000E+000
  0.665000000000000         0.000000000000000E+000
  0.855000000000000         0.000000000000000E+000
   1.04500000000000         0.000000000000000E+000
   1.23500000000000         0.000000000000000E+000
   1.42500000000000         0.000000000000000E+000
   1.61500000000000         0.000000000000000E+000
   1.80500000000000         0.000000000000000E+000
   1.99500000000000         0.000000000000000E+000
   2.18500000000000         0.000000000000000E+000
   2.37500000000000         0.000000000000000E+000
   2.56500000000000         0.000000000000000E+000
   2.75500000000000         0.000000000000000E+000
   2.94500000000000         0.000000000000000E+000
   3.13500000000000         0.000000000000000E+000
   3.32500000000000         0.000000000000000E+000
   3.51500000000000         0.000000000000000E+000
   3.70500000000000         0.000000000000000E+000
   3.89500000000000         0.000000000000000E+000
   4.08500000000000         0.000000000000000E+000
   4.27500000000000         0.000000000000000E+000
   4.46500000000000         0.000000000000000E+000
   4.65500000000000         0.000000000000000E+000
   4.84500000000000         0.000000000000000E+000
   5.03500000000000         0.000000000000000E+000
   5.22500000000000         0.000000000000000E+000
   5.41500000000000         0.000000000000000E+000
   5.60500000000000         0.000000000000000E+000
   5.79500000000000         0.000000000000000E+000
   5.98500000000000         0.000000000000000E+000
   6.17500000000000         0.000000000000000E+000
   6.36500000000000        -2.297600456726522E-167
   6.55500000000000         3.003807875430399E-161
   6.74500000000000         5.311273770197949E-157
   6.93500000000000         7.129782017045952E-157
   7.12500000000000         3.497879175096764E-153
   7.31500000000000         2.431792230755096E-151
   7.50500000000000         8.061785974432963E-150
   7.69500000000000         1.756617735099577E-148
   7.88500000000000        -9.101757626512292E-141
   8.07500000000000         1.032425525747311E-132
   8.26500000000000         3.074010338464465E-131
   8.45500000000000         2.564981568346672E-130
   8.64500000000000        -3.261248779663016E-129
   8.83500000000000        -1.109776684044940E-127
   9.02500000000000        -1.454036276077203E-126
   9.21500000000000        -1.105951106491260E-125
   9.40500000000000        -3.719153825754656E-125
   9.59500000000000         2.782789605625618E-124
   9.78500000000000         5.956201236503665E-123
   9.97500000000000         6.068004392867690E-122
   10.1650000000000         4.617970706863518E-121
   10.3550000000000         2.917409792322934E-120
   10.5450000000000         1.602753075026670E-119
   10.7350000000000         7.861587795677761E-119
   10.9250000000000         3.501442205246304E-118
   11.1150000000000         1.431892095424155E-117
   11.3050000000000         5.413569632166790E-117
   11.4950000000000         1.897791044411558E-116
   11.6850000000000         6.159341674903021E-116
   11.8750000000000         1.835917611356251E-115
   12.0650000000000         4.926161968250782E-115
   12.2550000000000         1.132417071401416E-114
   12.4450000000000         1.899234202916214E-114
   12.6350000000000         1.914728682322668E-115
   12.8250000000000        -1.732459877761109E-113
   13.0150000000000        -1.039518178567661E-112
   13.2050000000000        -4.452456288362950E-112
   13.3950000000000        -1.625618535988026E-111
   13.5850000000000        -5.337758810779680E-111
   13.7750000000000        -1.612039173750924E-110
   13.9650000000000        -4.524795115096482E-110
   14.1550000000000        -1.185429408227121E-109
   14.3450000000000        -2.898672411888143E-109
   14.5350000000000        -6.587648771379140E-109
   14.7250000000000        -1.377307326615123E-108
   14.9150000000000        -2.592250808122642E-108
   15.1050000000000        -4.174132870859847E-108
   15.2950000000000        -4.883982744577902E-108
   15.4850000000000        -2.480681565075187E-109
   15.6750000000000         2.222755379897020E-107
   15.8650000000000         9.280268888084504E-107
   16.0550000000000         2.776135510227814E-106
   16.2450000000000         7.093535690552741E-106
   16.4350000000000         1.634047581702756E-105
   16.6250000000000         3.472773731310905E-105
   16.8150000000000         6.883431580726057E-105
   17.0050000000000         1.277429570588148E-104
   17.1950000000000         2.214604521718500E-104
   17.3850000000000         3.547625262355422E-104
   17.5750000000000         5.101844768657191E-104
   17.7650000000000         6.069768678361400E-104
   17.9550000000000         4.096224798847564E-104
   18.1450000000000        -6.642537175869726E-104
   18.3350000000000        -3.926414449479351E-103
   18.5250000000000        -1.214171607332123E-102
   18.7150000000000        -3.082883431581276E-102
   18.9050000000000        -7.048053777722028E-102
   19.0950000000000        -1.501633442928849E-101
   19.2850000000000        -3.030650398174118E-101
   19.4750000000000        -5.846352008841603E-101
   19.6650000000000        -1.083987004206289E-100
   19.8550000000000        -1.939173176167355E-100
   20.0450000000000        -3.356742527157970E-100
   20.2350000000000        -5.635382852621693E-100
   20.4250000000000        -9.191802482084834E-100
   20.6150000000000        -1.458284686685627E-099
   20.8050000000000        -2.250850494587070E-099
   20.9950000000000        -3.376167989571288E-099
   21.1850000000000        -4.905660725783000E-099
   21.3750000000000        -6.861202824485829E-099
   21.5650000000000        -9.128178827016922E-099
   21.7550000000000        -1.129111443373933E-098
   21.9450000000000        -1.234522751808123E-098
   22.1350000000000        -1.022004356492351E-098
   22.3250000000000        -1.031271030237006E-099
   22.5150000000000         2.204713354572973E-098
   22.7050000000000         7.043231846821024E-098
   22.8950000000000         1.624980482420520E-097
   23.0850000000000         3.269406086752660E-097
   23.2750000000000         6.075766517870836E-097
   23.4650000000000         1.070228312350842E-096
   23.6550000000000         1.812650188708921E-096
   23.8450000000000         2.978776951293502E-096
   24.0350000000000         4.778774404376760E-096
   24.2250000000000         7.516163927701028E-096
   24.4150000000000         1.162215189491723E-095
   24.6050000000000         1.769446925005239E-095
   24.7950000000000         2.653249676298710E-095
   24.9850000000000         3.915102179235575E-095
   25.1750000000000         5.674040813972483E-095
   25.3650000000000         8.052016212270870E-095
   25.5550000000000         1.114049618986041E-094
   25.7450000000000         1.493662984375563E-094
   25.9350000000000         1.923272825039502E-094
   26.1250000000000         2.343688485243716E-094
   26.3150000000000         2.629436845603248E-094
   26.5050000000000         2.546733856217928E-094
   26.6950000000000         1.691192066719309E-094
   26.8850000000000        -6.036430000587292E-095
   27.0750000000000        -5.399867978597339E-094
   27.2650000000000        -1.434903618626677E-093
   27.4550000000000        -2.996976864625290E-093
   27.6450000000000        -5.603581240312886E-093
   27.8350000000000        -9.809657599153043E-093
   28.0250000000000        -1.641303114484935E-092
   28.2150000000000        -2.652761157992997E-092
   28.4050000000000        -4.164840544027871E-092
   28.5950000000000        -6.367377029780058E-092
   28.7850000000000        -9.482150400430628E-092
   28.9750000000000        -1.373346280475175E-091
   29.1650000000000        -1.928211297791682E-091
   29.3550000000000        -2.610155548415310E-091
   29.5450000000000        -3.377035445773554E-091
   29.7350000000000        -4.115395510282849E-091
   29.9250000000000        -4.595549003099435E-091
   30.1150000000000        -4.413574838530982E-091
   30.3050000000000        -2.924410146336722E-091
   30.4950000000000         8.226527832834662E-092
   30.6850000000000         8.123913339868116E-091
   30.8750000000000         2.059957494278529E-090
   31.0650000000000         4.005479029178759E-090
   31.2550000000000         6.814750015407508E-090
   31.4450000000000         1.057690735519461E-089
   31.6350000000000         1.520348298198205E-089
   31.8250000000000         2.027920444301072E-089
   32.0150000000000         2.485969636276702E-089
   32.2050000000000         2.722066688332016E-089
   32.3950000000000         2.457945713843667E-089
   32.5850000000000         1.283458759405315E-089
   32.7750000000000        -1.359702853929887E-089
   32.9650000000000        -6.172296864353382E-089
   33.1550000000000        -1.395282766497331E-088
   33.3450000000000        -2.549226127869999E-088
   33.5350000000000        -4.138335180658117E-088
   33.7250000000000        -6.171970198470887E-088
   33.9150000000000        -8.566511059898907E-088
   34.1050000000000        -1.108875498011657E-087
   34.2950000000000        -1.328773561504650E-087
   34.4850000000000        -1.442087305468279E-087
   34.6750000000000        -1.338591870662190E-087
   34.8650000000000        -8.677277863221513E-088
   35.0550000000000         1.606416619788825E-088
   35.2450000000000         1.966804601837330E-087
   35.4350000000000         4.778836655030635E-087
   35.6250000000000         8.792667808776296E-087
   35.8150000000000         1.411026932227555E-086
   36.0050000000000         2.065304064191504E-086
   36.1950000000000         2.805036546444267E-086
   36.3850000000000         3.550810135095314E-086
   36.5750000000000         4.166876228637456E-086
   36.7650000000000         4.448439869149021E-086
   36.9550000000000         4.113432108357345E-086
   37.1450000000000         2.803191525125393E-086
   37.3350000000000         9.761660482729406E-088
   37.5250000000000        -4.448843250711010E-086
   37.7150000000000        -1.124386422560097E-085
   37.9050000000000        -2.056107977057088E-085
   38.0950000000000        -3.240811465298634E-085
   38.2850000000000        -4.636045449583076E-085
   38.4750000000000        -6.136972526370775E-085
   38.6650000000000        -7.556433426999286E-085
   38.8550000000000        -8.607191564552006E-085
   39.0450000000000        -8.890574530868922E-085
   39.2350000000000        -7.896965910745514E-085
   39.4250000000000        -5.024566041375909E-085
   39.6150000000000         3.767768354458754E-086
   39.8050000000000         8.930428992778867E-085
   39.9950000000000         2.112218459823738E-084
   40.1850000000000         3.715303713467954E-084
   40.3750000000000         5.676010868935654E-084
   40.5650000000000         7.901750904230838E-084
   40.7550000000000         1.021374180542023E-083
   40.9450000000000         1.233006581073542E-083
   41.1350000000000         1.385540241926161E-083
   41.3250000000000         1.428167384787311E-083
   41.5150000000000         1.300383002530906E-083
   41.7050000000000         9.354234972237071E-084
   41.8950000000000         2.657400333734989E-084
   42.0850000000000        -7.695943691807095E-084
   42.2750000000000        -2.216014696774787E-083
   42.4650000000000        -4.094028436889948E-083
   42.6550000000000        -6.390525150985436E-083
   42.8450000000000        -9.052429782579931E-083
   43.0350000000000        -1.198431455825497E-082
   43.2250000000000        -1.505115476804709E-082
   43.4150000000000        -1.808636132411854E-082
   43.6050000000000        -2.090340504257879E-082
   43.7950000000000        -2.330670864586456E-082
   43.9850000000000        -2.509412132993292E-082
   44.1750000000000        -2.603953610382053E-082
   44.3650000000000        -2.584069583617061E-082
   44.5550000000000        -2.401495943527120E-082
   44.7450000000000        -1.972615634327500E-082
   44.9350000000000        -1.153039853801145E-082
   45.1250000000000         2.960154363694320E-083
   45.3150000000000         2.747704151867877E-082
   45.5050000000000         6.751056510786750E-082
   45.6950000000000         1.306513090132156E-081
   45.8850000000000         2.267181113845771E-081
   46.0750000000000         3.674736024627958E-081
   46.2650000000000         5.656674640740323E-081
   46.4550000000000         8.330939721571487E-081
   46.6450000000000         1.177317960442080E-080
   46.8350000000000         1.596730655087312E-080
   47.0250000000000         2.073667105813938E-080
   47.2150000000000         2.565477334180268E-080
   47.4050000000000         2.993723292742432E-080
   47.5950000000000         3.232102284934546E-080
   47.7850000000000         3.094299026956302E-080
   47.9750000000000         2.323756981356553E-080
   48.1650000000000         5.883306617676909E-081
   48.3550000000000        -2.516098194223598E-080
   48.5450000000000        -7.447759307468600E-080
   48.7350000000000        -1.468045839990126E-079
   48.9250000000000        -2.463704042031021E-079
   49.1150000000000        -3.758716218976535E-079
   49.3050000000000        -5.350224842943727E-079
   49.4950000000000        -7.186249517232365E-079
   49.6850000000000        -9.141481385979940E-079
   49.8750000000000        -1.098873811019452E-078
   50.0650000000000        -1.236767171359112E-078
   50.2550000000000        -1.275376530643330E-078
   50.4450000000000        -1.143256549938119E-078
   50.6350000000000        -7.486482321055455E-079
   50.8250000000000         1.957175797828794E-080
   51.0150000000000         1.287357198474696E-078
   51.2050000000000         3.185765978583203E-078
   51.3950000000000         5.834204909588822E-078
   51.5850000000000         9.314724170248957E-078
   51.7750000000000         1.363560648373174E-077
   51.9650000000000         1.868305206016100E-077
   52.1550000000000         2.416086844349174E-077
   52.3450000000000         2.951991129129913E-077
   52.5350000000000         3.388175690869105E-077
   52.7250000000000         3.596484796854471E-077
   52.9150000000000         3.402617891055254E-077
   53.1050000000000         2.583736326842907E-077
   53.2950000000000         8.720308978689324E-078
   53.4850000000000        -2.032593699200397E-077
   53.6750000000000        -6.437038129183003E-077
   53.8650000000000        -1.261279132873970E-076
   54.0550000000000        -2.073324075561905E-076
   54.2450000000000        -3.078769081040377E-076
   54.4350000000000        -4.247118381341468E-076
   54.6250000000000        -5.505241954462476E-076
   54.8150000000000        -6.722681756344401E-076
   55.0050000000000        -7.696822619759864E-076
   55.1950000000000        -8.140094450940021E-076
   55.3850000000000        -7.672330878794566E-076
   55.5750000000000        -5.822444246236472E-076
   55.7650000000000        -2.044572538229386E-076
   55.9550000000000         4.245363453773359E-076
   56.1450000000000         1.360642315059448E-075
   56.3350000000000         2.647688177095323E-075
   56.5250000000000         4.304162000353358E-075
   56.7150000000000         6.306136641241333E-075
   56.9050000000000         8.566736141904184E-075
   57.0950000000000         1.091320215816619E-074
   57.2850000000000         1.306354567630817E-074
   57.4750000000000         1.460590892953746E-074
   57.6650000000000         1.498506188256364E-074
   57.8550000000000         1.350181395085991E-074
   58.0450000000000         9.332370242998744E-075
   58.2350000000000         1.575568743283728E-075
   58.4250000000000        -1.066380433531973E-074
   58.6150000000000        -2.814817758719144E-074
   58.8050000000000        -5.133157230665336E-074
   58.9950000000000        -8.013395627664576E-074
   59.1850000000000        -1.136705745301755E-073
   59.3750000000000        -1.499499621748856E-073
   59.5650000000000        -1.855655452260271E-073
   59.7550000000000        -2.154191421703836E-073
   59.9450000000000        -2.325295619675305E-073
   60.1350000000000        -2.279945754326755E-073
   60.3250000000000        -1.911879036970847E-073
   60.5150000000000        -1.102819304981669E-073
   60.7050000000000         2.681163236708880E-074
   60.8950000000000         2.310006722499959E-073
   61.0850000000000         5.100138401338560E-073
   61.2750000000000         8.658309156927690E-073
   61.4650000000000         1.291596085122481E-072
   61.6550000000000         1.768158836972385E-072
   61.8450000000000         2.260501996712546E-072
   62.0350000000000         2.714451485753392E-072
   62.2250000000000         3.054210071271161E-072
   62.4150000000000         3.181405186250688E-072
   62.6050000000000         2.976470988453087E-072
   62.7950000000000         2.303273871028364E-072
   62.9850000000000         1.017910363527317E-072
   63.1750000000000        -1.017475167125565E-072
   63.3650000000000        -3.915221800635269E-072
   63.5550000000000        -7.736783691030197E-072
   63.7450000000000        -1.246178823785208E-071
   63.9350000000000        -1.795262920951271E-071
   64.1250000000000        -2.391669158135016E-071
   64.3150000000000        -2.986947608245337E-071
   64.5050000000000        -3.510319483807429E-071
   64.6950000000000        -3.866676237264083E-071
   64.8850000000000        -3.936439094419400E-071
   65.0750000000000        -3.578106207077225E-071
   65.2650000000000        -2.634379895619308E-071
   65.4550000000000        -9.427688502184919E-072
   65.6450000000000         1.648524621848700E-071
   65.8350000000000         5.258820004532158E-071
   66.0250000000000         9.947001438320767E-071
   66.2150000000000         1.567761479401688E-070
   66.4050000000000         2.228193583438342E-070
   66.5950000000000         2.941582394873644E-070
   66.7850000000000         3.651729381238748E-070
   66.9750000000000         4.276807803328994E-070
   67.1650000000000         4.706500415145588E-070
   67.3550000000000         4.800873163075752E-070
   67.5450000000000         4.391921423434456E-070
   67.7350000000000         3.288904163582806E-070
   67.9250000000000         1.288736546660426E-070
   68.1150000000000        -1.807188129086195E-070
   68.3050000000000        -6.168375220508169E-070
   68.4950000000000        -1.190159153846300E-069
   68.6850000000000        -1.900740013446898E-069
   68.8750000000000        -2.732678858869967E-069
   69.0650000000000        -3.647899636057238E-069
   69.2550000000000        -4.579339599666611E-069
   69.4450000000000        -5.424070207403546E-069
   69.6350000000000        -6.037193659396280E-069
   69.8250000000000        -6.227745918697574E-069
   70.0150000000000        -5.758283725456158E-069
   70.2050000000000        -4.350306036749445E-069
   70.3950000000000        -1.698101688207186E-069
   70.5850000000000         2.506064662009028E-069
   70.7750000000000         8.532443285677630E-069
   70.9650000000000         1.655732061174260E-068
   71.1550000000000         2.658787390863890E-068
   71.3450000000000         3.836844235999089E-068
   71.5350000000000         5.127112644420111E-068
   71.7250000000000         6.417768386228519E-068
   71.9150000000000         7.536505873284345E-068
   72.1050000000000         8.241348292798242E-068
   72.2950000000000         8.216359933656853E-068
   72.4850000000000         7.075681452719431E-068
   72.6750000000000         4.380000665789790E-068
   72.8650000000000        -3.299783604391933E-069
   73.0550000000000        -7.478505859789562E-068
   73.2450000000000        -1.737434236365607E-067
   73.4350000000000        -3.010274932683122E-067
   73.6250000000000        -4.539075477738809E-067
   73.8150000000000        -6.245106518163895E-067
   74.0050000000000        -7.981621388261218E-067
   74.1950000000000        -9.518240980001908E-067
   74.3850000000000        -1.052917660012201E-066
   74.5750000000000        -1.058914559859634E-066
   74.7650000000000        -9.181770108038046E-067
   74.9550000000000        -5.725962281719363E-067
   75.1450000000000         3.739385897123876E-068
   75.3350000000000         9.648981636314123E-067
   75.5250000000000         2.245359654709213E-066
   75.7150000000000         3.881987956210977E-066
   75.9050000000000         5.828184379639664E-066
   76.0950000000000         7.967970088041537E-066
   76.2850000000000         1.009624812882520E-065
   76.4750000000000         1.190171088634081E-065
   76.6650000000000         1.295627685647573E-065
   76.8550000000000         1.271599235955839E-065
   77.0450000000000         1.053919882450777E-065
   77.2350000000000         5.728222275128710E-066
   77.4250000000000        -2.399385149805983E-066
   77.6150000000000        -1.440524185557889E-065
   77.8050000000000        -3.058789479824286E-065
   77.9950000000000        -5.080579454294394E-065
   78.1850000000000        -7.427327095107848E-065
   78.3750000000000        -9.934504844234314E-065
   78.5650000000000        -1.233142072396376E-064
   78.7550000000000        -1.422589251685597E-064
   78.9450000000000        -1.509838538036857E-064
   79.1350000000000        -1.431111437361556E-064
   79.3250000000000        -1.113819855524860E-064
   79.5150000000000        -4.822966210769092E-065
   79.7050000000000         5.332324003602448E-065
   79.8950000000000         1.984105033160841E-064
   80.0850000000000         3.887115452884657E-064
   80.2750000000000         6.205345481439258E-064
   80.4650000000000         8.827097907791858E-064
   80.6550000000000         1.154490722146107E-063
   80.8450000000000         1.403752552794350E-063
   81.0350000000000         1.585873937343132E-063
   81.2250000000000         1.643775287877110E-063
   81.4150000000000         1.509651890245914E-063
   81.6050000000000         1.108961911807764E-063
   81.7950000000000         3.671862158232379E-064
   81.9850000000000        -7.802550653483334E-064
   82.1750000000000        -2.374787445318477E-063
   82.3650000000000        -4.418398824187274E-063
   82.5550000000000        -6.855027794057147E-063
   82.7450000000000        -9.551004006387010E-063
   82.9350000000000        -1.227666740168573E-062
   83.1250000000000        -1.469209406976638E-062
   83.3150000000000        -1.634063199821787E-062
   83.5050000000000        -1.665458840377455E-062
   83.6950000000000        -1.497776968638783E-062
   83.8850000000000        -1.060948808180087E-062
   84.0750000000000        -2.873934144974368E-063
   84.2650000000000         8.782707808532625E-063
   84.4550000000000         2.466750594286188E-062
   84.6450000000000         4.469203099733295E-062
   84.8350000000000         6.820784934360958E-062
   85.0250000000000         9.384002693223633E-062
   85.2150000000000         1.193385758222512E-061
   85.4050000000000         1.414740744418186E-061
   85.5950000000000         1.560094050396041E-061
   85.7850000000000         1.577837281482558E-061
   85.9750000000000         1.409463037450186E-061
   86.1650000000000         9.937527834677942E-062
   86.3550000000000         2.730874858415170E-062
   86.5450000000000        -7.979895332034535E-062
   86.7350000000000        -2.242046778292489E-061
   86.9250000000000        -4.046263147393064E-061
   87.1150000000000        -6.148912263955431E-061
   87.3050000000000        -8.426030086497121E-061
   87.4950000000000        -1.067993477669356E-060
   87.6850000000000        -1.263173302095800E-060
   87.8750000000000        -1.392034856717036E-060
   88.0650000000000        -1.411087397754111E-060
   88.2550000000000        -1.271509001810179E-060
   88.4450000000000        -9.226725307746325E-061
   88.6350000000000        -3.173348235645360E-061
   88.8250000000000         5.814389395341322E-061
   89.0150000000000         1.791716109479538E-060
   89.2050000000000         3.302832440579031E-060
   89.3950000000000         5.064835202040441E-060
   89.5850000000000         6.978169944603902E-060
   89.7750000000000         8.884892621129040E-060
   89.9650000000000         1.056302419803508E-059
   90.1550000000000         1.172594867728970E-059
   90.3450000000000         1.202893543465971E-059
   90.5350000000000         1.108488236769059E-059
   90.7250000000000         8.491161991617547E-060
   90.9150000000000         3.868943227961137E-060
   91.1050000000000        -3.084500064372614E-060
   91.2950000000000        -1.253123688236975E-059
   91.4850000000000        -2.441828483155443E-059
   91.6750000000000        -3.839781042621249E-059
   91.8650000000000        -5.374869154843351E-059
   92.0550000000000        -6.930869317154214E-059
   92.2450000000000        -8.342892824255884E-059
   92.4350000000000        -9.396434332488131E-059
   92.6250000000000        -9.831532085178496E-059
   92.8150000000000        -9.353570451664340E-059
   93.0050000000000        -7.652117295834483E-059
   93.1950000000000        -4.428845085910918E-059
   93.3850000000000         5.650053047394970E-060
   93.5750000000000         7.482025059079764E-059
   93.7650000000000         1.632446171465104E-058
   93.9550000000000         2.688544989376441E-058
   94.1450000000000         3.869027259253673E-058
   94.3350000000000         5.094404193328509E-058
   94.5250000000000         6.249393163089347E-058
   94.7150000000000         7.181561831222999E-058
   94.9050000000000         7.703464753720578E-058
   95.0950000000000         7.599374227915175E-058
   95.2850000000000         6.637629860912508E-058
   95.4750000000000         4.589414395602598E-058
   95.6650000000000         1.254377645512181E-058
   95.8550000000000        -3.507045833140510E-058
   96.0450000000000        -9.735555824899624E-058
   96.2350000000000        -1.733104008397225E-057
   96.4250000000000        -2.600978617014187E-057
   96.6150000000000        -3.526509776365254E-057
   96.8050000000000        -4.433678584985717E-057
   96.9950000000000        -5.219610009746893E-057
   97.1850000000000        -5.755346636568945E-057
   97.3750000000000        -5.889670812977263E-057
   97.5650000000000        -5.456703918972744E-057
   97.7550000000000        -4.287880574088779E-057
   97.9450000000000        -2.228653030817947E-057
   98.1350000000000         8.400881874253072E-058
   98.3250000000000         4.976394105244871E-057
   98.5150000000000         1.014858579322517E-056
   98.7050000000000         1.620541977984493E-056
   98.8950000000000         2.284778799277923E-056
   99.0850000000000         2.960546803524014E-056
   99.2750000000000         3.582318341690330E-056
   99.4650000000000         4.066079779023500E-056
   99.6550000000000         4.311272889339795E-056
   99.8450000000000         4.205149157941653E-056
   100.035000000000         3.629952820326353E-056
   100.225000000000         2.473203419583287E-056
   100.415000000000         6.411242009235841E-057
   100.605000000000        -1.925045711854114E-056
   100.795000000000        -5.230506986540239E-056
   100.985000000000        -9.207233896231092E-056
   101.175000000000        -1.369480087703023E-055
   101.365000000000        -1.842383011881059E-055
   101.555000000000        -2.300466192655755E-055
   101.745000000000        -2.692422040929130E-055
   101.935000000000        -2.955424223348907E-055
   102.125000000000        -3.017397604065893E-055
   102.315000000000        -2.801006428357003E-055
   102.505000000000        -2.229551457085572E-055
   102.695000000000        -1.234839816260237E-055
   102.885000000000         2.330848439763099E-056
   103.075000000000         2.194688366241738E-055
   103.265000000000         4.628770181589162E-055
   103.455000000000         7.460261267291720E-055
   103.645000000000         1.054919416689667E-054
   103.835000000000         1.368232696867532E-054
   104.025000000000         1.656913388970989E-054
   104.215000000000         1.884401290058000E-054
   104.405000000000         2.007656195152753E-054
   104.595000000000         1.979159558599129E-054
   104.785000000000         1.750017244123497E-054
   104.975000000000         1.274224946323578E-054
   105.165000000000         5.140653293898136E-055
   105.355000000000        -5.535133315253317E-055
   105.545000000000        -1.929830171617793E-054
   105.735000000000        -3.587169969818362E-054
   105.925000000000        -5.461868089106269E-054
   106.115000000000        -7.448565474095492E-054
   106.305000000000        -9.396555535651826E-054
   106.495000000000        -1.110923946594042E-053
   106.685000000000        -1.234773496333267E-053
   106.875000000000        -1.283962234267738E-053
   107.065000000000        -1.229363971778393E-053
   107.255000000000        -1.042083726911493E-053
   107.445000000000        -6.962257989626761E-054
   107.635000000000        -1.722626727991968E-054
   107.825000000000         5.391188610946382E-054
   108.015000000000         1.432900429228067E-053
   108.205000000000         2.485638451039450E-053
   108.395000000000         3.651777826239795E-053
   108.585000000000         4.860837460235016E-053
   108.775000000000         6.015995290156684E-053
   108.965000000000         6.994634826933046E-053
   109.155000000000         7.651409062067779E-053
   109.345000000000         7.824319325030927E-053
   109.535000000000         7.344185979635073E-053
   109.725000000000         6.047696893363661E-053
   109.915000000000         3.793954524162579E-053
   110.105000000000         4.841048043193969E-054