  -1.42500000000000         0.000000000000000E+000
  -1.23500000000000         0.000000000000000E+000
  -1.04500000000000         0.000000000000000E+000
 -0.855000000000000         0.000000000000000E+000
 -0.665000000000000         0.000000000000000E+000
 -0.475000000000000         0.000000000000000E+000
 -0.285000000000000         0.000000000000000E+000
 -9.499999999999975E-002    0.000000000000000E+000
  9.500000000000020E-002    0.000000000000000E+000
  0.285000000000000         0.000000000000000E+000
  0.475000000000000         0.000000000000000E+000
  0.665000000000000         0.000000000000000E+000
  0.855000000000000         0.000000000000000E+000
   1.04500000000000         0.000000000000000E+000
   1.23500000000000         0.000000000000000E+000
   1.42500000000000         0.000000000000000E+000
   1.61500000000000         0.000000000000000E+000
   1.80500000000000         0.000000000000000E+000
   1.99500000000000         0.000000000000000E+000
   2.18500000000000         0.000000000000000E+000
   2.37500000000000         0.000000000000000E+000
   2.56500000000000         0.000000000000000E+000
   2.75500000000000         0.000000000000000E+000
   2.94500000000000         0.000000000000000E+000
   3.13500000000000         0.000000000000000E+000
   3.32500000000000         0.000000000000000E+000
   3.51500000000000         0.000000000000000E+000
   3.70500000000000         0.000000000000000E+000
   3.89500000000000         0.000000000000000E+000
   4.08500000000000         0.000000000000000E+000
   4.27500000000000         0.000000000000000E+000
   4.46500000000000         0.000000000000000E+000
   4.65500000000000         0.000000000000000E+000
   4.84500000000000         0.000000000000000E+000
   5.03500000000000         0.000000000000000E+000
   5.22500000000000         0.000000000000000E+000
   5.41500000000000         0.000000000000000E+000
   5.60500000000000         0.000000000000000E+000
   5.79500000000000         0.000000000000000E+000
   5.98500000000000         0.000000000000000E+000
   6.17500000000000         0.000000000000000E+000
   6.36500000000000         2.428526060937179E-167
   6.55500000000000        -2.910864309014870E-161
   6.74500000000000        -6.028772532381731E-157
   6.93500000000000        -1.657700355110877E-156
   7.12500000000000        -4.074889238792941E-153
   7.31500000000000        -2.808882009391218E-151
   7.50500000000000        -9.276624519671198E-150
   7.69500000000000        -2.013175884891292E-148
   7.88500000000000         9.047530880151391E-139
   8.07500000000000        -2.183962128276720E-132
   8.26500000000000        -5.738460325176652E-131
   8.45500000000000        -2.137469291987272E-130
   8.64500000000000         1.351380581586342E-128
   8.83500000000000         3.159055058223276E-127
   9.02500000000000         3.723434787501973E-126
   9.21500000000000         2.638284673719477E-125
   9.40500000000000         7.696041367288592E-125
   9.59500000000000        -7.740899011995389E-124
   9.78500000000000        -1.479693237660966E-122
   9.97500000000000        -1.468050291168208E-121
   10.1650000000000        -1.108257372066447E-120
   10.3550000000000        -7.019431569076198E-120
   10.5450000000000        -3.899350289052910E-119
   10.7350000000000        -1.949052402214405E-118
   10.9250000000000        -8.912867050885231E-118
   11.1150000000000        -3.771821945413132E-117
   11.3050000000000        -1.489136476978250E-116
   11.4950000000000        -5.516079445306748E-116
   11.6850000000000        -1.924406317734490E-115
   11.8750000000000        -6.337398033500237E-115
   12.0650000000000        -1.971519463624411E-114
   12.2550000000000        -5.788572406460365E-114
   12.4450000000000        -1.599118768838985E-113
   12.6350000000000        -4.129953353306652E-113
   12.8250000000000        -9.849657676123655E-113
   13.0150000000000        -2.116216800034537E-112
   13.2050000000000        -3.864520930827954E-112
   13.3950000000000        -4.923310528204006E-112
   13.5850000000000         1.409374363012333E-112
   13.7750000000000         3.897683074649169E-111
   13.9650000000000         1.794039078968859E-110
   14.1550000000000         6.150785474614606E-110
   14.3450000000000         1.819311199585729E-109
   14.5350000000000         4.871218033604753E-109
   14.7250000000000         1.206419167798918E-108
   14.9150000000000         2.795095504723486E-108
   15.1050000000000         6.095977702895961E-108
   15.2950000000000         1.255337158933541E-107
   15.4850000000000         2.441269074975220E-107
   15.6750000000000         4.466682148744739E-107
   15.8650000000000         7.606104275584267E-107
   16.0550000000000         1.173448869552011E-106
   16.2450000000000         1.522713500038952E-106
   16.4350000000000         1.207494885525782E-106
   16.6250000000000        -1.514423114107274E-106
   16.8150000000000        -1.113984739999090E-105
   17.0050000000000        -3.842908127290736E-105
   17.1950000000000        -1.076666609466733E-104
   17.3850000000000        -2.710181494874338E-104
   17.5750000000000        -6.358151207375137E-104
   17.7650000000000        -1.414763660001707E-103
   17.9550000000000        -3.016151128054708E-103
   18.1450000000000        -6.203328312238657E-103
   18.3350000000000        -1.237360571021438E-102
   18.5250000000000        -2.404093865517975E-102
   18.7150000000000        -4.565872984849131E-102
   18.9050000000000        -8.498862784090305E-102
   19.0950000000000        -1.552962860678978E-101
   19.2850000000000        -2.787011930867653E-101
   19.4750000000000        -4.909566030000071E-101
   19.6650000000000        -8.476751120085260E-101
   19.8550000000000        -1.431377220545486E-100
   20.0450000000000        -2.357464481648401E-100
   20.2350000000000        -3.774842412717772E-100
   20.4250000000000        -5.852490103224409E-100
   20.6150000000000        -8.734766845065197E-100
   20.8050000000000        -1.243154730522638E-099
   20.9950000000000        -1.657670766407270E-099
   21.1850000000000        -1.992697016978381E-099
   21.3750000000000        -1.936223735392659E-099
   21.5650000000000        -7.958711277004313E-100
   21.7550000000000         2.860344019378486E-099
   21.9450000000000         1.185203977656574E-098
   22.1350000000000         3.151906517221436E-098
   22.3250000000000         7.164408349049622E-098
   22.5150000000000         1.496331800666232E-097
   22.7050000000000         2.956640326581495E-097
   22.8950000000000         5.608706412902602E-097
   23.0850000000000         1.030167033289381E-096
   23.2750000000000         1.842094624783401E-096
   23.4650000000000         3.219200579523195E-096
   23.6550000000000         5.514015861645917E-096
   23.8450000000000         9.277783814162767E-096
   24.0350000000000         1.536171492316421E-095
   24.2250000000000         2.506359799783225E-095
   24.4150000000000         4.033572099814832E-095
   24.6050000000000         6.407248510338881E-095
   24.7950000000000         1.004965018797748E-094
   24.9850000000000         1.556582947151236E-094
   25.1750000000000         2.380541378067973E-094
   25.3650000000000         3.593454573095252E-094
   25.5550000000000         5.351273412055306E-094
   25.7450000000000         7.856381836339340E-094
   25.9350000000000         1.136221442587347E-093
   26.1250000000000         1.617235798595735E-093
   26.3150000000000         2.262948853048495E-093
   26.5050000000000         3.108720648296158E-093
   26.6950000000000         4.185452810036917E-093
   26.8850000000000         5.509798066094463E-093
   27.0750000000000         7.067933775943011E-093
   27.2650000000000         8.789751747983278E-093
   27.4550000000000         1.050911288346428E-092
   27.6450000000000         1.190452014030693E-092
   27.8350000000000         1.241365235840236E-092
   28.0250000000000         1.111570515391599E-092
   28.2150000000000         6.579304252722856E-093
   28.4050000000000        -3.315992050381568E-093
   28.5950000000000        -2.155530147630623E-092
   28.7850000000000        -5.209344941469995E-092
   28.9750000000000        -9.975929069438255E-092
   29.1650000000000        -1.697364580163148E-091
   29.3550000000000        -2.662722670714303E-091
   29.5450000000000        -3.901150141916967E-091
   29.7350000000000        -5.340254198491376E-091
   29.9250000000000        -6.756000050746432E-091
   30.1150000000000        -7.666701249224794E-091
   30.3050000000000        -7.188365737809447E-091
   30.4950000000000        -3.854584613091620E-091
   30.6850000000000         4.581180062856789E-091
   30.8750000000000         2.131851888335618E-090
   31.0650000000000         5.057879726408584E-090
   31.2550000000000         9.743914796799537E-090
   31.4450000000000         1.672367767095126E-089
   31.6350000000000         2.642759412675776E-089
   31.8250000000000         3.895008007914239E-089
   32.0150000000000         5.367529636856609E-089
   32.2050000000000         6.872465617278563E-089
   32.3950000000000         8.020140465116933E-089
   32.5850000000000         8.123655502956332E-089
   32.7750000000000         6.089388220818743E-089
   32.9650000000000         3.077564099019198E-090
   33.1550000000000        -1.142884858741936E-088
   33.3450000000000        -3.193716892035051E-088
   33.5350000000000        -6.451848903484443E-088
   33.7250000000000        -1.126099960014284E-087
   33.9150000000000        -1.791005444167424E-087
   34.1050000000000        -2.651818895083461E-087
   34.2950000000000        -3.686032010680818E-087
   34.4850000000000        -4.812193129158615E-087
   34.6750000000000        -5.857870179798725E-087
   34.8650000000000        -6.520871934522537E-087
   35.0550000000000        -6.326536668602853E-087
   35.2450000000000        -4.586913216563744E-087
   35.4350000000000        -3.717889976283851E-088
   35.6250000000000         7.493235778512320E-087
   35.8150000000000         2.038028804786422E-086
   36.0050000000000         3.973655529602895E-086
   36.1950000000000         6.685179318638945E-086
   36.3850000000000         1.024788957748411E-085
   36.5750000000000         1.462715649390907E-085
   36.7650000000000         1.960119994095732E-085
   36.9550000000000         2.466219368552849E-085
   37.1450000000000         2.889865819525702E-085
   37.3350000000000         3.086771773187820E-085
   37.5250000000000         2.847376393789951E-085
   37.7150000000000         1.888051996451815E-085
   37.9050000000000        -1.503782353419807E-086
   38.0950000000000        -3.691419107427729E-085
   38.2850000000000        -9.192172694666778E-085
   38.4750000000000        -1.708514153311515E-084
   38.6650000000000        -2.768409949836477E-084
   38.8550000000000        -4.104620198117417E-084
   39.0450000000000        -5.678492219539689E-084
   39.2350000000000        -7.383331274359222E-084
   39.4250000000000        -9.016524119698926E-084
   39.6150000000000        -1.024942809687686E-083
   39.8050000000000        -1.059862359587673E-083
   39.9950000000000        -9.404173192594533E-084
   40.1850000000000        -5.822904680629627E-084
   40.3750000000000         1.152756924413038E-084
   40.5650000000000         1.263757384319160E-083
   40.7550000000000         2.974344537052839E-083
   40.9450000000000         5.340181622729956E-083
   41.1350000000000         8.410576976066415E-083
   41.3250000000000         1.215640956305266E-082
   41.5150000000000         1.642687748519845E-082
   41.7050000000000         2.089913961555720E-082
   41.8950000000000         2.502434904847736E-082
   42.0850000000000         2.797605148358445E-082
   42.2750000000000         2.860981768906981E-082
   42.4650000000000         2.544606692282993E-082
   42.6550000000000         1.669093669974027E-082
   42.8450000000000         3.122178722760217E-084
   43.0350000000000        -2.581189842393829E-082
   43.2250000000000        -6.365503629323106E-082
   43.4150000000000        -1.147041911061429E-081
   43.6050000000000        -1.795174034564998E-081
   43.7950000000000        -2.571869160182756E-081
   43.9850000000000        -3.447337804756968E-081
   44.1750000000000        -4.364794919543443E-081
   44.3650000000000        -5.234607636972446E-081
   44.5550000000000        -5.929717061983260E-081
   44.7450000000000        -6.283289461332588E-081
   44.9350000000000        -6.089542668798813E-081
   45.1250000000000        -5.108507430958393E-081
   45.3150000000000        -3.075078446654275E-081
   45.5050000000000         2.879256965723608E-082
   45.6950000000000         5.253797735062586E-081
   45.8850000000000         1.207506230370891E-080
   46.0750000000000         2.096838786728610E-080
   46.2650000000000         3.210418036475956E-080
   46.4550000000000         4.560291096416417E-080
   46.6450000000000         6.153777673975397E-080
   46.8350000000000         7.993859982744559E-080
   47.0250000000000         1.007844137539178E-079
   47.2150000000000         1.239617436939945E-079
   47.4050000000000         1.491525205464947E-079
   47.5950000000000         1.756011671785190E-079
   47.7850000000000         2.016972697629375E-079
   47.9750000000000         2.243027071853007E-079
   48.1650000000000         2.377564424386395E-079
   48.3550000000000         2.325146942246251E-079
   48.5450000000000         1.934389056216802E-079
   48.7350000000000         9.783957923730572E-080
   48.9250000000000        -8.646950999435748E-080
   49.1150000000000        -4.026487454722451E-079
   49.3050000000000        -9.051243634972078E-079
   49.4950000000000        -1.657674888094231E-078
   49.6850000000000        -2.727978731889837E-078
   49.8750000000000        -4.177017696005712E-078
   50.0650000000000        -6.041584520150734E-078
   50.2550000000000        -8.308235353718940E-078
   50.4450000000000        -1.087750463631189E-077
   50.6350000000000        -1.351822811188012E-077
   50.8250000000000        -1.581357434519367E-077
   51.0150000000000        -1.710302073756205E-077
   51.2050000000000        -1.642812055099661E-077
   51.3950000000000        -1.249447166482366E-077
   51.5850000000000        -3.667612285525694E-078
   51.7750000000000         1.197382785589365E-077
   51.9650000000000         3.649929615777759E-077
   52.1550000000000         7.186998712190633E-077
   52.3450000000000         1.195331323610620E-076
   52.5350000000000         1.798403423142492E-076
   52.7250000000000         2.512764824980304E-076
   52.9150000000000         3.295088301015262E-076
   53.1050000000000         4.063019734487815E-076
   53.2950000000000         4.683935981923277E-076
   53.4850000000000         4.964900679631207E-076
   53.6750000000000         4.646164702034888E-076
   53.8650000000000         3.401383691058014E-076
   54.0550000000000         8.485267384962122E-077
   54.2450000000000        -3.423912277797131E-076
   54.4350000000000        -9.810508902671610E-076
   54.6250000000000        -1.861773738779420E-075
   54.8150000000000        -2.996467415903881E-075
   55.0050000000000        -4.365462005343763E-075
   55.1950000000000        -5.902058056045862E-075
   55.3850000000000        -7.475315404959394E-075
   55.5750000000000        -8.872679610691115E-075
   55.7650000000000        -9.784952399815914E-075
   55.9550000000000        -9.797145139078674E-075
   56.1450000000000        -8.389823397228968E-075
   56.3350000000000        -4.956518636629716E-075
   56.5250000000000         1.156544840748362E-075
   56.7150000000000         1.058203686376169E-074
   56.9050000000000         2.382878394158157E-074
   57.0950000000000         4.114099790284398E-074
   57.2850000000000         6.231923233115757E-074
   57.4750000000000         8.650814642847183E-074
   57.6650000000000         1.119635196098813E-073
   57.8550000000000         1.358203824837417E-073
   58.0450000000000         1.538953428490611E-073
   58.2350000000000         1.605685369326837E-073
   58.4250000000000         1.488029893316031E-073
   58.6150000000000         1.103698138112351E-073
   58.8050000000000         3.635430763240644E-074
   58.9950000000000        -8.198234454892908E-074
   59.1850000000000        -2.519217696088408E-073
   59.3750000000000        -4.775483641992771E-073
   59.5650000000000        -7.575539805419642E-073
   59.7550000000000        -1.082654240147522E-072
   59.9450000000000        -1.432769377311433E-072
   60.1350000000000        -1.774230655951979E-072
   60.3250000000000        -2.057400067588700E-072
   60.5150000000000        -2.215228319198311E-072
   60.7050000000000        -2.163410864591374E-072
   60.8950000000000        -1.802914582032823E-072
   61.0850000000000        -1.025712735573030E-072
   61.2750000000000         2.754491827934912E-073
   61.4650000000000         2.192566646844877E-072
   61.6550000000000         4.782768272225722E-072
   61.8450000000000         8.043673062767062E-072
   62.0350000000000         1.188451227909097E-071
   62.2250000000000         1.609477218849259E-071
   62.4150000000000         2.031330473972003E-071
   62.6050000000000         2.400223252677166E-071
   62.7950000000000         2.643144835117004E-071
   62.9850000000000         2.668092460153793E-071
   63.1750000000000         2.366918127638641E-071
   63.3650000000000         1.621681913697906E-071
   63.5550000000000         3.153643660746518E-072
   63.7450000000000        -1.652382782862942E-071
   63.9350000000000        -4.344120250174856E-071
   64.1250000000000        -7.758382409956662E-071
   64.3150000000000        -1.179937799696691E-070
   64.5050000000000        -1.624476825687121E-070
   64.6950000000000        -2.071497103429296E-070
   64.8850000000000        -2.464891633375428E-070
   65.0750000000000        -2.729269584195896E-070
   65.2650000000000        -2.770890885672364E-070
   65.4550000000000        -2.481543540400849E-070
   65.6450000000000        -1.746251203153883E-070
   65.8350000000000        -4.555929592361125E-071
   66.0250000000000         1.476853885193106E-070
   66.2150000000000         4.091918017906635E-070
   66.4050000000000         7.357781627595601E-070
   66.5950000000000         1.114015662456186E-069
   66.7850000000000         1.517261392327796E-069
   66.9750000000000         1.903142135236015E-069
   67.1650000000000         2.212075290537490E-069
   67.3550000000000         2.367552696578549E-069
   67.5450000000000         2.279014523788339E-069
   67.7350000000000         1.848168766515247E-069
   67.9250000000000         9.795252310668657E-070
   68.1150000000000        -4.043347394093159E-070
   68.3050000000000        -2.342685406791455E-069
   68.4950000000000        -4.812410087482761E-069
   68.6850000000000        -7.701168530500263E-069
   68.8750000000000        -1.078077274321443E-068
   69.0650000000000        -1.368496356078876E-068
   69.2550000000000        -1.589725123022223E-068
   69.4450000000000        -1.675583700945079E-068
   69.6350000000000        -1.548359776866672E-068
   69.8250000000000        -1.125133932508901E-068
   70.0150000000000        -3.281585977302331E-069
   70.2050000000000         9.002385582868951E-069
   70.3950000000000         2.578218579659030E-068
   70.5850000000000         4.661159181851199E-068
   70.7750000000000         7.016207011089345E-068
   70.9650000000000         9.397521761362830E-068
   71.1550000000000         1.142646986753607E-067
   71.3450000000000         1.258247809745594E-067
   71.5350000000000         1.221158003723717E-067
   71.7250000000000         9.560609567193753E-068
   71.9150000000000         3.845165139259808E-068
   72.1050000000000        -5.641527431400121E-068
   72.2950000000000        -1.937433653600024E-067
   72.4850000000000        -3.739667068320265E-067
   72.6750000000000        -5.908283366838004E-067
   72.8650000000000        -8.287905971181410E-067
   73.0550000000000        -1.060519725724215E-066
   73.2450000000000        -1.244869826638808E-066
   73.4350000000000        -1.325935439830849E-066
   73.6250000000000        -1.233874002325992E-066
   73.8150000000000        -8.882937527275913E-067
   74.0050000000000        -2.050259550618331E-067
   74.1950000000000         8.929864202479670E-067
   74.3850000000000         2.460190570731415E-066
   74.5750000000000         4.508255803624653E-066
   74.7650000000000         6.981833758445310E-066
   74.9550000000000         9.731746069663332E-066
   75.1450000000000         1.248823056037412E-065
   75.3350000000000         1.483818982873251E-065
   75.5250000000000         1.621177913116843E-065
   75.7150000000000         1.588498298690652E-065
   75.9050000000000         1.300583504501785E-065
   76.0950000000000         6.652341252006704E-066
   76.2850000000000        -4.070374964013199E-066
   76.4750000000000        -1.988805415423049E-065
   76.6650000000000        -4.116832418714610E-065
   76.8550000000000        -6.768825849899434E-065
   77.0450000000000        -9.836973034608090E-065
   77.2350000000000        -1.310037418357749E-064
   77.4250000000000        -1.619966175585781E-064
   77.6150000000000        -1.861836886271112E-064
   77.8050000000000        -1.967685893158011E-064
   77.9950000000000        -1.854567302536843E-064
   78.1850000000000        -1.428575294890559E-064
   78.3750000000000        -5.922872002069052E-065
   78.5650000000000         7.437566718505307E-065
   78.7550000000000         2.645174387319756E-064
   78.9450000000000         5.133521989528493E-064
   79.1350000000000         8.162392031022491E-064
   79.3250000000000         1.159128341396944E-063
   79.5150000000000         1.515965508330299E-063
   79.7050000000000         1.846465437825387E-063
   79.8950000000000         2.094711915363470E-063
   80.0850000000000         2.189146043082249E-063
   80.2750000000000         2.044576437984830E-063
   80.4650000000000         1.566869308658971E-063
   80.6550000000000         6.609266316141457E-064
   80.8450000000000        -7.575887571334202E-064
   81.0350000000000        -2.746595796231306E-063
   81.2250000000000        -5.318236824256599E-063
   81.4150000000000        -8.416618484058339E-063
   81.6050000000000        -1.189416763557020E-062
   81.7950000000000        -1.548895304135310E-062
   81.9850000000000        -1.880622517196413E-062
   82.1750000000000        -2.130831100135625E-062
   82.3650000000000        -2.231775159974459E-062
   82.5550000000000        -2.103903895903346E-062
   82.7450000000000        -1.660431883145638E-062
   82.9350000000000        -8.147785474775142E-063
   83.1250000000000         5.087991375705683E-063
   83.3150000000000         2.361306803476464E-062
   83.5050000000000         4.752135252988887E-062
   83.6950000000000         7.629974944769041E-062
   83.8850000000000         1.086287868574408E-061
   84.0750000000000         1.421949622879648E-061
   84.2650000000000         1.735420613767075E-061
   84.4550000000000         1.979953712373863E-061
   84.6450000000000         2.096981038609888E-061
   84.8350000000000         2.018023147797031E-061
   85.0250000000000         1.668558257877799E-061
   85.2150000000000         9.742072468242077E-062
   85.4050000000000        -1.305345529849012E-062
   85.5950000000000        -1.690989422465114E-061
   85.7850000000000        -3.718669879997743E-061
   85.9750000000000        -6.175959531536919E-061
   86.1650000000000        -8.960176847347501E-061
   86.3550000000000        -1.188859863660323E-060
   86.5450000000000        -1.468654164210481E-060
   86.7350000000000        -1.698109044111791E-060
   86.9250000000000        -1.830344986716589E-060
   87.1150000000000        -1.810310755112247E-060
   87.3050000000000        -1.577692243860985E-060
   87.4950000000000        -1.071580832772769E-060
   87.6850000000000        -2.370761188456310E-061
   87.8750000000000         9.661495545306035E-061
   88.0650000000000         2.553505275957305E-060
   88.2550000000000         4.503803630798434E-060
   88.4450000000000         6.747022948449555E-060
   88.6350000000000         9.152644888176720E-060
   88.8250000000000         1.152008046103047E-059
   89.0150000000000         1.357305491670783E-059
   89.2050000000000         1.496011165142092E-059
   89.3950000000000         1.526355997127531E-059
   89.5850000000000         1.401916558372870E-059
   89.7750000000000         1.074859639519483E-059
   89.9650000000000         5.006021775484850E-060
   90.1550000000000        -3.560736938978722E-060
   90.3450000000000        -1.513553122802624E-059
   90.5350000000000        -2.964856666513381E-059
   90.7250000000000        -4.668556952232596E-059
   90.9150000000000        -6.539911433977881E-059
   91.1050000000000        -8.443247304852841E-059
   91.2950000000000        -1.018689332154461E-058
   91.4850000000000        -1.152217081204854E-058
   91.6750000000000        -1.214809377271350E-058
   91.8650000000000        -1.172344113630424E-058
   92.0550000000000        -9.887705121654630E-059
   92.2450000000000        -6.292040749333900E-059
   92.4350000000000        -6.407016556452762E-060
   92.6250000000000         7.257482800492880E-059
   92.8150000000000         1.742926344580469E-058
   93.0050000000000         2.967194354331667E-058
   93.1950000000000         4.348808319342132E-058
   93.3850000000000         5.802670704380316E-058
   93.5750000000000         7.203961419344708E-058
   93.7650000000000         8.386298659246323E-058
   93.9550000000000         9.143560688128608E-058
   94.1450000000000         9.236533480727169E-058
   94.3350000000000         8.405473425838677E-058
   94.5250000000000         6.389457103036470E-058
   94.7150000000000         2.953002784832190E-058
   94.9050000000000        -2.080130436504950E-058
   95.0950000000000        -8.786839008451823E-058
   95.2850000000000        -1.710011029174691E-057
   95.4750000000000        -2.676297033766367E-057
   95.6650000000000        -3.728514680925786E-057
   95.8550000000000        -4.790788699121260E-057
   96.0450000000000        -5.758349090950742E-057
   96.2350000000000        -6.497696542180539E-057
   96.4250000000000        -6.849759249283358E-057
   96.6150000000000        -6.636793188623168E-057
   96.8050000000000        -5.673664040567927E-057
   96.9950000000000        -3.783929893716287E-057
   97.1850000000000        -8.208049507685460E-058
   97.3750000000000         3.307381622747339E-057
   97.5650000000000         8.608207789287561E-057
   97.7550000000000         1.497433543980866E-056
   97.9450000000000         2.215328753816433E-056
   98.1350000000000         2.972106511036990E-056
   98.3250000000000         3.706358725985641E-056
   98.5150000000000         4.337053918778228E-056
   98.7050000000000         4.764656455236019E-056
   98.8950000000000         4.874471919312433E-056
   99.0850000000000         4.542658948682489E-056
   99.2750000000000         3.645235414254025E-056
   99.4650000000000         2.070223837727282E-056
   99.6550000000000        -2.671782580589449E-057
   99.8450000000000        -3.406852851008362E-056
   100.035000000000        -7.324294940650671E-056
   100.225000000000        -1.191073600510690E-055
   100.415000000000        -1.695465037267940E-055
   100.605000000000        -2.212690648934378E-055
   100.795000000000        -2.697223137518220E-055
   100.985000000000        -3.090994043610918E-055
   101.175000000000        -3.324697884689251E-055
   101.365000000000        -3.320615391159314E-055
   101.555000000000        -2.997194104020731E-055
   101.745000000000        -2.275535925580738E-055
   101.935000000000        -1.087809311031127E-055
   102.125000000000         6.125728606117568E-056
   102.315000000000         2.839387885645298E-055
   102.505000000000         5.561283286134393E-055
   102.695000000000         8.689613353904979E-055
   102.885000000000         1.206762600473859E-054
   103.075000000000         1.546245642982217E-054
   103.265000000000         1.856159579259942E-054
   103.455000000000         2.097562823489548E-054
   103.645000000000         2.224902856903446E-054
   103.835000000000         2.188064630088695E-054
   104.025000000000         1.935513171622150E-054
   104.215000000000         1.418595613827898E-054
   104.405000000000         5.969822283805933E-055
   104.595000000000        -5.548849911408363E-055
   104.785000000000        -2.040602089167928E-054
   104.975000000000        -3.834290108481528E-054
   105.165000000000        -5.873341602476695E-054
   105.355000000000        -8.052171590880094E-054
   105.545000000000        -1.021786444707498E-053
   105.735000000000        -1.216872060445066E-053
   105.925000000000        -1.365676426744831E-053
   106.115000000000        -1.439525299815866E-053
   106.305000000000        -1.407210950966575E-053
   106.495000000000        -1.236995450969210E-053
   106.685000000000        -8.993040609557194E-054
   106.875000000000        -3.700861901210431E-054
   107.065000000000         3.652457217391003E-054
   107.255000000000         1.307469271477289E-053
   107.445000000000         2.439057292961860E-053
   107.635000000000         3.719890844092428E-053
   107.825000000000         5.083629346519032E-053
   108.015000000000         6.435270265197308E-053
   108.205000000000         7.650492263882188E-053
   108.395000000000         8.577403608677582E-053
   108.585000000000         9.041298653834113E-053
   108.775000000000         8.852946566697744E-053
   108.965000000000         7.820786357689028E-053
   109.155000000000         5.767171848229063E-053
   109.345000000000         2.548494916803491E-053
   109.535000000000        -1.921383109029795E-053
   109.725000000000        -7.645434034513120E-053
   109.915000000000        -1.451706770588919E-052
   110.105000000000        -2.229515794250237E-052