  -1.42500000000000         0.000000000000000E+000
  -1.23500000000000         0.000000000000000E+000
  -1.04500000000000         0.000000000000000E+000
 -0.855000000000000         0.000000000000000E+000
 -0.665000000000000         0.000000000000000E+000
 -0.475000000000000         0.000000000000000E+000
 -0.285000000000000         0.000000000000000E+000
 -9.499999999999975E-002    0.000000000000000E+000
  9.500000000000020E-002    0.000000000000000E+000
  0.285000000000000         0.000000000000000E+000
  0.475000000000000         0.000000000000000E+000
  0.665000000000000         0.000000000000000E+000
  0.855000000000000         0.000000000000000E+000
   1.04500000000000         0.000000000000000E+000
   1.23500000000000         0.000000000000000E+000
   1.42500000000000         0.000000000000000E+000
   1.61500000000000         0.000000000000000E+000
   1.80500000000000         0.000000000000000E+000
   1.99500000000000         0.000000000000000E+000
   2.18500000000000         0.000000000000000E+000
   2.37500000000000         0.000000000000000E+000
   2.56500000000000         0.000000000000000E+000
   2.75500000000000         0.000000000000000E+000
   2.94500000000000         0.000000000000000E+000
   3.13500000000000         0.000000000000000E+000
   3.32500000000000         0.000000000000000E+000
   3.51500000000000         0.000000000000000E+000
   3.70500000000000         0.000000000000000E+000
   3.89500000000000         0.000000000000000E+000
   4.08500000000000         0.000000000000000E+000
   4.27500000000000         0.000000000000000E+000
   4.46500000000000         0.000000000000000E+000
   4.65500000000000         0.000000000000000E+000
   4.84500000000000         0.000000000000000E+000
   5.03500000000000         0.000000000000000E+000
   5.22500000000000         0.000000000000000E+000
   5.41500000000000         0.000000000000000E+000
   5.60500000000000         0.000000000000000E+000
   5.79500000000000         0.000000000000000E+000
   5.98500000000000         0.000000000000000E+000
   6.17500000000000        -9.625066369638210E-168
   6.36500000000000        -4.563970109740036E-163
   6.55500000000000        -5.848699726732256E-159
   6.74500000000000         6.956995691697116E-156
   6.93500000000000         3.489839425789211E-155
   7.12500000000000         3.276624403769605E-152
   7.31500000000000         2.298188779555055E-150
   7.50500000000000         7.711301775557296E-149
   7.69500000000000        -5.912496912782366E-138
   7.88500000000000         7.552595934330274E-131
   8.07500000000000         2.322315180657341E-129
   8.26500000000000         2.548591851370992E-128
   8.45500000000000        -8.949897633973183E-129
   8.64500000000000        -3.708363160591780E-126
   8.83500000000000        -5.195845756637959E-125
   9.02500000000000        -3.751658258845487E-124
   9.21500000000000        -1.055615146708411E-123
   9.40500000000000         9.833892257115117E-123
   9.59500000000000         1.703288616815878E-121
   9.78500000000000         1.488259657880926E-120
   9.97500000000000         9.602776467843151E-120
   10.1650000000000         5.022258688443303E-119
   10.3550000000000         2.208914641702712E-118
   10.5450000000000         8.276215741236680E-118
   10.7350000000000         2.622228905119138E-117
   10.9250000000000         6.728446090151954E-117
   11.1150000000000         1.177701296961039E-116
   11.3050000000000        -1.623116360719703E-117
   11.4950000000000        -1.305830174765614E-115
   11.6850000000000        -7.374407140301373E-115
   11.8750000000000        -2.943786502535370E-114
   12.0650000000000        -9.682285840320257E-114
   12.2550000000000        -2.717113885574789E-113
   12.4450000000000        -6.408969521609921E-113
   12.6350000000000        -1.153449368667649E-112
   12.8250000000000        -8.351005297343028E-113
   13.0150000000000         5.047676067406698E-112
   13.2050000000000         3.372040823158779E-111
   13.3950000000000         1.388357053532735E-110
   13.5850000000000         4.696931110631091E-110
   13.7750000000000         1.403182138784360E-109
   13.9650000000000         3.802742587307688E-109
   14.1550000000000         9.437212000685739E-109
   14.3450000000000         2.140765833322196E-108
   14.5350000000000         4.374697972095529E-108
   14.7250000000000         7.740185939152872E-108
   14.9150000000000         1.050200140224851E-107
   15.1050000000000         4.661982934393763E-108
   15.2950000000000        -3.516747322851685E-107
   15.4850000000000        -1.767429004781553E-106
   15.6750000000000        -5.811031298468631E-106
   15.8650000000000        -1.597143785938917E-105
   16.0550000000000        -3.920875900839443E-105
   16.2450000000000        -8.833720641939626E-105
   16.4350000000000        -1.850075437496727E-104
   16.6250000000000        -3.621226098690952E-104
   16.8150000000000        -6.620266099019601E-104
   17.0050000000000        -1.120687536883057E-103
   17.1950000000000        -1.713387014152809E-103
   17.3850000000000        -2.203275262907073E-103
   17.5750000000000        -1.758816180304251E-103
   17.7650000000000         1.949280826651106E-103
   17.9550000000000         1.475790343625317E-102
   18.1450000000000         5.023505272740669E-102
   18.3350000000000         1.380558982605781E-101
   18.5250000000000         3.396704731733357E-101
   18.7150000000000         7.759480648217821E-101
   18.9050000000000         1.673244590335218E-100
   19.0950000000000         3.436139233686073E-100
   19.2850000000000         6.756946784525089E-100
   19.4750000000000         1.277473286099766E-099
   19.6650000000000         2.330193989236021E-099
   19.8550000000000         4.114853954945931E-099
   20.0450000000000         7.059657005258418E-099
   20.2350000000000         1.181151964570286E-098
   20.4250000000000         1.934547367841201E-098
   20.6150000000000         3.113008789936432E-098
   20.8050000000000         4.936722482915711E-098
   20.9950000000000         7.731521303095199E-098
   21.1850000000000         1.196799087935578E-097
   21.3750000000000         1.830140934479356E-097
   21.5650000000000         2.760030017555019E-097
   21.7550000000000         4.094394029992953E-097
   21.9450000000000         5.956147943296060E-097
   22.1350000000000         8.467732442550070E-097
   22.3250000000000         1.172158212825315E-096
   22.5150000000000         1.572934186287260E-096
   22.7050000000000         2.033693175863578E-096
   22.8950000000000         2.508054811437547E-096
   23.0850000000000         2.893627180872140E-096
   23.2750000000000         2.987869154327690E-096
   23.4650000000000         2.410879421585845E-096
   23.6550000000000         4.740056793554928E-097
   23.8450000000000        -4.034373568746916E-096
   24.0350000000000        -1.317947028147249E-095
   24.2250000000000        -3.035731003980613E-095
   24.4150000000000        -6.092819933321955E-095
   24.6050000000000        -1.129668661222515E-094
   24.7950000000000        -1.980004102866779E-094
   24.9850000000000        -3.314700393153454E-094
   25.1750000000000        -5.324799475282738E-094
   25.3650000000000        -8.222192776210368E-094
   25.5550000000000        -1.220325524298919E-093
   25.7450000000000        -1.738495947078061E-093
   25.9350000000000        -2.370957832558879E-093
   26.1250000000000        -3.082062343465638E-093
   26.3150000000000        -3.792257164227356E-093
   26.5050000000000        -4.364814820348937E-093
   26.6950000000000        -4.596444639287735E-093
   26.8850000000000        -4.214427083896714E-093
   27.0750000000000        -2.879975420029806E-093
   27.2650000000000        -1.908581416119990E-094
   27.4550000000000         4.334891698241768E-093
   27.6450000000000         1.132737148423971E-092
   27.8350000000000         2.173359942088073E-092
   28.0250000000000         3.714171564887358E-092
   28.2150000000000         6.029931224637882E-092
   28.4050000000000         9.580418883284993E-092
   28.5950000000000         1.508159499298199E-091
   28.7850000000000         2.354142059806310E-091
   28.9750000000000         3.619041138066619E-091
   29.1650000000000         5.419645698316969E-091
   29.3550000000000         7.801253093797387E-091
   29.5450000000000         1.061803185438137E-090
   29.7350000000000         1.334281732946521E-090
   29.9250000000000         1.479941821036760E-090
   30.1150000000000         1.283178548996974E-090
   30.3050000000000         3.961967721726705E-091
   30.4950000000000        -1.685466964308848E-090
   30.6850000000000        -5.619412384661641E-090
   30.8750000000000        -1.215813246095182E-089
   31.0650000000000        -2.200176543737905E-089
   31.2550000000000        -3.552386564892319E-089
   31.4450000000000        -5.233691874863758E-089
   31.6350000000000        -7.068304662189537E-089
   31.8250000000000        -8.667413611070987E-089
   32.0150000000000        -9.346951858820758E-089
   32.2050000000000        -8.057010660658594E-089
   32.3950000000000        -3.352108331997841E-089
   32.5850000000000         6.556339653784713E-089
   32.7750000000000         2.361378851131706E-088
   32.9650000000000         4.954699420168246E-088
   33.1550000000000         8.525150174111306E-088
   33.3450000000000         1.299213723618995E-087
   33.5350000000000         1.799527055728592E-087
   33.7250000000000         2.277353478925522E-087
   33.9150000000000         2.605607424993307E-087
   34.1050000000000         2.600104042750487E-087
   34.2950000000000         2.023294254531780E-087
   34.4850000000000         6.039786707329521E-088
   34.6750000000000        -1.920623074860101E-087
   34.8650000000000        -5.735345096453511E-087
   35.0550000000000        -1.084857535166860E-086
   35.2450000000000        -1.696993994557596E-086
   35.4350000000000        -2.337961927049909E-086
   35.6250000000000        -2.881864229471107E-086
   35.8150000000000        -3.144605394384600E-086
   36.0050000000000        -2.892568790582715E-086
   36.1950000000000        -1.871819880797407E-086
   36.3850000000000         1.343338741211350E-087
   36.5750000000000         3.213206744867076E-086
   36.7650000000000         7.194300445397320E-086
   36.9550000000000         1.149127463652956E-085
   37.1450000000000         1.493420905899082E-085
   37.3350000000000         1.563025815615051E-085
   37.5250000000000         1.091327185826741E-085
   37.7150000000000        -2.532699826844448E-086
   37.9050000000000        -2.826949169766292E-085
   38.0950000000000        -6.930242654066952E-085
   38.2850000000000        -1.267701583227041E-084
   38.4750000000000        -1.980595017893155E-084
   38.6650000000000        -2.743676003248432E-084
   38.8550000000000        -3.378844435176432E-084
   39.0450000000000        -3.589893031506495E-084
   39.2350000000000        -2.941440421012877E-084
   39.4250000000000        -8.550685080315573E-085
   39.6150000000000         3.363597504011064E-084
   39.8050000000000         1.045025217312724E-083
   39.9950000000000         2.104193146242628E-083
   40.1850000000000         3.545587529684049E-083
   40.3750000000000         5.337821955764614E-083
   40.5650000000000         7.346692893881413E-083
   40.7550000000000         9.289493372233652E-083
   40.9450000000000         1.068898574349440E-082
   41.1350000000000         1.083653340763387E-082
   41.3250000000000         8.778283056536167E-083
   41.5150000000000         3.342624986694695E-083
   41.7050000000000        -6.769507864045979E-083
   41.8950000000000        -2.280894392911045E-082
   42.0850000000000        -4.569763525825860E-082
   42.2750000000000        -7.563243361552073E-082
   42.4650000000000        -1.115792281971732E-081
   42.6550000000000        -1.506889869067326E-081
   42.8450000000000        -1.877020791441694E-081
   43.0350000000000        -2.144498052673038E-081
   43.2250000000000        -2.196082647799854E-081
   43.4150000000000        -1.889023184081792E-081
   43.6050000000000        -1.059856024037748E-081
   43.7950000000000         4.577797299935785E-082
   43.9850000000000         2.804519219337368E-081
   44.1750000000000         6.055138428937587E-081
   44.3650000000000         1.016807436931415E-080
   44.5550000000000         1.492847502337154E-080
   44.7450000000000         1.989214896659475E-080
   44.9350000000000         2.434179419519805E-080
   45.1250000000000         2.727088085688189E-080
   45.3150000000000         2.741370244776231E-080
   45.5050000000000         2.334123563167436E-080
   45.6950000000000         1.364013755104688E-080
   45.8850000000000        -2.815082414107996E-081
   46.0750000000000        -2.650036392041668E-080
   46.2650000000000        -5.681549813350066E-080
   46.4550000000000        -9.164543772717517E-080
   46.6450000000000        -1.269960158742382E-079
   46.8350000000000        -1.568259310775942E-079
   47.0250000000000        -1.732273408065120E-079
   47.2150000000000        -1.671235811445986E-079
   47.4050000000000        -1.296422502538120E-079
   47.5950000000000        -5.427120894627075E-080
   47.7850000000000         6.020001904704034E-080
   47.9750000000000         2.061215977724447E-079
   48.1650000000000         3.632162593369354E-079
   48.3550000000000         4.953158949594156E-079
   48.5450000000000         5.486558705718647E-079
   48.7350000000000         4.531145835560197E-079
   48.9250000000000         1.280377980327018E-079
   49.1150000000000        -5.056428572662354E-079
   49.3050000000000        -1.505524902871249E-078
   49.4950000000000        -2.879293840734234E-078
   49.6850000000000        -4.548198433142744E-078
   49.8750000000000        -6.304858520392624E-078
   50.0650000000000        -7.770476981645493E-078
   50.2550000000000        -8.359809245907118E-078
   50.4450000000000        -7.265898898664302E-078
   50.6350000000000        -3.480148011609812E-078
   50.8250000000000         4.133964046541847E-078
   51.0150000000000         1.669425161661368E-077
   51.2050000000000         3.506308577114997E-077
   51.3950000000000         5.950978710098778E-077
   51.5850000000000         8.927353826584005E-077
   51.7750000000000         1.220471622875009E-076
   51.9650000000000         1.534283726036528E-076
   52.1550000000000         1.764181757773947E-076
   52.3450000000000         1.810840708555826E-076
   52.5350000000000         1.545447351771774E-076
   52.7250000000000         8.146697149314296E-077
   52.9150000000000        -5.471364150882767E-077
   53.1050000000000        -2.696404449872713E-076
   53.2950000000000        -5.747839000205050E-076
   53.4850000000000        -9.730122133150347E-076
   53.6750000000000        -1.453057544965471E-075
   53.8650000000000        -1.983171740748032E-075
   54.0550000000000        -2.504557030163971E-075
   54.2450000000000        -2.925509915138553E-075
   54.4350000000000        -3.117606693752279E-075
   54.6250000000000        -2.915644966898414E-075
   54.8150000000000        -2.123374976247661E-075
   55.0050000000000        -5.272247779898766E-076
   55.1950000000000         2.079857349205744E-075
   55.3850000000000         5.862764841703467E-075
   55.5750000000000         1.089604477862621E-074
   55.7650000000000         1.710390792554654E-074
   55.9550000000000         2.419132788905944E-074
   56.1450000000000         3.157190148873409E-074
   56.3350000000000         3.830146568813341E-074
   56.5250000000000         4.303011163557275E-074
   56.7150000000000         4.398883329366749E-074
   56.9050000000000         3.903005978346346E-074
   57.0950000000000         2.574304246572852E-074
   57.2850000000000         1.664650284004942E-075
   57.4750000000000        -3.539737253255215E-074
   57.6650000000000        -8.691916091293426E-074
   57.8550000000000        -1.530963521999307E-073
   58.0450000000000        -2.321812054112276E-073
   58.2350000000000        -3.197650477801975E-073
   58.4250000000000        -4.080778521606107E-073
   58.6150000000000        -4.854078924253285E-073
   58.8050000000000        -5.357760175302421E-073
   58.9950000000000        -5.390271557275115E-073
   59.1850000000000        -4.715209653821707E-073
   59.3750000000000        -3.076077101551041E-073
   59.5650000000000        -2.205727687927616E-074
   59.7550000000000         4.064386287017182E-073
   59.9450000000000         9.906554735899653E-073
   60.1350000000000         1.729206444792239E-072
   60.3250000000000         2.600154569865562E-072
   60.5150000000000         3.554337228578201E-072
   60.7050000000000         4.509117237929567E-072
   60.8950000000000         5.343534503158957E-072
   61.0850000000000         5.896083709012478E-072
   61.2750000000000         5.966552686012024E-072
   61.4650000000000         5.323479990057880E-072
   61.6550000000000         3.718778391118309E-072
   61.8450000000000         9.108681030374672E-073
   62.0350000000000        -3.302785996797714E-072
   62.2250000000000        -9.043585241633789E-072
   62.4150000000000        -1.630108783001347E-071
   62.6050000000000        -2.487603738915262E-071
   62.7950000000000        -3.432124075984243E-071
   62.9850000000000        -4.388642108316629E-071
   63.1750000000000        -5.247532714870895E-071
   63.3650000000000        -5.862548722329990E-071
   63.5550000000000        -6.052279403800657E-071
   63.7450000000000        -5.606426002758380E-071
   63.9350000000000        -4.298237913015625E-071
   64.1250000000000        -1.904310582298573E-071
   64.3150000000000         1.767398693332375E-071
   64.5050000000000         6.841077412486760E-071
   64.6950000000000         1.332871792137295E-070
   64.8850000000000         2.107977449570513E-070
   65.0750000000000         2.972819864220597E-070
   65.2650000000000         3.864206188462063E-070
   65.4550000000000         4.688300788983248E-070
   65.6450000000000         5.318486018109710E-070
   65.8350000000000         5.596261384084570E-070
   66.0250000000000         5.336443251463085E-070
   66.2150000000000         4.337973036776949E-070
   66.4050000000000         2.401542422363678E-070
   66.5950000000000        -6.450595413431948E-071
   66.7850000000000        -4.913542061878835E-070
   66.9750000000000        -1.041420789846024E-069
   67.1650000000000        -1.700936205039351E-069
   67.3550000000000        -2.436448059436061E-069
   67.5450000000000        -3.190255952745827E-069
   67.7350000000000        -3.876927169616372E-069
   67.9250000000000        -4.381880764501333E-069
   68.1150000000000        -4.563225743339620E-069
   68.3050000000000        -4.258167515209058E-069
   68.4950000000000        -3.295300093203159E-069
   68.6850000000000        -1.513913475620255E-069
   68.8750000000000         1.209006067641860E-069
   69.0650000000000         4.924190752635396E-069
   69.2550000000000         9.569204709931310E-069
   69.4450000000000         1.492413040859868E-068
   69.6350000000000         2.056868119638772E-068
   69.8250000000000         2.584785720047310E-068
   70.0150000000000         2.985560806381888E-068
   70.2050000000000         3.144806909514083E-068
   70.3950000000000         2.929933683077557E-068
   70.5850000000000         2.201285152315943E-068
   70.7750000000000         8.299554229731656E-069
   70.9650000000000        -1.277067225255169E-068
   71.1550000000000        -4.144590341581413E-068
   71.3450000000000        -7.691118778108468E-068
   71.5350000000000        -1.168797936237631E-067
   71.7250000000000        -1.572069436464047E-067
   71.9150000000000        -1.915990075071019E-067
   72.1050000000000        -2.115141357725618E-067
   72.2950000000000        -2.063701135770790E-067
   72.4850000000000        -1.641869417165326E-067
   72.6750000000000        -7.278922852929827E-068
   72.8650000000000         7.833010388696757E-068
   73.0550000000000         2.954353002243144E-067
   73.2450000000000         5.772998878123302E-067
   73.4350000000000         9.114491120697484E-067
   73.6250000000000         1.270222273523949E-066
   73.8150000000000         1.607184425572976E-066
   74.0050000000000         1.854636829299629E-066
   74.1950000000000         1.923191417525081E-066
   74.3850000000000         1.704550554167818E-066
   74.5750000000000         1.078721989832038E-066
   74.7650000000000        -7.315788655476600E-068
   74.9550000000000        -1.849486231347908E-066
   75.1450000000000        -4.301976529026367E-066
   75.3350000000000        -7.403067793151324E-066
   75.5250000000000        -1.100869734121879E-065
   75.7150000000000        -1.481975853228317E-065
   75.9050000000000        -1.834743705913785E-065
   76.0950000000000        -2.088963962735995E-065
   76.2850000000000        -2.152766705567115E-065
   76.4750000000000        -1.915381091097196E-065
   76.6650000000000        -1.254124231489768E-065
   76.8550000000000        -4.669065879578507E-067
   77.0450000000000         1.810441294975343E-065
   77.2350000000000         4.377167924684367E-065
   77.4250000000000         7.638949516550715E-065
   77.6150000000000         1.147158972822189E-064
   77.8050000000000         1.560455360156168E-064
   77.9950000000000         1.958739888515019E-064
   78.1850000000000         2.276563627599511E-064
   78.3750000000000         2.427399601395218E-064
   78.5650000000000         2.305638931943795E-064
   78.7550000000000         1.792246732529401E-064
   78.9450000000000         7.650191868209125E-065
   79.1350000000000        -8.858193230806299E-065
   79.3250000000000        -3.236338223291178E-064
   79.5150000000000        -6.302228016527290E-064
   79.7050000000000        -1.000789167325650E-063
   79.8950000000000        -1.415356837284138E-063
   80.0850000000000        -1.838405853432755E-063
   80.2750000000000        -2.216402021662261E-063
   80.4650000000000        -2.476616456237160E-063
   80.6550000000000        -2.527979149733752E-063
   80.8450000000000        -2.264772187411884E-063
   81.0350000000000        -1.573950089350506E-063
   81.2250000000000        -3.467449751985871E-064
   81.4150000000000         1.505058219768808E-063
   81.6050000000000         4.028231983642812E-063
   81.7950000000000         7.203281036416411E-063
   81.9850000000000         1.091716451530779E-062
   82.1750000000000         1.493600515517507E-062
   82.3650000000000         1.888127740781125E-062
   82.5550000000000         2.221402084467044E-062
   82.7450000000000         2.423254959474060E-062
   82.9350000000000         2.408975317532959E-062
   83.1250000000000         2.083620722973549E-062
   83.3150000000000         1.349471302013689E-062
   83.5050000000000         1.170340203293898E-063
   83.6950000000000        -1.680263703124727E-062
   83.8850000000000        -4.067948000807575E-062
   84.0750000000000        -7.009724078728056E-062
   84.2650000000000        -1.038548415581259E-061
   84.4550000000000        -1.397026615017409E-061
   84.6450000000000        -1.741710720169344E-061
   84.8350000000000        -2.024747305710766E-061
   85.0250000000000        -2.185353959548824E-061
   85.2150000000000        -2.151692983093288E-061
   85.4050000000000        -1.844842400299370E-061
   85.5950000000000        -1.185250890550012E-061
   85.7850000000000        -1.019268458700602E-062
   85.9750000000000         1.455608117183056E-061
   86.1650000000000         3.502881519575086E-061
   86.3550000000000         6.004229826825022E-061
   86.5450000000000         8.855918499533826E-061
   86.7350000000000         1.187032253384321E-060
   86.9250000000000         1.476342211688622E-060
   87.1150000000000         1.714838298513109E-060
   87.3050000000000         1.853839298828471E-060
   87.4950000000000         1.836212589736617E-060
   87.6850000000000         1.599509953764158E-060
   87.8750000000000         1.080968166995489E-060
   88.0650000000000         2.245472191467122E-061
   88.2550000000000        -1.009982958712310E-060
   88.4450000000000        -2.636122858698061E-060
   88.6350000000000        -4.628397191921769E-060
   88.8250000000000        -6.909636010235866E-060
   89.0150000000000        -9.339024797760983E-060
   89.2050000000000        -1.170256561226108E-059
   89.3950000000000        -1.370796492100407E-059
   89.5850000000000        -1.498625856569188E-059
   89.7750000000000        -1.510263701840203E-059
   89.9650000000000        -1.357887267594323E-059
   90.1550000000000        -9.929399092794577E-060
   90.3450000000000        -3.712376104940793E-060
   90.5350000000000         5.404067087494283E-060
   90.7250000000000         1.756182515285530E-059
   90.9150000000000         3.262253309843462E-059
   91.1050000000000         5.007298257575029E-059
   91.2950000000000         6.893500655254352E-059
   91.4850000000000         8.769150225178054E-059
   91.6750000000000         1.042429934956348E-058
   91.8650000000000         1.159113261456752E-058
   92.0550000000000         1.195082935900367E-058
   92.2450000000000         1.114866894373200E-058
   92.4350000000000         8.818893819982933E-059
   92.6250000000000         4.620353807850636E-059
   92.8150000000000        -1.716837445401479E-059
   93.0050000000000        -1.033452298405599E-058
   93.1950000000000        -2.118193764795430E-058
   93.3850000000000        -3.394743646921945E-058
   93.5750000000000        -4.799254708075286E-058
   93.7650000000000        -6.229640378309588E-058
   93.9550000000000        -7.542052735033158E-058
   94.1450000000000        -8.550544540476084E-058
   94.3350000000000        -9.031149451304505E-058
   94.5250000000000        -8.731595933121234E-058
   94.7150000000000        -7.387712376581841E-058
   94.9050000000000        -4.747249204873201E-058
   95.0950000000000        -6.013107215246809E-059
   95.2850000000000         5.177160588595129E-058
   95.4750000000000         1.258936920806903E-057
   95.6650000000000         2.146379554170121E-057
   95.8550000000000         3.141042646790919E-057
   96.0450000000000         4.178136820453981E-057
   96.2350000000000         5.164435620098081E-057
   96.4250000000000         5.977665739896546E-057
   96.6150000000000         6.468739222266626E-057
   96.8050000000000         6.467617132927443E-057
   96.9950000000000         5.793492535796684E-057
   97.1850000000000         4.269770224721347E-057
   97.3750000000000         1.743985913709055E-057
   97.5650000000000        -1.887659497585103E-057
   97.7550000000000        -6.652071086015336E-057
   97.9450000000000        -1.246896417482257E-056
   98.1350000000000        -1.912091192335484E-056
   98.3250000000000        -2.622694871897178E-056
   98.5150000000000        -3.322368750157249E-056
   98.7050000000000        -3.935850212464517E-056
   98.8950000000000        -4.369965383357591E-056
   99.0850000000000        -4.516818152381307E-056
   99.2750000000000        -4.259580535633244E-056
   99.4650000000000        -3.481190063012758E-056
   99.6550000000000        -2.076069790656103E-056
   99.8450000000000         3.527860792801450E-058
   100.035000000000         2.889296518606011E-056
   100.225000000000         6.460894338017778E-056
   100.415000000000         1.064481701186372E-055
   100.605000000000         1.523864470803076E-055
   100.795000000000         1.992965823118259E-055
   100.985000000000         2.428815570643028E-055
   101.175000000000         2.777002722511070E-055
   101.365000000000         2.973141231772865E-055
   101.555000000000         2.945801493175789E-055
   101.745000000000         2.621107050953319E-055
   101.935000000000         1.929100038657156E-055
   102.125000000000         8.118421189891780E-056
   102.315000000000        -7.669598124158690E-056
   102.505000000000        -2.811228226972646E-055
   102.695000000000        -5.281357495696625E-055
   102.885000000000        -8.083548857903257E-055
   103.075000000000        -1.106081393244823E-054
   103.265000000000        -1.398704400733169E-054
   103.455000000000        -1.656570275967316E-054
   103.645000000000        -1.843476568941378E-054
   103.835000000000        -1.917946441287872E-054
   104.025000000000        -1.835416284038600E-054
   104.215000000000        -1.551426414285885E-054
   104.405000000000        -1.025839960870548E-054
   104.595000000000        -2.280273298198612E-055
   104.785000000000         8.571561962069686E-055
   104.975000000000         2.222901020782183E-054
   105.165000000000         3.833925298970186E-054
   105.355000000000         5.620498213138896E-054
   105.545000000000         7.473732783759513E-054
   105.735000000000         9.242992202036412E-054
   105.925000000000         1.073632844352112E-053
   106.115000000000         1.172488590180865E-053
   106.305000000000         1.195213529717258E-053
   106.495000000000         1.114863438017971E-053
   106.685000000000         9.052725174391107E-054
   106.875000000000         5.437161409260551E-054
   107.065000000000         1.411114482091640E-055
   107.255000000000        -6.893690212375436E-054
   107.445000000000        -1.558464336137116E-053
   107.635000000000        -2.567067059489466E-053
   107.825000000000        -3.667897040334605E-053
   108.015000000000        -4.790057969893616E-053
   108.205000000000        -5.837979299925915E-053
   108.395000000000        -6.692281291439522E-053
   108.585000000000        -7.213094122571314E-053
   108.775000000000        -7.246304299994997E-053
   108.965000000000        -6.633081931536824E-053
   109.155000000000        -5.222852242260462E-053
   109.345000000000        -2.889609489250484E-053
   109.535000000000         4.488678119701681E-054
   109.725000000000         4.809746388979495E-053
   109.915000000000         1.012311207171716E-052
   110.105000000000         1.621096289803696E-052