  -1.42500000000000         0.000000000000000E+000
  -1.23500000000000         0.000000000000000E+000
  -1.04500000000000         0.000000000000000E+000
 -0.855000000000000         0.000000000000000E+000
 -0.665000000000000         0.000000000000000E+000
 -0.475000000000000         0.000000000000000E+000
 -0.285000000000000         0.000000000000000E+000
 -9.499999999999975E-002    0.000000000000000E+000
  9.500000000000020E-002    0.000000000000000E+000
  0.285000000000000         0.000000000000000E+000
  0.475000000000000         0.000000000000000E+000
  0.665000000000000         0.000000000000000E+000
  0.855000000000000         0.000000000000000E+000
   1.04500000000000         0.000000000000000E+000
   1.23500000000000         0.000000000000000E+000
   1.42500000000000         0.000000000000000E+000
   1.61500000000000         0.000000000000000E+000
   1.80500000000000         0.000000000000000E+000
   1.99500000000000         0.000000000000000E+000
   2.18500000000000         0.000000000000000E+000
   2.37500000000000         0.000000000000000E+000
   2.56500000000000         0.000000000000000E+000
   2.75500000000000         0.000000000000000E+000
   2.94500000000000         0.000000000000000E+000
   3.13500000000000         0.000000000000000E+000
   3.32500000000000         0.000000000000000E+000
   3.51500000000000         0.000000000000000E+000
   3.70500000000000         0.000000000000000E+000
   3.89500000000000         0.000000000000000E+000
   4.08500000000000         0.000000000000000E+000
   4.27500000000000         0.000000000000000E+000
   4.46500000000000         0.000000000000000E+000
   4.65500000000000         0.000000000000000E+000
   4.84500000000000         0.000000000000000E+000
   5.03500000000000         0.000000000000000E+000
   5.22500000000000         0.000000000000000E+000
   5.41500000000000         0.000000000000000E+000
   5.60500000000000         0.000000000000000E+000
   5.79500000000000         0.000000000000000E+000
   5.98500000000000         0.000000000000000E+000
   6.17500000000000        -6.364544201458509E-166
   6.36500000000000         8.320810167953775E-160
   6.55500000000000         1.471100556341580E-155
   6.74500000000000        -9.674418677458178E-156
   6.93500000000000         9.686937246732341E-152
   7.12500000000000         6.542497997327364E-150
   7.31500000000000         2.099425320625219E-148
   7.50500000000000         4.426077030032334E-147
   7.69500000000000        -2.521262595505282E-139
   7.88500000000000         2.859904553880406E-131
   8.07500000000000         7.943283192257142E-130
   8.26500000000000         5.430758326623969E-129
   8.45500000000000        -1.036981991675265E-127
   8.64500000000000        -2.886389825161588E-126
   8.83500000000000        -3.422000520908249E-125
   9.02500000000000        -2.288757944920412E-124
   9.21500000000000        -4.577992355622873E-124
   9.40500000000000         9.462673850768485E-123
   9.59500000000000         1.485443705573684E-121
   9.78500000000000         1.358612753912248E-120
   9.97500000000000         9.595379059986196E-120
   10.1650000000000         5.691123808528831E-119
   10.3550000000000         2.951387323076783E-118
   10.5450000000000         1.370587984724852E-117
   10.7350000000000         5.787811505854346E-117
   10.9250000000000         2.244375435821806E-116
   11.1150000000000         8.033046154690057E-116
   11.3050000000000         2.654477361552951E-115
   11.4950000000000         8.047414263979467E-115
   11.6850000000000         2.198970583980060E-114
   11.8750000000000         5.180778152433744E-114
   12.0650000000000         9.162782240633918E-114
   12.2550000000000         3.518455870871491E-114
   12.4450000000000        -6.854787995010371E-113
   12.6350000000000        -4.379033327190973E-112
   12.8250000000000        -1.914436216989241E-111
   13.0150000000000        -7.054476229927256E-111
   13.2050000000000        -2.324318825961780E-110
   13.3950000000000        -7.013206004542720E-110
   13.5850000000000        -1.958585222143466E-109
   13.7750000000000        -5.081697087735739E-109
   13.9650000000000        -1.223474522390353E-108
   14.1550000000000        -2.715493371034760E-108
   14.3450000000000        -5.472945584016555E-108
   14.5350000000000        -9.685451898285558E-108
   14.7250000000000        -1.375072110887290E-107
   14.9150000000000        -1.016450363517133E-107
   15.1050000000000         2.415601631631996E-107
   15.2950000000000         1.480821180550813E-106
   15.4850000000000         4.941747193187626E-106
   15.6750000000000         1.332396485495766E-105
   15.8650000000000         3.164424572300873E-105
   16.0550000000000         6.840142822453082E-105
   16.2450000000000         1.365523530789444E-104
   16.4350000000000         2.531944977730383E-104
   16.6250000000000         4.354381439908596E-104
   16.8150000000000         6.870377495125410E-104
   17.0050000000000         9.642341789883916E-104
   17.1950000000000         1.096525732705180E-103
   17.3850000000000         6.127389630605198E-104
   17.5750000000000        -1.624087525201000E-103
   17.7650000000000        -8.148110219440572E-103
   17.9550000000000        -2.428038253518962E-102
   18.1450000000000        -6.061730012245566E-102
   18.3350000000000        -1.372061188905679E-101
   18.5250000000000        -2.900780226772756E-101
   18.7150000000000        -5.807364326569529E-101
   18.9050000000000        -1.108894821447566E-100
   19.0950000000000        -2.028224072267651E-100
   19.2850000000000        -3.564223422222203E-100
   19.4750000000000        -6.032732472448208E-100
   19.6650000000000        -9.856907718530121E-100
   19.8550000000000        -1.557848141356090E-099
   20.0450000000000        -2.385238156435206E-099
   20.2350000000000        -3.539554858724140E-099
   20.4250000000000        -5.082063034095011E-099
   20.6150000000000        -7.021090565770060E-099
   20.8050000000000        -9.217498257140613E-099
   20.9950000000000        -1.119599006170340E-098
   21.1850000000000        -1.180192139864587E-098
   21.3750000000000        -8.626977945381382E-099
   21.5650000000000         2.882005424063489E-099
   21.7550000000000         3.071530532909988E-098
   21.9450000000000         8.806917001383966E-098
   22.1350000000000         1.956672737265593E-097
   22.3250000000000         3.847543501739685E-097
   22.5150000000000         7.010188461638155E-097
   22.7050000000000         1.209987392004468E-096
   22.8950000000000         2.004898356215295E-096
   23.0850000000000         3.218656029878219E-096
   23.2750000000000         5.041983862934641E-096
   23.4650000000000         7.749867473526904E-096
   23.6550000000000         1.173697745779784E-095
   23.8450000000000         1.755874488915999E-095
   24.0350000000000         2.596653934185633E-095
   24.2250000000000         3.791131423523336E-095
   24.4150000000000         5.446895811409884E-095
   24.6050000000000         7.661246974514017E-095
   24.7950000000000         1.047229228929064E-094
   24.9850000000000         1.376969894182945E-094
   25.1750000000000         1.714783278563659E-094
   25.3650000000000         1.968156729338381E-094
   25.5550000000000         1.960259491151448E-094
   25.7450000000000         1.384943913418749E-094
   25.9350000000000        -2.546864393275161E-095
   26.1250000000000        -3.730396117581274E-094
   26.3150000000000        -1.020640858018975E-093
   26.5050000000000        -2.140827701144877E-093
   26.6950000000000        -3.986961986923597E-093
   26.8850000000000        -6.929057927314573E-093
   27.0750000000000        -1.150399786462839E-092
   27.2650000000000        -1.848078740253925E-092
   27.4550000000000        -2.893438032379455E-092
   27.6450000000000        -4.430670313442004E-092
   27.8350000000000        -6.640712428964398E-092
   28.0250000000000        -9.726334873640753E-092
   28.2150000000000        -1.386762721680921E-091
   28.4050000000000        -1.912623544923301E-091
   28.5950000000000        -2.526971980327933E-091
   28.7850000000000        -3.148307572494617E-091
   28.9750000000000        -3.593733431700669E-091
   29.1650000000000        -3.520200368618299E-091
   29.3550000000000        -2.352787998188853E-091
   29.5450000000000         7.900230706080441E-092
   29.7350000000000         7.152536611986406E-091
   29.9250000000000         1.834148635415617E-090
   30.1150000000000         3.621026392315258E-090
   30.3050000000000         6.254565754642461E-090
   30.4950000000000         9.845422789375241E-090
   30.6850000000000         1.433352090396820E-089
   30.8750000000000         1.933394389497263E-089
   31.0650000000000         2.392657759912799E-089
   31.2550000000000         2.639574386588222E-089
   31.4450000000000         2.394510490305677E-089
   31.6350000000000         1.244171285986765E-089
   31.8250000000000        -1.371826984133983E-089
   32.0150000000000        -6.148258723554495E-089
   32.2050000000000        -1.385645502891031E-088
   32.3950000000000        -2.521789418144052E-088
   32.5850000000000        -4.068350855669944E-088
   32.7750000000000        -6.009508025175324E-088
   32.9650000000000        -8.221431551790669E-088
   33.1550000000000        -1.041247316650072E-087
   33.3450000000000        -1.205445128574652E-087
   33.5350000000000        -1.231373864334216E-087
   33.7250000000000        -9.997391789896106E-088
   33.9150000000000        -3.537480852898822E-088
   34.1050000000000         8.954661642319811E-088
   34.2950000000000         2.952474225190103E-087
   34.4850000000000         6.005794425753953E-087
   34.6750000000000         1.017641688459697E-086
   34.8650000000000         1.544336188257603E-086
   35.0550000000000         2.154552608192285E-086
   35.2450000000000         2.786341034168576E-086
   35.4350000000000         3.329083381031460E-086
   35.6250000000000         3.611552243084748E-086
   35.8150000000000         3.393822177673763E-086
   36.0050000000000         2.367184218526721E-086
   36.1950000000000         1.673436675425081E-087
   36.3850000000000        -3.593005404678814E-086
   36.5750000000000        -9.265995928824884E-086
   36.7650000000000        -1.707954020230579E-085
   36.9550000000000        -2.701475962438439E-085
   37.1450000000000        -3.865192069435306E-085
   37.3350000000000        -5.099404252742954E-085
   37.5250000000000        -6.228701161638945E-085
   37.7150000000000        -6.986688559778237E-085
   37.9050000000000        -7.007809799018160E-085
   38.0950000000000        -5.831869696479132E-085
   38.2850000000000        -2.927786495935076E-085
   38.4750000000000         2.256680780032921E-085
   38.6650000000000         1.021337293838755E-084
   38.8550000000000         2.125692995113039E-084
   39.0450000000000         3.537372815624155E-084
   39.2350000000000         5.204407892648759E-084
   39.4250000000000         7.005382292111290E-084
   39.6150000000000         8.732158671776218E-084
   39.8050000000000         1.007784888677429E-083
   39.9950000000000         1.063461753735080E-083
   40.1850000000000         9.906423873226724E-084
   40.3750000000000         7.341631020151892E-084
   40.5650000000000         2.389220661889464E-084
   40.7550000000000        -5.420135619784185E-084
   40.9450000000000        -1.637084201631560E-083
   41.1350000000000        -3.044501883420207E-083
   41.3250000000000        -4.720540861982121E-083
   41.5150000000000        -6.569948006947179E-083
   41.7050000000000        -8.441106884847947E-083
   41.8950000000000        -1.012883486714678E-082
   42.0850000000000        -1.138742174625683E-082
   42.2750000000000        -1.195549619171965E-082
   42.4650000000000        -1.159232614903965E-082
   42.6550000000000        -1.012210297781175E-082
   42.8450000000000        -7.478674351261593E-083
   43.0350000000000        -3.738377676373538E-083
   43.2250000000000         8.762784964175060E-084
   43.4150000000000         6.043291900587394E-083
   43.6050000000000         1.146094501868371E-082
   43.7950000000000         1.706069028303047E-082
   43.9850000000000         2.332404183326180E-082
   44.1750000000000         3.169681555505657E-082
   44.3650000000000         4.506637488225638E-082
   44.5550000000000         6.822899421320893E-082
   44.7450000000000         1.082258923342739E-081
   44.9350000000000         1.743710553031104E-081
   45.1250000000000         2.777377909495476E-081
   45.3150000000000         4.298237239391764E-081
   45.5050000000000         6.400892054337753E-081
   45.6950000000000         9.120791818840282E-081
   45.8850000000000         1.237913814594387E-080
   46.0750000000000         1.591090596482486E-080
   46.2650000000000         1.917801841326309E-080
   46.4550000000000         2.127354022210948E-080
   46.6450000000000         2.082789649869824E-080
   46.8350000000000         1.593455847129996E-080
   47.0250000000000         4.120160010998971E-081
   47.2150000000000        -1.760783097068342E-080
   47.4050000000000        -5.259472752632978E-080
   47.5950000000000        -1.042056094654729E-079
   47.7850000000000        -1.752739023882287E-079
   47.9750000000000        -2.672809623238543E-079
   48.1650000000000        -3.792250793358518E-079
   48.3550000000000        -5.061585200148790E-079
   48.5450000000000        -6.374066424342553E-079
   48.7350000000000        -7.545382071956476E-079
   48.9250000000000        -8.292353875474187E-079
   49.1150000000000        -8.213197978439872E-079
   49.3050000000000        -6.773297792837832E-079
   49.4950000000000        -3.302138350663123E-079
   49.6850000000000         2.991001233601009E-079
   49.8750000000000         1.297293963484728E-078
   50.0650000000000         2.750249336715833E-078
   50.2550000000000         4.729344598045091E-078
   50.4450000000000         7.271145072780145E-078
   50.6350000000000         1.034935380197399E-077
   50.8250000000000         1.383837812777215E-077
   51.0150000000000         1.746879057097225E-077
   51.2050000000000         2.077645847360418E-077
   51.3950000000000         2.304931661092846E-077
   51.5850000000000         2.327875492583516E-077
   51.7750000000000         2.012640617580257E-077
   51.9650000000000         1.192162900004109E-077
   52.1550000000000        -3.290125637766019E-078
   52.3450000000000        -2.762319197826794E-077
   52.5350000000000        -6.312339494565788E-077
   52.7250000000000        -1.114060974472527E-076
   52.9150000000000        -1.731342544080699E-076
   53.1050000000000        -2.473196301278746E-076
   53.2950000000000        -3.304485230181025E-076
   53.4850000000000        -4.154625575937078E-076
   53.6750000000000        -4.906672491894974E-076
   53.8650000000000        -5.386970158788498E-076
   54.0550000000000        -5.357342459571692E-076
   54.2450000000000        -4.512584344116887E-076
   54.4350000000000        -2.486821961770487E-076
   54.6250000000000         1.126974272550691E-076
   54.8150000000000         6.739582783004546E-076
   55.0050000000000         1.470551335831875E-075
   55.1950000000000         2.523643776525239E-075
   55.3850000000000         3.828595735215059E-075
   55.5750000000000         5.340678879360107E-075
   55.7650000000000         6.958626825472728E-075
   55.9550000000000         8.507267880383321E-075
   56.1450000000000         9.721326657998945E-075
   56.3350000000000         1.023346152969975E-074
   56.5250000000000         9.570659768142390E-075
   56.7150000000000         7.164123539470212E-075
   56.9050000000000         2.378573839311926E-075
   57.0950000000000        -5.432756180610392E-075
   57.2850000000000        -1.684155858483912E-074
   57.4750000000000        -3.222189197238484E-074
   57.6650000000000        -5.159005220858507E-074
   57.8550000000000        -7.440985529521981E-074
   58.0450000000000        -9.937279201811215E-074
   58.2350000000000        -1.241709578639461E-073
   58.4250000000000        -1.452908635254360E-073
   58.6150000000000        -1.578676306811691E-073
   58.8050000000000        -1.556506717598470E-073
   58.9950000000000        -1.311422239207027E-073
   59.1850000000000        -7.597699144543984E-074
   59.3750000000000         1.838793888001916E-074
   59.5650000000000         1.596118035120468E-073
   59.7550000000000         3.529965968756162E-073
   59.9450000000000         5.995957432687483E-073
   60.1350000000000         8.939524986353399E-073
   60.3250000000000         1.221587298153106E-072
   60.5150000000000         1.556442927045369E-072
   60.7050000000000         1.858600471403085E-072
   60.8950000000000         2.072690526342193E-072
   61.0850000000000         2.127532068561021E-072
   61.2750000000000         1.937620328831001E-072
   61.4650000000000         1.407135247096700E-072
   61.6550000000000         4.371304124725417E-073
   61.8450000000000        -1.063536584468566E-072
   62.0350000000000        -3.163182923076923E-072
   62.2250000000000        -5.888184779452747E-072
   62.4150000000000        -9.200257971665533E-072
   62.6050000000000        -1.297127201183165E-071
   62.7950000000000        -1.695751773064607E-071
   62.9850000000000        -2.077623332830571E-071
   63.1750000000000        -2.388811919270975E-071
   63.3650000000000        -2.559045032923058E-071
   63.5550000000000        -2.502611236639749E-071
   63.7450000000000        -2.121430539719562E-071
   63.9350000000000        -1.310862604367912E-071
   64.1250000000000         3.124063915304576E-073
   64.3150000000000         1.991871871142051E-071
   64.5050000000000         4.626457676050940E-071
   64.6950000000000         7.938889094219790E-071
   64.8850000000000         1.185860788081707E-070
   65.0750000000000         1.621588432453575E-070
   65.2650000000000         2.071702864107749E-070
   65.4550000000000         2.492195087718495E-070
   65.6450000000000         2.822719974006278E-070
   65.8350000000000         2.985833936579367E-070
   66.0250000000000         2.887623052375364E-070
   66.2150000000000         2.420242893823887E-070
   66.4050000000000         1.466944803286644E-070
   66.5950000000000        -8.980124848193015E-072
   66.7850000000000        -2.356469924511296E-070
   66.9750000000000        -5.412349315059636E-070
   67.1650000000000        -9.288638888820751E-070
   67.3550000000000        -1.394250658092686E-069
   67.5450000000000        -1.922619169557772E-069
   67.7350000000000        -2.485181044517253E-069
   67.9250000000000        -3.035338113086545E-069
   68.1150000000000        -3.504882037881858E-069
   68.3050000000000        -3.800634976545309E-069
   68.4950000000000        -3.802194676041973E-069
   68.6850000000000        -3.361717058794205E-069
   68.8750000000000        -2.306978719229963E-069
   69.0650000000000        -4.492849424404766E-070
   69.2550000000000         2.401921215302920E-069
   69.4450000000000         6.415710685434991E-069
   69.6350000000000         1.170557320474899E-068
   69.8250000000000         1.828294882389783E-068
   70.0150000000000         2.599765915416330E-068
   70.2050000000000         3.446611246081850E-068
   70.3950000000000         4.299063716548348E-068
   70.5850000000000         5.047679427845955E-068
   70.7750000000000         5.536007485862522E-068
   70.9650000000000         5.555889115876205E-068
   71.1550000000000         4.847687408464596E-068
   71.3450000000000         3.108353553623858E-068
   71.5350000000000         1.072945671432217E-070
   71.7250000000000        -4.762278525002285E-068
   71.9150000000000        -1.146523732803134E-067
   72.1050000000000        -2.021691907632360E-067
   72.2950000000000        -3.090554354005647E-067
   72.4850000000000        -4.307485612166797E-067
   72.6750000000000        -5.579773516064666E-067
   72.8650000000000        -6.754981920003836E-067
   73.0550000000000        -7.610274250737236E-067
   73.2450000000000        -7.846455565951920E-067
   73.4350000000000        -7.090300519062926E-067
   73.6250000000000        -4.909432004692497E-067
   73.8150000000000        -8.444274147434268E-068
   74.0050000000000         5.537265328438701E-067
   74.1950000000000         1.456188287037624E-066
   74.3850000000000         2.634256569655911E-066
   74.5750000000000         4.064666174605565E-066
   74.7650000000000         5.674327799890311E-066
   74.9550000000000         7.324357465687148E-066
   75.1450000000000         8.795407687451498E-066
   75.3350000000000         9.777207379989644E-066
   75.5250000000000         9.866116632242789E-066
   75.7150000000000         8.575294236202783E-066
   75.9050000000000         5.362584071279444E-066
   76.0950000000000        -3.187719561830685E-067
   76.2850000000000        -8.942251614073715E-066
   76.4750000000000        -2.080046502439559E-065
   76.6650000000000        -3.586843399036715E-065
   76.8550000000000        -5.364290964358149E-065
   77.0450000000000        -7.296905856865486E-065
   77.2350000000000        -9.187343145583455E-065
   77.4250000000000        -1.074307280010587E-064
   77.6150000000000        -1.157007267836860E-064
   77.8050000000000        -1.117796898071224E-064
   77.9950000000000        -9.001597405632815E-065
   78.1850000000000        -4.444047321690054E-065
   78.3750000000000         3.054345412659764E-065
   78.5650000000000         1.391811874895403E-064
   78.7550000000000         2.830966563378385E-064
   78.9450000000000         4.597683851151313E-064
   79.1350000000000         6.608434381202088E-064
   79.3250000000000         8.704477911669093E-064
   79.5150000000000         1.063727941798345E-063
   79.7050000000000         1.205937981616184E-063
   79.8950000000000         1.252459243554630E-063
   80.0850000000000         1.150192822245937E-063
   80.2750000000000         8.407822653684221E-064
   80.4650000000000         2.660855604338345E-064
   80.6550000000000        -6.237978038415101E-064
   80.8450000000000        -1.859846152339638E-063
   81.0350000000000        -3.440998172155245E-063
   81.2250000000000        -5.319245101528364E-063
   81.4150000000000        -7.384115811826944E-063
   81.6050000000000        -9.448357826769468E-063
   81.7950000000000        -1.123727382789601E-062
   81.9850000000000        -1.238479498056980E-062
   82.1750000000000        -1.243986146533671E-062
   82.3650000000000        -1.088691387814617E-062
   82.5550000000000        -7.184134140165857E-063
   82.7450000000000        -8.223596390265351E-064
   82.9350000000000         8.593815158395111E-063
   83.1250000000000         2.124345539138977E-062
   83.3150000000000         3.696901725470381E-062
   83.5050000000000         5.514612528929095E-062
   83.6950000000000         7.455575864820574E-062
   83.8850000000000         9.327624189029200E-062
   84.0750000000000         1.086173965839476E-061
   84.2650000000000         1.171234399119736E-061
   84.4550000000000         1.146738759042058E-061
   84.6450000000000         9.671172553477989E-062
   84.8350000000000         5.862490976039119E-062
   85.0250000000000        -3.701626000329647E-063
   85.2150000000000        -9.315928727001160E-062
   85.4050000000000        -2.105309701324649E-061
   85.5950000000000        -3.534905121643695E-061
   85.7850000000000        -5.155608729055087E-061
   85.9750000000000        -6.851413018006107E-061
   86.1650000000000        -8.447508134179653E-061
   86.3550000000000        -9.706695884174323E-061
   86.5450000000000        -1.033186221728711E-060
   86.7350000000000        -9.976707036330759E-061
   86.9250000000000        -8.266835109744895E-061
   87.1150000000000        -4.832928143471638E-061
   87.3050000000000         6.430230566552041E-062
   87.4950000000000         8.368599610304909E-061
   87.6850000000000         1.837071185739787E-060
   87.8750000000000         3.041800930309200E-060
   88.0650000000000         4.394208780637311E-060
   88.2550000000000         5.796622578715072E-060
   88.4450000000000         7.105297400957071E-060
   88.6350000000000         8.128422600791464E-060
   88.8250000000000         8.628903236751748E-060
   89.0150000000000         8.333494768811266E-060
   89.2050000000000         6.949762613903531E-060
   89.3950000000000         4.192021637175906E-060
   89.5850000000000        -1.831597240532736E-061
   89.7750000000000        -6.332163424351600E-060
   89.9650000000000        -1.427166475488726E-059
   90.1550000000000        -2.382098952588931E-059
   90.3450000000000        -3.454403945537767E-059
   90.5350000000000        -4.569715537683983E-059
   90.7250000000000        -5.619109106879129E-059
   90.9150000000000        -6.457685675006492E-059
   91.1050000000000        -6.906630264995503E-059
   91.2950000000000        -6.759864629328418E-059
   91.4850000000000        -5.796336968070293E-059
   91.6750000000000        -3.798768774412628E-059
   91.8650000000000        -5.792811658936494E-060
   92.0550000000000         3.988272997484582E-059
   92.2450000000000         9.930249276161274E-059
   92.4350000000000         1.713140597068924E-058
   92.6250000000000         2.529250377297847E-058
   92.8150000000000         3.389173192010257E-058
   93.0050000000000         4.215565246796972E-058
   93.1950000000000         4.904648700074361E-058
   93.3850000000000         5.327338957589640E-058
   93.5750000000000         5.333564823354598E-058
   93.7650000000000         4.760530536127682E-058
   93.9550000000000         3.445524985204859E-058
   94.1450000000000         1.243619506858795E-058
   94.3350000000000        -1.949805105650894E-058
   94.5250000000000        -6.172307524298824E-058
   94.7150000000000        -1.136470209518201E-057
   94.9050000000000        -1.734053873415458E-057
   95.0950000000000        -2.375772413288832E-057
   95.2850000000000        -3.009615230767980E-057
   95.4750000000000        -3.564601896898904E-057
   95.6650000000000        -3.951209774410743E-057
   95.8550000000000        -4.063951559851586E-057
   96.0450000000000        -3.786632319428009E-057
   96.2350000000000        -3.000725282817133E-057
   96.4250000000000        -1.597134369365814E-057
   96.6150000000000         5.086523748089560E-058
   96.8050000000000         3.358376284190802E-057
   96.9950000000000         6.930603821028362E-057
   97.1850000000000         1.111945846021427E-056
   97.3750000000000         1.571443408345805E-056
   97.5650000000000         2.038383520441682E-056
   97.7550000000000         2.466493624340354E-056
   97.9450000000000         2.796436772776787E-056
   98.1350000000000         2.957242935114430E-056
   98.3250000000000         2.869489668035276E-056
   98.5150000000000         2.450532683211820E-056
   98.7050000000000         1.621978466245253E-056
   98.8950000000000         3.194233504892124E-057
   99.0850000000000        -1.495746982819236E-056
   99.2750000000000        -3.822994482912643E-056
   99.4650000000000        -6.608540914594851E-056
   99.6550000000000        -9.731768468544031E-056
   99.8450000000000        -1.299370100324530E-055
   100.035000000000        -1.610950313373315E-055
   100.225000000000        -1.870719717220607E-055
   100.415000000000        -2.033492227473669E-055
   100.605000000000        -2.047898509441623E-055
   100.795000000000        -1.859461592810882E-055
   100.985000000000        -1.415069449053423E-055
   101.175000000000        -6.688705290338552E-056
   101.365000000000         4.105192078487439E-056
   101.555000000000         1.831782063748546E-055
   101.745000000000         3.572123707855864E-055
   101.935000000000         5.568664867113349E-055
   102.125000000000         7.710929540882962E-055
   102.315000000000         9.835562203948534E-055
   102.505000000000         1.172456148348764E-054
   102.695000000000         1.310839388950723E-054
   102.885000000000         1.367531473764214E-054
   103.075000000000         1.308804135961211E-054
   103.265000000000         1.100856704584857E-054
   103.455000000000         7.131352185661693E-055
   103.645000000000         1.224374021432454E-055
   103.835000000000        -6.823431599559308E-055
   104.025000000000        -1.695091163890459E-054
   104.215000000000        -2.887340609203832E-054
   104.405000000000        -4.203643812974435E-054
   104.595000000000        -5.558052020000226E-054
   104.785000000000        -6.832409510368023E-054
   104.975000000000        -7.877211056339227E-054
   105.165000000000        -8.515762991173994E-054
   105.355000000000        -8.552304132335618E-054
   105.545000000000        -7.784569476678892E-054
   105.735000000000        -6.021006124302997E-054
   105.925000000000        -3.102472734108482E-054
   106.115000000000         1.072225025841902E-054
   106.305000000000         6.518175381377838E-054
   106.495000000000         1.313541365363801E-053
   106.685000000000         2.068166531987681E-053
   106.875000000000         2.874986161324537E-053
   107.065000000000         3.675401173893466E-053
   107.255000000000         4.392733603377229E-053
   107.445000000000         4.933662000406144E-053
   107.635000000000         5.191645643500172E-053
   107.825000000000         5.052632527412552E-053
   108.015000000000         4.403225863655237E-053
   108.205000000000         3.141311728226122E-053
   108.395000000000         1.188926836423133E-053
   108.585000000000        -1.493124766580393E-053
   108.775000000000        -4.889703411227300E-053
   108.965000000000        -8.915936333563178E-053
   109.155000000000        -1.340343413217686E-052
   109.345000000000        -1.808985064706372E-052
   109.535000000000        -2.261373243422606E-052
   109.725000000000        -2.651671143849495E-052
   109.915000000000        -2.925505126432418E-052
   110.105000000000        -3.022232343940488E-052