  -1.42500000000000         0.000000000000000E+000
  -1.23500000000000         0.000000000000000E+000
  -1.04500000000000         0.000000000000000E+000
 -0.855000000000000         0.000000000000000E+000
 -0.665000000000000         0.000000000000000E+000
 -0.475000000000000         0.000000000000000E+000
 -0.285000000000000         0.000000000000000E+000
 -9.499999999999975E-002    0.000000000000000E+000
  9.500000000000020E-002    0.000000000000000E+000
  0.285000000000000         0.000000000000000E+000
  0.475000000000000         0.000000000000000E+000
  0.665000000000000         0.000000000000000E+000
  0.855000000000000         0.000000000000000E+000
   1.04500000000000         0.000000000000000E+000
   1.23500000000000         0.000000000000000E+000
   1.42500000000000         0.000000000000000E+000
   1.61500000000000         0.000000000000000E+000
   1.80500000000000         0.000000000000000E+000
   1.99500000000000         0.000000000000000E+000
   2.18500000000000         0.000000000000000E+000
   2.37500000000000         0.000000000000000E+000
   2.56500000000000         0.000000000000000E+000
   2.75500000000000         0.000000000000000E+000
   2.94500000000000         0.000000000000000E+000
   3.13500000000000         0.000000000000000E+000
   3.32500000000000         0.000000000000000E+000
   3.51500000000000         0.000000000000000E+000
   3.70500000000000         0.000000000000000E+000
   3.89500000000000         0.000000000000000E+000
   4.08500000000000         0.000000000000000E+000
   4.27500000000000         0.000000000000000E+000
   4.46500000000000         0.000000000000000E+000
   4.65500000000000         0.000000000000000E+000
   4.84500000000000         0.000000000000000E+000
   5.03500000000000         0.000000000000000E+000
   5.22500000000000         0.000000000000000E+000
   5.41500000000000         0.000000000000000E+000
   5.60500000000000         0.000000000000000E+000
   5.79500000000000         0.000000000000000E+000
   5.98500000000000         0.000000000000000E+000
   6.17500000000000         3.612109732155517E-178
   6.36500000000000        -1.198064858495137E-165
   6.55500000000000         7.027425513547217E-162
   6.74500000000000         3.641599919732098E-160
   6.93500000000000         1.166160533355608E-158
   7.12500000000000         3.121737791976534E-157
   7.31500000000000         7.264552585424948E-156
   7.50500000000000         1.474020198987664E-154
   7.69500000000000         2.665393073516795E-153
   7.88500000000000         4.153813917184910E-150
   8.07500000000000        -1.555976350016494E-147
   8.26500000000000        -9.966315858481299E-146
   8.45500000000000        -2.674922494941280E-144
   8.64500000000000        -3.883585216785671E-143
   8.83500000000000        -2.454488170460326E-142
   9.02500000000000         2.290328390122481E-141
   9.21500000000000         8.285778106805514E-140
   9.40500000000000         1.227841105378388E-138
   9.59500000000000         1.244230711939696E-137
   9.78500000000000         9.412147045237468E-137
   9.97500000000000         5.242905494270585E-136
   10.1650000000000         1.769842232730138E-135
   10.3550000000000        -2.428582702630890E-135
   10.5450000000000        -9.638446421349661E-134
   10.7350000000000        -9.381944633212530E-133
   10.9250000000000        -6.498344558827267E-132
   11.1150000000000        -3.668052763043295E-131
   11.3050000000000        -1.763714118483014E-130
   11.4950000000000        -7.331752863652980E-130
   11.6850000000000        -2.624068131091905E-129
   11.8750000000000        -7.841608325929897E-129
   12.0650000000000        -1.759605212458135E-128
   12.2550000000000        -1.502600630197312E-128
   12.4450000000000         1.204316012474442E-127
   12.6350000000000         9.445034792116940E-127
   12.8250000000000         4.537267744975235E-126
   13.0150000000000         1.762299284730300E-125
   13.2050000000000         5.937875461621239E-125
   13.3950000000000         1.781603713756658E-124
   13.5850000000000         4.800109830573628E-124
   13.7750000000000         1.156210918614922E-123
   13.9650000000000         2.433986482095787E-123
   14.1550000000000         4.171990310932338E-123
   14.3450000000000         4.216751784372132E-123
   14.5350000000000        -7.203427988172405E-123
   14.7250000000000        -6.565780837798484E-122
   14.9150000000000        -2.913961546984505E-121
   15.1050000000000        -1.081529162186414E-120
   15.2950000000000        -3.733105878421617E-120
   15.4850000000000        -1.240987915308438E-119
   15.6750000000000        -4.008844260364895E-119
   15.8650000000000        -1.255893702795556E-118
   16.0550000000000        -3.794527559434008E-118
   16.2450000000000        -1.099409099965731E-117
   16.4350000000000        -3.039757481231229E-117
   16.6250000000000        -7.985726201096827E-117
   16.8150000000000        -1.984122407772957E-116
   17.0050000000000        -4.633091346109767E-116
   17.1950000000000        -1.006439253588995E-115
   17.3850000000000        -1.995440814612589E-115
   17.5750000000000        -3.463141752820857E-115
   17.7650000000000        -4.658897535569394E-115
   17.9550000000000        -2.097952837064724E-115
   18.1450000000000         1.561848553584434E-114
   18.3350000000000         8.046033686702938E-114
   18.5250000000000         2.740127395855741E-113
   18.7150000000000         7.908091898612648E-113
   18.9050000000000         2.070556960909094E-112
   19.0950000000000         5.063749843779465E-112
   19.2850000000000         1.174663115622104E-111
   19.4750000000000         2.608630257271897E-111
   19.6650000000000         5.578934900022539E-111
   19.8550000000000         1.153603399271386E-110
   20.0450000000000         2.312491455761603E-110
   20.2350000000000         4.501379649172837E-110
   20.4250000000000         8.515815097498086E-110
   20.6150000000000         1.565966644918316E-109
   20.8050000000000         2.797506307034573E-109
   20.9950000000000         4.848684724067006E-109
   21.1850000000000         8.135604197191419E-109
   21.3750000000000         1.317086342761663E-108
   21.5650000000000         2.046963410263352E-108
   21.7550000000000         3.030454921630489E-108
   21.9450000000000         4.219968847034086E-108
   22.1350000000000         5.402893987708064E-108
   22.3250000000000         6.060984726222382E-108
   22.5150000000000         5.184899715088860E-108
   22.7050000000000         1.097225934750705E-108
   22.8950000000000        -8.552254707996621E-108
   23.0850000000000        -2.622856823607670E-107
   23.2750000000000        -5.257124032369674E-107
   23.4650000000000        -8.149040680002106E-107
   23.6550000000000        -8.943875359943115E-107
   23.8450000000000        -1.395747725287446E-107
   24.0350000000000         2.865016609125462E-106
   24.2250000000000         1.103929558797764E-105
   24.4150000000000         3.001773651342795E-105
   24.6050000000000         7.011689120558256E-105
   24.7950000000000         1.494069616487709E-104
   24.9850000000000         2.983145287617349E-104
   25.1750000000000         5.662258340714763E-104
   25.3650000000000         1.030503951170343E-103
   25.5550000000000         1.808075615349888E-103
   25.7450000000000         3.069117143560474E-103
   25.9350000000000         5.051113875708190E-103
   26.1250000000000         8.069294559014156E-103
   26.3150000000000         1.251558711018181E-102
   26.5050000000000         1.883201470921378E-102
   26.6950000000000         2.743478010372902E-102
   26.8850000000000         3.855077305710374E-102
   27.0750000000000         5.190713395958129E-102
   27.2650000000000         6.618475314404498E-102
   27.4550000000000         7.810593994912490E-102
   27.6450000000000         8.097285997627874E-102
   27.8350000000000         6.240538081549529E-102
   28.0250000000000         9.452242048172896E-104
   28.2150000000000        -1.388979492664655E-101
   28.4050000000000        -4.136727851957555E-101
   28.5950000000000        -9.106654949749008E-101
   28.7850000000000        -1.760815857225052E-100
   28.9750000000000        -3.155326142597240E-100
   29.1650000000000        -5.366053660401534E-100
   29.3550000000000        -8.769010216148037E-100
   29.5450000000000        -1.386888215706207E-099
   29.7350000000000        -2.132009545880678E-099
   29.9250000000000        -3.193612920817034E-099
   30.1150000000000        -4.667295394267796E-099
   30.3050000000000        -6.656395951817519E-099
   30.4950000000000        -9.257181371067193E-099
   30.6850000000000        -1.253067048645898E-098
   30.8750000000000        -1.645400040647485E-098
   31.0650000000000        -2.084177891421608E-098
   31.2550000000000        -2.522512545205800E-098
   31.4450000000000        -2.867338598986050E-098
   31.6350000000000        -2.954137016824925E-098
   31.8250000000000        -2.512428963936151E-098
   32.0150000000000        -1.120467372521039E-098
   32.2050000000000         1.851782603320086E-098
   32.3950000000000         7.310939351266442E-098
   32.5850000000000         1.651704666719880E-097
   32.7750000000000         3.116268077710584E-097
   32.9650000000000         5.344291823712286E-097
   33.1550000000000         8.609776042666998E-097
   33.3450000000000         1.323994671389113E-096
   33.5350000000000         1.960457513426544E-096
   33.7250000000000         2.809057612169166E-096
   33.9150000000000         3.905490634646786E-096
   34.1050000000000         5.274682223148056E-096
   34.2950000000000         6.918826830696318E-096
   34.4850000000000         8.799850000831229E-096
   34.6750000000000         1.081459473511111E-095
   34.8650000000000         1.276067975272306E-095
   35.0550000000000         1.429059858208494E-095
   35.2450000000000         1.485127973153132E-095
   35.4350000000000         1.360614112924241E-095
   35.6250000000000         9.336906565739857E-096
   35.8150000000000         3.235671817917960E-097
   36.0050000000000        -1.579639139832593E-095
   36.1950000000000        -4.218291062917329E-095
   36.3850000000000        -8.294612940900518E-095
   36.5750000000000        -1.432648220925949E-094
   36.7650000000000        -2.294141170303480E-094
   36.9550000000000        -3.486115539298125E-094
   37.1450000000000        -5.085444275457359E-094
   37.3350000000000        -7.163843844234373E-094
   37.5250000000000        -9.770314931769045E-094
   37.7150000000000        -1.290268967484260E-093
   37.9050000000000        -1.646468435785665E-093
   38.0950000000000        -2.020490883785583E-093
   38.2850000000000        -2.363518045504136E-093
   38.4750000000000        -2.592771930466931E-093
   38.6650000000000        -2.579493087048540E-093
   38.8550000000000        -2.136208376593680E-093
   39.0450000000000        -1.005271069334326E-093
   39.2350000000000         1.148088258950672E-093
   39.4250000000000         4.733450758023278E-093
   39.6150000000000         1.021726527818371E-092
   39.8050000000000         1.808143320276005E-092
   39.9950000000000         2.874970913216423E-092
   40.1850000000000         4.247352597020403E-092
   40.3750000000000         5.917113532409272E-092
   40.5650000000000         7.821905290207760E-092
   40.7550000000000         9.820352397059269E-092
   40.9450000000000         1.166526172134196E-091
   41.1350000000000         1.297865712757668E-091
   41.3250000000000         1.323441241761424E-091
   41.5150000000000         1.175632869520694E-091
   41.7050000000000         7.741207394589151E-092
   41.8950000000000         3.171681593466506E-093
   42.0850000000000        -1.135368646951212E-091
   42.2750000000000        -2.792312064839375E-091
   42.4650000000000        -4.965772547833702E-091
   42.6550000000000        -7.620778701845842E-091
   42.8450000000000        -1.063755932255536E-090
   43.0350000000000        -1.379349540113846E-090
   43.2250000000000        -1.675748141137119E-090
   43.4150000000000        -1.910570309465648E-090
   43.6050000000000        -2.036844239058066E-090
   43.7950000000000        -2.011603929213349E-090
   43.9850000000000        -1.808742875700704E-090
   44.1750000000000        -1.435556185964767E-090
   44.3650000000000        -9.509604674387061E-091
   44.5550000000000        -4.813847318409958E-091
   44.7450000000000        -2.278728559514681E-091
   44.9350000000000        -4.553128836587780E-091
   45.1250000000000        -1.452445959595502E-090
   45.3150000000000        -3.450245544673821E-090
   45.5050000000000        -6.487550314823667E-090
   45.6950000000000        -1.021790254374645E-089
   45.8850000000000        -1.366192486800797E-089
   46.0750000000000        -1.492663237365431E-089
   46.2650000000000        -1.093758483628200E-089
   46.4550000000000         2.738721911875884E-090
   46.6450000000000         3.186877152145870E-089
   46.8350000000000         8.317338525710832E-089
   47.0250000000000         1.634216094433114E-088
   47.2150000000000         2.778181858202226E-088
   47.4050000000000         4.275400497360684E-088
   47.5950000000000         6.063691137296578E-088
   47.7850000000000         7.965368645667908E-088
   47.9750000000000         9.641558200173236E-088
   48.1650000000000         1.054967974948376E-087
   48.3550000000000         9.915767957529318E-088
   48.5450000000000         6.738050218236498E-088
   48.7350000000000        -1.574375956705433E-089
   48.9250000000000        -1.198569793191289E-087
   49.1150000000000        -2.977320180787002E-087
   49.3050000000000        -5.401308813976549E-087
   49.4950000000000        -8.420213048079804E-087
   49.6850000000000        -1.182801594326889E-086
   49.8750000000000        -1.520275676328281E-086
   50.0650000000000        -1.785225259029062E-086
   50.2550000000000        -1.878138798548581E-086
   50.4450000000000        -1.670220463985992E-086
   50.6350000000000        -1.011276772429267E-086
   50.8250000000000         2.526970917056982E-087
   51.0150000000000         2.249647062709221E-086
   51.2050000000000         5.037672015794651E-086
   51.3950000000000         8.547605322490412E-086
   51.5850000000000         1.251536602952563E-085
   51.7750000000000         1.641188798042442E-085
   51.9650000000000         1.938403818406860E-085
   52.1550000000000         2.022631379019153E-085
   52.3450000000000         1.740941003158258E-085
   52.5350000000000         9.196605351135314E-086
   52.7250000000000        -6.119625727207818E-086
   52.9150000000000        -2.983274454104139E-085
   53.1050000000000        -6.227401834633606E-085
   53.2950000000000        -1.021105356986709E-084
   53.4850000000000        -1.455367192780532E-084
   53.6750000000000        -1.854588736756551E-084
   53.8650000000000        -2.108370024867552E-084
   54.0550000000000        -2.064200444539472E-084
   54.2450000000000        -1.531798722222211E-084
   54.4350000000000        -2.980047917172833E-085
   54.6250000000000         1.844092927975444E-084
   54.8150000000000         5.048642711903210E-084
   55.0050000000000         9.351443182414098E-084
   55.1950000000000         1.458628012266960E-083
   55.3850000000000         2.028827269733629E-083
   55.5750000000000         2.559487223659205E-083
   55.7650000000000         2.916198779639456E-083
   55.9550000000000         2.912028347811066E-083
   56.1450000000000         2.310403534901102E-083
   56.3350000000000         8.390591302311805E-084
   56.5250000000000        -1.780950621486101E-083
   56.7150000000000        -5.787565261979229E-083
   56.9050000000000        -1.130900140534930E-082
   57.0950000000000        -1.827399936397537E-082
   57.2850000000000        -2.630464923491882E-082
   57.4750000000000        -3.460036299897578E-082
   57.6650000000000        -4.182769710418119E-082
   57.8550000000000        -4.603765315591218E-082
   58.0450000000000        -4.463907283447282E-082
   58.2350000000000        -3.446273230148799E-082
   58.4250000000000        -1.195433941396372E-082
   58.6150000000000         2.646579645584106E-082
   58.8050000000000         8.384485743105915E-082
   58.9950000000000         1.619234040602205E-081
   59.1850000000000         2.601492903284787E-081
   59.3750000000000         3.745151571806240E-081
   59.5650000000000         4.962949883930679E-081
   59.7550000000000         6.108020570892232E-081
   59.9450000000000         6.963413752301000E-081
   60.1350000000000         7.235804051765864E-081
   60.3250000000000         6.556075281851679E-081
   60.5150000000000         4.489837532215452E-081
   60.7050000000000         5.611524599626681E-082
   60.8950000000000        -5.707203293545452E-081
   61.0850000000000        -1.473373132484537E-080
   61.2750000000000        -2.679556164448623E-080
   61.4650000000000        -4.192075774457240E-080
   61.6550000000000        -5.975392075798010E-080
   61.8450000000000        -7.939458876054948E-080
   62.0350000000000        -9.920981324356134E-080
   62.2250000000000        -1.166254928181086E-079
   62.4150000000000        -1.279064470118724E-079
   62.6050000000000        -1.279440505917032E-079
   62.7950000000000        -1.100840258874662E-079
   62.9850000000000        -6.604728651913763E-080
   63.1750000000000         1.397519888783975E-080
   63.3650000000000         1.409363964647286E-079
   63.5550000000000         3.260962463684752E-079
   63.7450000000000         5.795293469229135E-079
   63.9350000000000         9.077353207482918E-079
   64.1250000000000         1.310094041204558E-078
   64.3150000000000         1.773935085449709E-078
   64.5050000000000         2.268089279434228E-078
   64.6950000000000         2.734994059592825E-078
   64.8850000000000         3.081770248712832E-078
   65.0750000000000         3.171209032718593E-078
   65.2650000000000         2.814325034242744E-078
   65.4550000000000         1.767039219089897E-078
   65.6450000000000        -2.653936911790039E-079
   65.8350000000000        -3.611513890923602E-078
   66.0250000000000        -8.598713921854809E-078
   66.2150000000000        -1.549411495920434E-077
   66.4050000000000        -2.441550955409156E-077
   66.5950000000000        -3.520831041318863E-077
   66.7850000000000        -4.728803566365848E-077
   66.9750000000000        -5.945392397795047E-077
   67.1650000000000        -6.968828884514385E-077
   67.3550000000000        -7.496843243434668E-077
   67.5450000000000        -7.113315679842550E-077
   67.7350000000000        -5.286328104922350E-077
   67.9250000000000        -1.385332797907050E-077
   68.1150000000000         5.273324724237883E-077
   68.3050000000000         1.534245233525654E-076
   68.4950000000000         2.931196136843689E-076
   68.6850000000000         4.732140577998956E-076
   68.8750000000000         6.891486055317417E-076
   69.0650000000000         9.274443121118971E-076
   69.2550000000000         1.162413281966913E-075
   69.4450000000000         1.352904749197348E-075
   69.6350000000000         1.439657683182161E-075
   69.8250000000000         1.344072429428231E-075
   70.0150000000000         9.694621344711701E-076
   70.2050000000000         2.060625497444752E-076
   70.3950000000000        -1.058787508319409E-075
   70.5850000000000        -2.923903995552882E-075
   70.7750000000000        -5.449824639233762E-075
   70.9650000000000        -8.626153848522026E-075
   71.1550000000000        -1.233118288354899E-074
   71.3450000000000        -1.628582055026086E-074
   71.5350000000000        -2.000595781238625E-074
   71.7250000000000        -2.276000373503902E-074
   71.9150000000000        -2.354134842641896E-074
   72.1050000000000        -2.106867772191593E-074
   72.2950000000000        -1.382996677898521E-074
   72.4850000000000        -1.880098054684068E-076
   72.6750000000000         2.143430092296506E-074
   72.8650000000000         5.227303102306733E-074
   73.0550000000000         9.283673057685064E-074
   73.2450000000000         1.424154891428407E-073
   73.4350000000000         1.985033393589847E-073
   73.6250000000000         2.561750248743607E-073
   73.8150000000000         3.074877014858103E-073
   74.0050000000000         3.410129608872557E-073
   74.1950000000000         3.416421759298454E-073
   74.3850000000000         2.908443381775122E-073
   74.5750000000000         1.675840342080838E-073
   74.7650000000000        -4.988042939445363E-074
   74.9550000000000        -3.811129293654806E-073
   75.1450000000000        -8.393763222085006E-073
   75.3350000000000        -1.426220646557136E-072
   75.5250000000000        -2.124899220416373E-072
   75.7150000000000        -2.892965437774168E-072
   75.9050000000000        -3.654711444248261E-072
   76.0950000000000        -4.294482228124137E-072
   76.2850000000000        -4.652313272445486E-072
   76.4750000000000        -4.523757595157311E-072
   76.6650000000000        -3.666128964915661E-072
   76.8550000000000        -1.813610186082711E-072
   77.0450000000000         1.296345198211347E-072
   77.2350000000000         5.883273890008941E-072
   77.4250000000000         1.206946083127948E-071
   77.6150000000000         1.981152440178547E-071
   77.8050000000000         2.882036946587358E-071
   77.9950000000000         3.847501642143655E-071
   78.1850000000000         4.773949367950065E-071
   78.3750000000000         5.509620192359527E-071
   78.5650000000000         5.851358872865630E-071
   78.7550000000000         5.547008467747826E-071
   78.9450000000000         4.305930494651919E-071
   79.1350000000000         1.820255665670619E-071
   79.3250000000000        -2.200742834432295E-071
   79.5150000000000        -7.981414510879588E-071
   79.7050000000000        -1.561511405339619E-070
   79.8950000000000        -2.498556786065873E-070
   80.0850000000000        -3.567821090818966E-070
   80.2750000000000        -4.688882131578842E-070
   80.4650000000000        -5.734072675892400E-070
   80.6550000000000        -6.522615450514631E-070
   80.8450000000000        -6.819152071011670E-070
   81.0350000000000        -6.338998901158018E-070
   81.2250000000000        -4.762666184252632E-070
   81.4150000000000        -1.762131258244734E-070
   81.6050000000000         2.959048798428024E-070
   81.7950000000000         9.610579077311588E-070
   81.9850000000000         1.824547315621629E-069
   82.1750000000000         2.867765838283299E-069
   82.3650000000000         4.039226660803295E-069
   82.5550000000000         5.245711333604393E-069
   82.7450000000000         6.344767730157700E-069
   82.9350000000000         7.140182625291646E-069
   83.1250000000000         7.382412934414525E-069
   83.3150000000000         6.776222357840804E-069
   83.5050000000000         4.997857757798758E-069
   83.6950000000000         1.723921567527392E-069
   83.8850000000000        -3.326443270763668E-069
   84.0750000000000        -1.033543274488263E-068
   84.2650000000000        -1.931742319531501E-068
   84.4550000000000        -3.003975849086907E-068
   84.6450000000000        -4.193910064709624E-068
   84.8350000000000        -5.404204778467285E-068
   85.0250000000000        -6.490206723155688E-068
   85.2150000000000        -7.256808159844682E-068
   85.4050000000000        -7.460284251683986E-068
   85.5950000000000        -6.817096418840861E-068
   85.7850000000000        -5.021649062906673E-068
   85.9750000000000        -1.774738758102181E-068
   86.1650000000000         3.176137703859378E-068
   86.3550000000000         9.984415292013065E-068
   86.5450000000000         1.864123815796057E-067
   86.7350000000000         2.890445108251568E-067
   86.9250000000000         4.022515957836766E-067
   87.1150000000000         5.167982324041851E-067
   87.3050000000000         6.191860157949778E-067
   87.4950000000000         6.914329983864221E-067
   87.6850000000000         7.113039577822818E-067
   87.8750000000000         6.531580502587432E-067
   88.0650000000000         4.895772241848995E-067
   88.2550000000000         1.939147329809695E-067
   88.4450000000000        -2.561476227004558E-067
   88.6350000000000        -8.740274177230677E-067
   88.8250000000000        -1.658766485340889E-066
   89.0150000000000        -2.588918780613060E-066
   89.2050000000000        -3.616254962184521E-066
   89.3950000000000        -4.659950823132684E-066
   89.5850000000000        -5.602151832271972E-066
   89.7750000000000        -6.286021939021840E-066
   89.9650000000000        -6.517562914130966E-066
   90.1550000000000        -6.072594849754452E-066
   90.3450000000000        -4.710276507126453E-066
   90.5350000000000        -2.194368956270600E-066
   90.7250000000000         1.676940805457528E-066
   90.9150000000000         7.032482430806590E-066
   91.1050000000000         1.388157073600910E-065
   91.2950000000000         2.206150083615583E-065
   91.4850000000000         3.118260837050212E-065
   91.6750000000000         4.057621987397772E-065
   91.8650000000000         4.925275768970779E-065
   92.0550000000000         5.587920200369856E-065
   92.2450000000000         5.878683014130002E-065
   92.4350000000000         5.602136126489857E-065
   92.6250000000000         4.544797675727264E-065
   92.8150000000000         2.492274970079798E-065
   93.0050000000000        -7.460647537628530E-066
   93.1950000000000        -5.304492924035200E-065
   93.3850000000000        -1.122072621994319E-064
   93.5750000000000        -1.838950656798808E-064
   93.7650000000000        -2.651263945046351E-064
   93.9550000000000        -3.504976444644595E-064
   94.1450000000000        -4.317592555082873E-064
   94.3350000000000        -4.975388897151368E-064
   94.5250000000000        -5.333094121428074E-064
   94.7150000000000        -5.217133772094935E-064
   94.9050000000000        -4.433633602428830E-064
   95.0950000000000        -2.782344305140561E-064
   95.2850000000000        -7.746875807268757E-066
   95.4750000000000         3.824007217059940E-064
   95.6650000000000         8.986502223576643E-064
   95.8550000000000         1.535346679036204E-063
   96.0450000000000         2.270056863513468E-063
   96.2350000000000         3.058803376355213E-063
   96.4250000000000         3.831745663660324E-063
   96.6150000000000         4.490024065131868E-063
   96.8050000000000         4.904664617439677E-063
   96.9950000000000         4.918597095544301E-063
   97.1850000000000         4.352935560361027E-063
   97.3750000000000         3.018671317635282E-063
   97.5650000000000         7.347890095601800E-064
   97.7550000000000        -2.646508647860972E-063
   97.9450000000000        -7.207337302942031E-063
   98.1350000000000        -1.292511936361239E-062
   98.3250000000000        -1.962882025250177E-062
   98.5150000000000        -2.695360925688813E-062
   98.7050000000000        -3.429873168662449E-062
   98.8950000000000        -4.079512216349286E-062
   99.0850000000000        -4.529100948071698E-062
   99.2750000000000        -4.636523916766287E-062
   99.4650000000000        -4.237897950312076E-062
   99.6550000000000        -3.157652619184198E-062
   99.8450000000000        -1.224467972169725E-062
   100.035000000000         1.706277995677323E-062
   100.225000000000         5.723404418775083E-062
   100.415000000000         1.082476214063042E-061
   100.605000000000         1.687760305734045E-061
   100.795000000000         2.357731971079567E-061
   100.985000000000         3.040882613389353E-061
   101.175000000000         3.661639080060985E-061
   101.365000000000         4.118923353755349E-061
   101.555000000000         4.287146019416174E-061
   101.745000000000         4.020567469329430E-061
   101.935000000000         3.161957122123625E-061
   102.125000000000         1.556363022030897E-061
   102.315000000000        -9.294624381886169E-062
   102.505000000000        -4.381881294625323E-061
   102.695000000000        -8.809982346627116E-061
   102.885000000000        -1.411139382624077E-060
   103.075000000000        -2.003675510217250E-060
   103.265000000000        -2.615650734001567E-060
   103.455000000000        -3.183493186462743E-060
   103.645000000000        -3.621757748261134E-060
   103.835000000000        -3.823920555498807E-060
   104.025000000000        -3.665993256280003E-060
   104.215000000000        -3.013711749247779E-060
   104.405000000000        -1.733945873846213E-060
   104.595000000000         2.892530822965829E-061
   104.785000000000         3.133923806922050E-060
   104.975000000000         6.815274521650153E-060
   105.165000000000         1.125775324216773E-059
   105.355000000000         1.626612947013694E-059
   105.545000000000         2.149855132279168E-059
   105.735000000000         2.644552244040406E-059
   105.925000000000         3.041966064033018E-059
   106.115000000000         3.256182279660445E-059
   106.305000000000         3.186954527707085E-059
   106.495000000000         2.725357084568198E-059
   106.685000000000         1.762731504702022E-059
   106.875000000000         2.032279625914961E-060
   107.065000000000        -2.020050752788450E-059
   107.255000000000        -4.925704811730736E-059
   107.445000000000        -8.462421393072422E-059
   107.635000000000        -1.248664474445572E-058
   107.825000000000        -1.674178839812019E-058
   108.015000000000        -2.084196186254009E-058
   108.205000000000        -2.426384308312476E-058
   108.395000000000        -2.635083253651438E-058
   108.585000000000        -2.633385782145203E-058
   108.775000000000        -2.337302755602626E-058
   108.965000000000        -1.662362394043114E-058
   109.155000000000        -5.328546849315530E-059
   109.345000000000         1.106282246513243E-058
   109.535000000000         3.275233649532486E-058
   109.725000000000         5.943414371247762E-058
   109.915000000000         9.013032414534091E-058
   110.105000000000         1.230372350164593E-057