  -1.42500000000000         0.000000000000000E+000
  -1.23500000000000         0.000000000000000E+000
  -1.04500000000000         0.000000000000000E+000
 -0.855000000000000         0.000000000000000E+000
 -0.665000000000000         0.000000000000000E+000
 -0.475000000000000         0.000000000000000E+000
 -0.285000000000000         0.000000000000000E+000
 -9.499999999999975E-002    0.000000000000000E+000
  9.500000000000020E-002    0.000000000000000E+000
  0.285000000000000         0.000000000000000E+000
  0.475000000000000         0.000000000000000E+000
  0.665000000000000         0.000000000000000E+000
  0.855000000000000         0.000000000000000E+000
   1.04500000000000         0.000000000000000E+000
   1.23500000000000         0.000000000000000E+000
   1.42500000000000         0.000000000000000E+000
   1.61500000000000         0.000000000000000E+000
   1.80500000000000         0.000000000000000E+000
   1.99500000000000         0.000000000000000E+000
   2.18500000000000         0.000000000000000E+000
   2.37500000000000         0.000000000000000E+000
   2.56500000000000         0.000000000000000E+000
   2.75500000000000         0.000000000000000E+000
   2.94500000000000         0.000000000000000E+000
   3.13500000000000         0.000000000000000E+000
   3.32500000000000         0.000000000000000E+000
   3.51500000000000         0.000000000000000E+000
   3.70500000000000         0.000000000000000E+000
   3.89500000000000         0.000000000000000E+000
   4.08500000000000         0.000000000000000E+000
   4.27500000000000         0.000000000000000E+000
   4.46500000000000         0.000000000000000E+000
   4.65500000000000         0.000000000000000E+000
   4.84500000000000         0.000000000000000E+000
   5.03500000000000         0.000000000000000E+000
   5.22500000000000         0.000000000000000E+000
   5.41500000000000         0.000000000000000E+000
   5.60500000000000         0.000000000000000E+000
   5.79500000000000         0.000000000000000E+000
   5.98500000000000         0.000000000000000E+000
   6.17500000000000         0.000000000000000E+000
   6.36500000000000         4.219430590881044E-182
   6.55500000000000        -1.395305810564376E-169
   6.74500000000000         6.496889896938011E-165
   6.93500000000000         1.166622100548367E-164
   7.12500000000000         2.384760633803682E-161
   7.31500000000000         1.936040130942975E-159
   7.50500000000000         7.355114247009883E-158
   7.69500000000000         1.886011991249405E-156
   7.88500000000000         3.788734827598892E-155
   8.07500000000000         6.027844075356692E-150
   8.26500000000000         6.517550637852732E-148
   8.45500000000000         2.347324761760585E-146
   8.64500000000000         4.447201114400171E-145
   8.83500000000000         4.738847095902882E-144
   9.02500000000000         1.664302887860497E-143
   9.21500000000000        -3.638004746528049E-142
   9.40500000000000        -8.122014646549238E-141
   9.59500000000000        -9.471843069256707E-140
   9.78500000000000        -7.676135704068114E-139
   9.97500000000000        -4.411194173991272E-138
   10.1650000000000        -1.456059496990797E-137
   10.3550000000000         3.150369319646137E-137
   10.5450000000000         9.439767616490017E-136
   10.7350000000000         8.931638158972216E-135
   10.9250000000000         6.060192355575331E-134
   11.1150000000000         3.332319507209802E-133
   11.3050000000000         1.544472594623398E-132
   11.4950000000000         6.100225446339629E-132
   11.6850000000000         2.039885211399990E-131
   11.8750000000000         5.641788904950935E-131
   12.0650000000000         1.247794786252574E-130
   12.2550000000000         2.389217424193296E-130
   12.4450000000000         8.323448971856468E-130
   12.6350000000000         6.481746541236122E-129
   12.8250000000000         4.790458840763423E-128
   13.0150000000000         2.851224152707225E-127
   13.2050000000000         1.413990401813855E-126
   13.3950000000000         6.032038714312840E-126
   13.5850000000000         2.247757464615741E-125
   13.7750000000000         7.308909472772671E-125
   13.9650000000000         2.023112582628103E-124
   14.1550000000000         4.372496083957589E-124
   14.3450000000000         4.692151735470786E-124
   14.5350000000000        -1.819968620597709E-123
   14.7250000000000        -1.580790040982797E-122
   14.9150000000000        -7.548042002050954E-122
   15.1050000000000        -2.879700357753242E-121
   15.2950000000000        -9.520997124082077E-121
   15.4850000000000        -2.800041964066995E-120
   15.6750000000000        -7.343059080565318E-120
   15.8650000000000        -1.683147800435453E-119
   16.0550000000000        -3.147622380441976E-119
   16.2450000000000        -3.551615869452570E-119
   16.4350000000000         5.381828603893777E-119
   16.6250000000000         5.469119986308955E-118
   16.8150000000000         2.439531528402377E-117
   17.0050000000000         8.623776845122100E-117
   17.1950000000000         2.690184909374530E-116
   17.3850000000000         7.710270246768638E-116
   17.5750000000000         2.071184194938907E-115
   17.7650000000000         5.275253630935463E-115
   17.9550000000000         1.283395460749406E-114
   18.1450000000000         2.997653027742710E-114
   18.3350000000000         6.746692641080612E-114
   18.5250000000000         1.467038106710917E-113
   18.7150000000000         3.087804119382133E-113
   18.9050000000000         6.298526023159682E-113
   19.0950000000000         1.245775687470531E-112
   19.2850000000000         2.388682158006830E-112
   19.4750000000000         4.435071741422010E-112
   19.6650000000000         7.954891855413241E-112
   19.8550000000000         1.372557922635343E-111
   20.0450000000000         2.261822266908315E-111
   20.2350000000000         3.514660567143680E-111
   20.4250000000000         5.024621291878667E-111
   20.6150000000000         6.244321895975168E-111
   20.8050000000000         5.586837959180091E-111
   20.9950000000000        -7.593596639863951E-112
   21.1850000000000        -2.105588062141836E-110
   21.3750000000000        -7.200653195019680E-110
   21.5650000000000        -1.856206906357989E-109
   21.7550000000000        -4.205299703082491E-109
   21.9450000000000        -8.798485661945386E-109
   22.1350000000000        -1.738008265855792E-108
   22.3250000000000        -3.278720833520938E-108
   22.5150000000000        -5.944417697599190E-108
   22.7050000000000        -1.039251182339673E-107
   22.8950000000000        -1.754269407147144E-107
   23.0850000000000        -2.857736768488574E-107
   23.2750000000000        -4.481656243624313E-107
   23.4650000000000        -6.731763035141347E-107
   23.6550000000000        -9.593194383791422E-107
   23.8450000000000        -1.273629224373809E-106
   24.0350000000000        -1.514836086083257E-106
   24.2250000000000        -1.447571813165724E-106
   24.4150000000000        -5.903768423525580E-107
   24.6050000000000         1.966813128747330E-106
   24.7950000000000         7.847734810906896E-106
   24.9850000000000         1.981544305026052E-105
   25.1750000000000         4.237570006263146E-105
   25.3650000000000         8.257769088438624E-105
   25.5550000000000         1.509799138561918E-104
   25.7450000000000         2.626344962440453E-104
   25.9350000000000         4.377211457990308E-104
   26.1250000000000         7.010670444344938E-104
   26.3150000000000         1.079130524900491E-103
   26.5050000000000         1.591986346613715E-103
   26.6950000000000         2.236286916603027E-103
   26.8850000000000         2.952934745468546E-103
   27.0750000000000         3.570155217317427E-103
   27.2650000000000         3.708751987517410E-103
   27.4550000000000         2.631681382147815E-103
   27.6450000000000        -9.848569205240993E-104
   27.8350000000000        -9.385859708514122E-103
   28.0250000000000        -2.620625987367140E-102
   28.2150000000000        -5.709889498741924E-102
   28.4050000000000        -1.105325345534645E-101
   28.5950000000000        -1.987396255662713E-101
   28.7850000000000        -3.387358543009447E-101
   28.9750000000000        -5.532376450449328E-101
   29.1650000000000        -8.711547898799175E-101
   29.3550000000000        -1.327117288108761E-100
   29.5450000000000        -1.959191864684334E-100
   29.7350000000000        -2.803540798549730E-100
   29.9250000000000        -3.884266085086559E-100
   30.1150000000000        -5.196068598822636E-100
   30.3050000000000        -6.676652904699237E-100
   30.4950000000000        -8.165060714660156E-100
   30.6850000000000        -9.341378107888944E-100
   30.8750000000000        -9.642614329669407E-100
   31.0650000000000        -8.149097918134745E-100
   31.2550000000000        -3.435615002433776E-100
   31.4450000000000         6.618083390799600E-100
   31.6350000000000         2.506154483822463E-099
   31.8250000000000         5.615417385381194E-099
   32.0150000000000         1.056885885152844E-098
   32.2050000000000         1.813439864206269E-098
   32.3950000000000         2.930399010391095E-098
   32.5850000000000         4.532309554802054E-098
   32.7750000000000         6.770320776260132E-098
   32.9650000000000         9.819788324069382E-098
   33.1550000000000         1.387092384772448E-097
   33.3450000000000         1.910712489628855E-097
   33.5350000000000         2.566262329276123E-097
   33.7250000000000         3.354696626168021E-097
   33.9150000000000         4.251852147322962E-097
   34.1050000000000         5.188287298366663E-097
   34.2950000000000         6.018532934682577E-097
   34.4850000000000         6.476123873722333E-097
   34.6750000000000         6.110593360503553E-097
   34.8650000000000         4.203188343120116E-097
   35.0550000000000        -3.400286476881074E-098
   35.2450000000000        -9.115033835605182E-097
   35.4350000000000        -2.435701412192688E-096
   35.6250000000000        -4.906726756159576E-096
   35.8150000000000        -8.709343692679791E-096
   36.0050000000000        -1.431054898814459E-095
   36.1950000000000        -2.223834962039584E-095
   36.3850000000000        -3.303031644696310E-095
   36.5750000000000        -4.713745401188003E-095
   36.7650000000000        -6.476638649560547E-095
   36.9550000000000        -8.564168157565078E-095
   37.1450000000000        -1.086714619895418E-094
   37.3350000000000        -1.315046947370964E-094
   37.5250000000000        -1.499792553502721E-094
   37.7150000000000        -1.574775362073500E-094
   37.9050000000000        -1.442321290527753E-094
   38.0950000000000        -9.665831195787014E-095
   38.2850000000000         3.168170113541124E-096
   38.4750000000000         1.777227463956862E-094
   38.6650000000000         4.537203668946732E-094
   38.8550000000000         8.610259301046632E-094
   39.0450000000000         1.430503021118413E-093
   39.2350000000000         2.190507706666236E-093
   39.4250000000000         3.161748647758364E-093
   39.6150000000000         4.350272142848893E-093
   39.8050000000000         5.738381099271532E-093
   39.9950000000000         7.273339437400434E-093
   40.1850000000000         8.853715784431775E-093
   40.3750000000000         1.031314290641973E-092
   40.5650000000000         1.140107610852188E-092
   40.7550000000000         1.175981268631426E-092
   40.9450000000000         1.089662911464583E-092
   41.1350000000000         8.149546105576621E-093
   41.3250000000000         2.645238821481927E-093
   41.5150000000000        -6.751529913643679E-093
   41.7050000000000        -2.149511834936729E-092
   41.8950000000000        -4.341597967983782E-092
   42.0850000000000        -7.476173399808388E-092
   42.2750000000000        -1.181929696553441E-091
   42.4650000000000        -1.766849569464123E-091
   42.6550000000000        -2.532612634922644E-091
   42.8450000000000        -3.504558657155787E-091
   43.0350000000000        -4.693707132093941E-091
   43.2250000000000        -6.081731467919752E-091
   43.4150000000000        -7.598736369429243E-091
   43.6050000000000        -9.092552225517336E-091
   43.7950000000000        -1.028912394779340E-090
   43.9850000000000        -1.074522400924389E-090
   44.1750000000000        -9.797388972468656E-091
   44.3650000000000        -6.514832264988296E-091
   44.5550000000000         3.308536189859459E-092
   44.7450000000000         1.226035132011979E-090
   44.9350000000000         3.102035102563617E-090
   45.1250000000000         5.842536514491618E-090
   45.3150000000000         9.607329008760538E-090
   45.5050000000000         1.449016961096989E-089
   45.6950000000000         2.045605804025787E-089
   45.8850000000000         2.725965250576061E-089
   46.0750000000000         3.434756042607285E-089
   46.2650000000000         4.075196978714282E-089
   46.4550000000000         4.498927652319547E-089
   46.6450000000000         4.498465609847211E-089
   46.8350000000000         3.805112536002033E-089
   47.0250000000000         2.095820837147911E-089
   47.2150000000000        -9.871046002422613E-090
   47.4050000000000        -5.799763667627111E-089
   47.5950000000000        -1.264113606068643E-088
   47.7850000000000        -2.167753495512355E-088
   47.9750000000000        -3.284949180086195E-088
   48.1650000000000        -4.576787700297890E-088
   48.3550000000000        -5.961126087914225E-088
   48.5450000000000        -7.304186780184352E-088
   48.7350000000000        -8.416182122515322E-088
   48.9250000000000        -9.053311193622383E-088
   49.1150000000000        -8.928190281411108E-088
   49.3050000000000        -7.729841194648950E-088
   49.4950000000000        -5.152612627813010E-088
   49.6850000000000        -9.308067082151502E-089
   49.8750000000000         5.127512028033786E-088
   50.0650000000000         1.311756784600026E-087
   50.2550000000000         2.303871091307916E-087
   50.4450000000000         3.483290429715070E-087
   50.6350000000000         4.847199226340908E-087
   50.8250000000000         6.409648967161154E-087
   51.0150000000000         8.219266571054181E-087
   51.2050000000000         1.037698623387761E-086
   51.3950000000000         1.304664072825482E-086
   51.5850000000000         1.644726674297597E-086
   51.7750000000000         2.081197325391939E-086
   51.9650000000000         2.629523710409832E-086
   52.1550000000000         3.281007393534392E-086
   52.3450000000000         3.978071110763850E-086
   52.5350000000000         4.580750796477518E-086
   52.7250000000000         4.826125104059700E-086
   52.9150000000000         4.285532823692898E-086
   53.1050000000000         2.328697822728337E-086
   53.2950000000000        -1.890930434883204E-086
   53.4850000000000        -9.409778074325624E-086
   53.6750000000000        -2.136200966523104E-085
   53.8650000000000        -3.879442154578116E-085
   54.0550000000000        -6.236300282845873E-085
   54.2450000000000        -9.189464288246600E-085
   54.4350000000000        -1.258159529298885E-084
   54.6250000000000        -1.604815807058275E-084
   54.8150000000000        -1.894778449982775E-084
   55.0050000000000        -2.030329659852149E-084
   55.1950000000000        -1.877282967451525E-084
   55.3850000000000        -1.267670407431693E-084
   55.5750000000000        -1.103975125954235E-086
   55.7650000000000         2.082477958157913E-084
   55.9550000000000         5.164631983973934E-084
   56.1450000000000         9.295660513337767E-084
   56.3350000000000         1.437606510328430E-083
   56.5250000000000         2.006823019347827E-083
   56.7150000000000         2.571746111431319E-083
   56.9050000000000         3.028785294045707E-083
   57.0950000000000         3.233451598515468E-083
   57.2850000000000         3.003893793758693E-083
   57.4750000000000         2.133702624843051E-083
   57.6650000000000         4.167572828871993E-084
   57.8550000000000        -2.313981639380716E-083
   58.0450000000000        -6.133611906114363E-083
   58.2350000000000        -1.096109753946703E-082
   58.4250000000000        -1.649043007704251E-082
   58.6150000000000        -2.212866535227251E-082
   58.8050000000000        -2.695755583832444E-082
   58.9950000000000        -2.974013254600153E-082
   59.1850000000000        -2.899629811232555E-082
   59.3750000000000        -2.317050794155800E-082
   59.5650000000000        -1.090791287438700E-082
   59.7550000000000         8.559082004463336E-083
   59.9450000000000         3.493552852425990E-082
   60.1350000000000         6.635484343772248E-082
   60.3250000000000         9.893214758872363E-082
   60.5150000000000         1.265213509805156E-081
   60.7050000000000         1.408583285838434E-081
   60.8950000000000         1.322976828850845E-081
   61.0850000000000         9.134412929194953E-082
   61.2750000000000         1.112284588130334E-082
   61.4650000000000        -1.091930510079488E-081
   61.6550000000000        -2.601914826180099E-081
   61.8450000000000        -4.177651257831998E-081
   62.0350000000000        -5.392775837868888E-081
   62.2250000000000        -5.616818537030626E-081
   62.4150000000000        -4.033520673869039E-081
   62.6050000000000         2.829206645136943E-082
   62.7950000000000         8.212247345803605E-081
   62.9850000000000         2.033541614350272E-080
   63.1750000000000         3.657696063509959E-080
   63.3650000000000         5.575277864531047E-080
   63.5550000000000         7.506134781364781E-080
   63.7450000000000         8.959378193217111E-080
   63.9350000000000         9.198363322946099E-080
   64.1250000000000         7.236655162513830E-080
   64.3150000000000         1.886498097234477E-080
   64.5050000000000        -8.115787887934823E-080
   64.6950000000000        -2.388335886352234E-079
   64.8850000000000        -4.603266494040017E-079
   65.0750000000000        -7.421155687893423E-079
   65.2650000000000        -1.065176351175536E-078
   65.4550000000000        -1.388553036300001E-078
   65.6450000000000        -1.643231718896170E-078
   65.8350000000000        -1.727753691637802E-078
   66.0250000000000        -1.507561927670434E-078
   66.2150000000000        -8.205883309755558E-079
   66.4050000000000         5.080701275738544E-079
   66.5950000000000         2.639540833519783E-078
   66.7850000000000         5.680338712880662E-078
   66.9750000000000         9.626344453409964E-078
   67.1650000000000         1.429296900941105E-077
   67.3550000000000         1.923636280148713E-077
   67.5450000000000         2.367521199041950E-077
   67.7350000000000         2.642838569698335E-077
   67.9250000000000         2.589001157464835E-077
   68.1150000000000         2.006964507658232E-077
   68.3050000000000         6.729801880082410E-078
   68.4950000000000        -1.634548416556424E-077
   68.6850000000000        -5.092139118533643E-077
   68.8750000000000        -9.770443587628354E-077
   69.0650000000000        -1.555601912951677E-076
   69.2550000000000        -2.205952370368120E-076
   69.4450000000000        -2.851898529082204E-076
   69.6350000000000        -3.371285516931028E-076
   69.8250000000000        -3.590454700683954E-076
   70.0150000000000        -3.284739176940289E-076
   70.2050000000000        -2.188525885206624E-076
   70.3950000000000        -1.878620169963627E-078
   70.5850000000000         3.484116203420089E-076
   70.7750000000000         8.495350881946484E-076
   70.9650000000000         1.502311377782185E-075
   71.1550000000000         2.280661405935287E-075
   71.3450000000000         3.120103723917465E-075
   71.5350000000000         3.906204702012184E-075
   71.7250000000000         4.464982292597004E-075
   71.9150000000000         4.558092565734657E-075
   72.1050000000000         3.886451607070494E-075
   72.2950000000000         2.106619351603873E-075
   72.4850000000000        -1.135402805406533E-075
   72.6750000000000        -6.148585688477776E-075
   72.8650000000000        -1.311629730995868E-074
   73.0550000000000        -2.198992503918063E-074
   73.2450000000000        -3.235976587462370E-074
   73.4350000000000        -4.331184190370098E-074
   73.6250000000000        -5.328662089787750E-074
   73.8150000000000        -5.996445250130230E-074
   74.0050000000000        -6.021226638884166E-074
   74.1950000000000        -5.013563675432052E-074
   74.3850000000000        -2.528804370254100E-074
   74.5750000000000         1.890721444488702E-074
   74.7650000000000         8.647034494320239E-074
   74.9550000000000         1.798751306799894E-073
   75.1450000000000         2.987446560353118E-073
   75.3350000000000         4.382659865786755E-073
   75.5250000000000         5.874207511459664E-073
   75.7150000000000         7.272119569131359E-073
   75.9050000000000         8.291681062336264E-073
   76.0950000000000         8.545174058061090E-073
   76.2850000000000         7.545360532847095E-073
   76.4750000000000         4.726676551286703E-073
   76.6650000000000        -5.093842406156140E-074
   76.8550000000000        -8.718441140010526E-073
   77.0450000000000        -2.030200024300349E-072
   77.2350000000000        -3.535864970608055E-072
   77.4250000000000        -5.350008054607158E-072
   77.6150000000000        -7.364100526386189E-072
   77.8050000000000        -9.378088523970126E-072
   77.9950000000000        -1.108061943914207E-071
   78.1850000000000        -1.203541512083978E-071
   78.3750000000000        -1.167913409723799E-071
   78.5650000000000        -9.337170998396443E-072
   78.7550000000000        -4.264565973375905E-072
   78.9450000000000         4.280764012385660E-072
   79.1350000000000         1.692626483867849E-071
   79.3250000000000         3.403068439321093E-071
   79.5150000000000         5.548818031010509E-071
   79.7050000000000         8.049741004029797E-071
   79.8950000000000         1.073110098842676E-070
   80.0850000000000         1.329916013366455E-070
   80.2750000000000         1.532128611230560E-070
   80.4650000000000         1.621573086102575E-070
   80.6550000000000         1.525747816927444E-070
   80.8450000000000         1.160749352879815E-070
   81.0350000000000         4.373071197912347E-071
   81.2250000000000        -7.293574402845348E-071
   81.4150000000000        -2.405315243297415E-070
   81.6050000000000        -4.619172815061504E-070
   81.7950000000000        -7.339133581958407E-070
   81.9850000000000        -1.044699595115827E-069
   82.1750000000000        -1.371118097463247E-069
   82.3650000000000        -1.676203911605913E-069
   82.5550000000000        -1.907395281566477E-069
   82.7450000000000        -1.996000735881876E-069
   82.9350000000000        -1.858606903585821E-069
   83.1250000000000        -1.401175071762408E-069
   83.3150000000000        -5.265671858538604E-070
   83.5050000000000         8.538694447230457E-070
   83.6950000000000         2.804278876465435E-069
   83.8850000000000         5.343873117021590E-069
   84.0750000000000         8.422756597906044E-069
   84.2650000000000         1.189545460426317E-068
   84.4550000000000         1.549459192394579E-068
   84.6450000000000         1.880829219615461E-068
   84.8350000000000         2.126603860053939E-068
   85.0250000000000         2.213881816652539E-068
   85.2150000000000         2.056018108261730E-068
   85.4050000000000         1.557515133537327E-068
   85.5950000000000         6.223455711909645E-069
   85.7850000000000        -8.337995686780165E-069
   85.9750000000000        -2.867132433455253E-068
   86.1650000000000        -5.485499877899066E-068
   86.3550000000000        -8.625082264853089E-068
   86.5450000000000        -1.212570080881206E-067
   86.7350000000000        -1.570729960451372E-067
   86.9250000000000        -1.895117724436438E-067
   87.1150000000000        -2.129054260204661E-067
   87.3050000000000        -2.201582677474190E-067
   87.4950000000000        -2.030072437227401E-067
   87.6850000000000        -1.525495188653368E-067
   87.8750000000000        -6.008962720572473E-068
   88.0650000000000         8.165895212662628E-068
   88.2550000000000         2.770127425532184E-067
   88.4450000000000         5.254364016740813E-067
   88.6350000000000         8.194368927271069E-067
   88.8250000000000         1.142402232201485E-066
   89.0150000000000         1.466635368814583E-066
   89.2050000000000         1.751920270687141E-066
   89.3950000000000         1.945039355715206E-066
   89.5850000000000         1.980726655740965E-066
   89.7750000000000         1.784573918625330E-066
   89.9650000000000         1.278388797869423E-066
   90.1550000000000         3.884152278563887E-067
   90.3450000000000        -9.433540342910619E-067
   90.5350000000000        -2.744831386899616E-066
   90.7250000000000        -4.996922389552437E-066
   90.9150000000000        -7.615045991270718E-066
   91.1050000000000        -1.043072502128599E-065
   91.2950000000000        -1.317560212869488E-065
   91.4850000000000        -1.547097536262071E-065
   91.6750000000000        -1.682662595324477E-065
   91.8650000000000        -1.665321736959568E-065
   92.0550000000000        -1.429274058043710E-065
   92.2450000000000        -9.071204217925753E-066
   92.4350000000000        -3.768459700484845E-067
   92.6250000000000         1.223459788278898E-065
   92.8150000000000         2.890872964840563E-065
   93.0050000000000         4.934035383055635E-065
   93.1950000000000         7.261009574077308E-065
   93.3850000000000         9.702523817054317E-065
   93.5750000000000         1.199866003121997E-064
   93.7650000000000         1.379097628957915E-064
   93.9550000000000         1.462347949561965E-064
   94.1450000000000         1.395628608607757E-064
   94.3350000000000         1.119594391465736E-064
   94.5250000000000         5.746092812252574E-065
   94.7150000000000        -2.918740038029965E-065
   94.9050000000000        -1.515503227090884E-064
   95.0950000000000        -3.102915223536918E-064
   95.2850000000000        -5.017797294068502E-064
   95.4750000000000        -7.166031928294373E-064
   95.6650000000000        -9.381354996422573E-064
   95.8550000000000        -1.141353266728268E-063
   96.0450000000000        -1.292164716086515E-063
   96.2350000000000        -1.347560884708513E-063
   96.4250000000000        -1.256939228246022E-063
   96.6150000000000        -9.649614902965606E-064
   96.8050000000000        -4.162809874678250E-064
   96.9950000000000         4.376050192002311E-064
   97.1850000000000         1.629268082634346E-063
   97.3750000000000         3.164140564476585E-063
   97.5650000000000         5.007610100818657E-063
   97.7550000000000         7.071234219428678E-063
   97.9450000000000         9.199362332455524E-063
   98.1350000000000         1.115797317684551E-062
   98.3250000000000         1.262806750533678E-062
   98.5150000000000         1.320643901551022E-062
   98.7050000000000         1.241700159639851E-062
   98.8950000000000         9.735979142295399E-063
   99.0850000000000         4.634050845268554E-063
   99.2750000000000        -3.362133359411122E-063
   99.4650000000000        -1.458791683370611E-062
   99.6550000000000        -2.913888324601693E-062
   99.8450000000000        -4.675289908643201E-062
   100.035000000000        -6.668293225224040E-062
   100.225000000000        -8.757176904023071E-062
   100.415000000000        -1.073443651759318E-061
   100.605000000000        -1.231383061208124E-061
   100.795000000000        -1.312972096531946E-061
   100.985000000000        -1.274551994094842E-061
   101.175000000000        -1.067419670176900E-061
   101.365000000000        -6.413644379963790E-062
   101.555000000000         5.008333262679941E-063
   101.745000000000         1.042569889475824E-061
   101.935000000000         2.352043158820915E-061
   102.125000000000         3.964353429050431E-061
   102.315000000000         5.823890106945440E-061
   102.505000000000         7.822165514225865E-061
   102.695000000000         9.787649156627025E-061
   102.885000000000         1.147856222457287E-060
   103.075000000000         1.258072086757249E-060
   103.265000000000         1.271281260066719E-060
   103.455000000000         1.144163426100302E-060
   103.645000000000         8.309732551885847E-061
   103.835000000000         2.877483560399031E-061
   104.025000000000        -5.219158864641591E-061
   104.215000000000        -1.619529739349995E-060
   104.405000000000        -3.002996442017923E-060
   104.595000000000        -4.636942677216699E-060
   104.785000000000        -6.442793316880691E-060
   104.975000000000        -8.289609239121559E-060
   105.165000000000        -9.987038945363774E-060
   105.355000000000        -1.128204902574537E-059
   105.545000000000        -1.186135250176667E-059
   105.735000000000        -1.136159464795174E-059
   105.925000000000        -9.389321524057429E-060
   106.115000000000        -5.552480719601663E-060
   106.305000000000         4.953790235787752E-061
   106.495000000000         8.997990000621264E-060
   106.685000000000         2.002746145103168E-059
   106.875000000000         3.340648590997152E-059
   107.065000000000         4.862669857837430E-059
   107.255000000000         6.477067133139181E-059
   107.445000000000         8.044760031634443E-059
   107.635000000000         9.375523079926521E-059
   107.825000000000         1.022826441502619E-058
   108.015000000000         1.031698222184359E-058
   108.205000000000         9.323995307759489E-059
   108.395000000000         6.921876032338894E-059
   108.585000000000         2.805123780539266E-059
   108.775000000000        -3.268038025505785E-059
   108.965000000000        -1.142430972960193E-058
   109.155000000000        -2.161623449785163E-058
   109.345000000000        -3.355876113449621E-058
   109.535000000000        -4.666660002780128E-058
   109.725000000000        -5.999942528762626E-058
   109.915000000000        -7.222384948806531E-058
   110.105000000000        -8.160272701827792E-058