  -1.42500000000000         0.000000000000000E+000
  -1.23500000000000         0.000000000000000E+000
  -1.04500000000000         0.000000000000000E+000
 -0.855000000000000         0.000000000000000E+000
 -0.665000000000000         0.000000000000000E+000
 -0.475000000000000         0.000000000000000E+000
 -0.285000000000000         0.000000000000000E+000
 -9.499999999999975E-002    0.000000000000000E+000
  9.500000000000020E-002    0.000000000000000E+000
  0.285000000000000         0.000000000000000E+000
  0.475000000000000         0.000000000000000E+000
  0.665000000000000         0.000000000000000E+000
  0.855000000000000         0.000000000000000E+000
   1.04500000000000         0.000000000000000E+000
   1.23500000000000         0.000000000000000E+000
   1.42500000000000         0.000000000000000E+000
   1.61500000000000         0.000000000000000E+000
   1.80500000000000         0.000000000000000E+000
   1.99500000000000         0.000000000000000E+000
   2.18500000000000         0.000000000000000E+000
   2.37500000000000         0.000000000000000E+000
   2.56500000000000         0.000000000000000E+000
   2.75500000000000         0.000000000000000E+000
   2.94500000000000         0.000000000000000E+000
   3.13500000000000         0.000000000000000E+000
   3.32500000000000         0.000000000000000E+000
   3.51500000000000         0.000000000000000E+000
   3.70500000000000         0.000000000000000E+000
   3.89500000000000         0.000000000000000E+000
   4.08500000000000         0.000000000000000E+000
   4.27500000000000         0.000000000000000E+000
   4.46500000000000         0.000000000000000E+000
   4.65500000000000         0.000000000000000E+000
   4.84500000000000         0.000000000000000E+000
   5.03500000000000         0.000000000000000E+000
   5.22500000000000         0.000000000000000E+000
   5.41500000000000         0.000000000000000E+000
   5.60500000000000         0.000000000000000E+000
   5.79500000000000         0.000000000000000E+000
   5.98500000000000         0.000000000000000E+000
   6.17500000000000         0.000000000000000E+000
   6.36500000000000        -1.032540614659832E-179
   6.55500000000000         7.958439809735057E-167
   6.74500000000000        -3.700845536531126E-163
   6.93500000000000        -2.218117829619741E-161
   7.12500000000000        -7.741032014775940E-160
   7.31500000000000        -2.121290819229638E-158
   7.50500000000000        -4.938246715713413E-157
   7.69500000000000        -1.002400614321494E-155
   7.88500000000000        -1.815923710468594E-154
   8.07500000000000         4.820812562200872E-151
   8.26500000000000         3.459942455638728E-148
   8.45500000000000         1.984666351434850E-146
   8.64500000000000         5.176400621965658E-145
   8.83500000000000         7.284109899800587E-144
   9.02500000000000         3.746577433734843E-143
   9.21500000000000        -7.196346193989164E-142
   9.40500000000000        -2.141332740384183E-140
   9.59500000000000        -3.157122152478119E-139
   9.78500000000000        -3.284137427362199E-138
   9.97500000000000        -2.591224858468480E-137
   10.1650000000000        -1.533299271951946E-136
   10.3550000000000        -5.812468240117026E-136
   10.5450000000000         2.160290785788219E-136
   10.7350000000000         2.733596358218667E-134
   10.9250000000000         2.967581121525883E-133
   11.1150000000000         2.229820059734206E-132
   11.3050000000000         1.362749735790030E-131
   11.4950000000000         7.135500824773654E-131
   11.6850000000000         3.269330638010510E-130
   11.8750000000000         1.318498486875429E-129
   12.0650000000000         4.645157532233404E-129
   12.2550000000000         1.387618569304642E-128
   12.4450000000000         3.201114974637377E-128
   12.6350000000000         3.455030258466455E-128
   12.8250000000000        -1.685079968558675E-127
   13.0150000000000        -1.477630690936678E-126
   13.2050000000000        -7.311987978839653E-126
   13.3950000000000        -2.874311453350107E-125
   13.5850000000000        -9.668248994901959E-125
   13.7750000000000        -2.836149095314745E-124
   13.9650000000000        -7.173030547764484E-124
   14.1550000000000        -1.474408427380969E-123
   14.3450000000000        -1.910816419828742E-123
   14.5350000000000         1.991629967619738E-123
   14.7250000000000         2.619091488457411E-122
   14.9150000000000         1.225819956979150E-121
   15.1050000000000         4.382842409524354E-121
   15.2950000000000         1.343301211719480E-120
   15.4850000000000         3.656752759406061E-120
   15.6750000000000         8.905753937319996E-120
   15.8650000000000         1.911623361400713E-119
   16.0550000000000         3.417493756929861E-119
   16.2450000000000         4.055041826944789E-119
   16.4350000000000        -2.615760899008794E-119
   16.6250000000000        -3.906430592103527E-118
   16.8150000000000        -1.732379786962466E-117
   17.0050000000000        -5.932388927775353E-117
   17.1950000000000        -1.788174626965543E-116
   17.3850000000000        -4.970136176653401E-116
   17.5750000000000        -1.302855817300454E-115
   17.7650000000000        -3.263104588747071E-115
   17.9550000000000        -7.873693061650042E-115
   18.1450000000000        -1.840776249934278E-114
   18.3350000000000        -4.186405884921989E-114
   18.5250000000000        -9.288601993943386E-114
   18.7150000000000        -2.014756493111343E-113
   18.9050000000000        -4.278439202605443E-113
   19.0950000000000        -8.903541742543867E-113
   19.2850000000000        -1.816865336985260E-112
   19.4750000000000        -3.636730396408382E-112
   19.6650000000000        -7.141250705717915E-112
   19.8550000000000        -1.375529650014492E-111
   20.0450000000000        -2.598162752034121E-111
   20.2350000000000        -4.809824171674702E-111
   20.4250000000000        -8.719566618410074E-111
   20.6150000000000        -1.546058291270587E-110
   20.8050000000000        -2.676328510887977E-110
   20.9950000000000        -4.511201218382280E-110
   21.1850000000000        -7.375336663202074E-110
   21.3750000000000        -1.162468091718722E-109
   21.5650000000000        -1.749021725917455E-109
   21.7550000000000        -2.468057031411510E-109
   21.9450000000000        -3.149883138011650E-109
   22.1350000000000        -3.303132060057525E-109
   22.3250000000000        -1.763711490328284E-109
   22.5150000000000         3.956166494406321E-109
   22.7050000000000         1.883088654138531E-108
   22.8950000000000         5.233034677684344E-108
   23.0850000000000         1.217820062453012E-107
   23.2750000000000         2.578230925440075E-107
   23.4650000000000         5.129574853881001E-107
   23.6550000000000         9.745124192837821E-107
   23.8450000000000         1.783458417493385E-106
   24.0350000000000         3.160363104251025E-106
   24.2250000000000         5.438710692071844E-106
   24.4150000000000         9.103047256719654E-106
   24.6050000000000         1.482336393619759E-105
   24.7950000000000         2.346522860239878E-105
   24.9850000000000         3.603327916756097E-105
   25.1750000000000         5.346738798478662E-105
   25.3650000000000         7.614655905733754E-105
   25.5550000000000         1.028518385473029E-104
   25.7450000000000         1.287777928946842E-104
   25.9350000000000         1.419390229346021E-104
   26.1250000000000         1.169664996487730E-104
   26.3150000000000         4.800998833665188E-106
   26.5050000000000        -2.838511152271203E-104
   26.6950000000000        -9.042248451313179E-104
   26.8850000000000        -2.116170000396593E-103
   27.0750000000000        -4.340399895841885E-103
   27.2650000000000        -8.237314564553489E-103
   27.4550000000000        -1.481273488132025E-102
   27.6450000000000        -2.555205293730393E-102
   27.8350000000000        -4.257745420164562E-102
   28.0250000000000        -6.880904393552865E-102
   28.2150000000000        -1.080853477394553E-101
   28.4050000000000        -1.651548974664232E-101
   28.5950000000000        -2.453784385714546E-101
   28.7850000000000        -3.538664468409192E-101
   28.9750000000000        -4.935993989608474E-101
   29.1650000000000        -6.618121479881859E-101
   29.3550000000000        -8.435345797193252E-101
   29.5450000000000        -1.000626108048659E-100
   29.7350000000000        -1.053872149891837E-100
   29.9250000000000        -8.546740251454767E-101
   30.1150000000000        -1.415126605264574E-101
   30.3050000000000         1.525324812157384E-100
   30.4950000000000         4.859275620811731E-100
   30.6850000000000         1.098402257286252E-099
   30.8750000000000         2.162388725126625E-099
   31.0650000000000         3.936253839956364E-099
   31.2550000000000         6.798453383780641E-099
   31.4450000000000         1.129113500018488E-098
   31.6350000000000         1.817355315480616E-098
   31.8250000000000         2.848401822005864E-098
   32.0150000000000         4.360617076352186E-098
   32.2050000000000         6.533054889718272E-098
   32.3950000000000         9.589493367782346E-098
   32.5850000000000         1.379758889083599E-097
   32.7750000000000         1.945882143025682E-097
   32.9650000000000         2.688276414438030E-097
   33.1550000000000         3.633641104315042E-097
   33.3450000000000         4.795578913709267E-097
   33.5350000000000         6.160290094552316E-097
   33.7250000000000         7.664636183836090E-097
   33.9150000000000         9.163929249780636E-097
   34.1050000000000         1.038637648124920E-096
   34.2950000000000         1.087084215018009E-096
   34.4850000000000         9.884630648356759E-097
   34.6750000000000         6.318552172184469E-097
   34.8650000000000        -1.442123255576703E-097
   35.0550000000000        -1.566974754061602E-096
   35.2450000000000        -3.946432402754967E-096
   35.4350000000000        -7.693034238915045E-096
   35.6250000000000        -1.333405802625007E-095
   35.8150000000000        -2.152549682596120E-095
   36.0050000000000        -3.305462818812533E-095
   36.1950000000000        -4.882626806623375E-095
   36.3850000000000        -6.982284927286589E-095
   36.5750000000000        -9.702472679053319E-095
   36.7650000000000        -1.312722700157887E-094
   36.9550000000000        -1.730450985866639E-094
   37.1450000000000        -2.221260187474594E-094
   37.3350000000000        -2.771077139622350E-094
   37.5250000000000        -3.346892543618605E-094
   37.7150000000000        -3.886978838927916E-094
   37.9050000000000        -4.287613381502508E-094
   38.0950000000000        -4.385509964140338E-094
   38.2850000000000        -3.935230659674043E-094
   38.4750000000000        -2.581140884016480E-094
   38.6650000000000         1.758650004087257E-095
   38.8550000000000         5.015395096104256E-094
   39.0450000000000         1.283478671606435E-093
   39.2350000000000         2.477972669410555E-093
   39.4250000000000         4.225675717851793E-093
   39.6150000000000         6.690972872954058E-093
   39.8050000000000         1.005340173958853E-092
   39.9950000000000         1.448924963675597E-092
   40.1850000000000         2.013866182607617E-092
   40.3750000000000         2.705260921593737E-092
   40.5650000000000         3.511341848885631E-092
   40.7550000000000         4.392266416367953E-092
   40.9450000000000         5.265161292019971E-092
   41.1350000000000         5.985279682149886E-092
   41.3250000000000         6.323748745401970E-092
   41.5150000000000         5.943368689294545E-092
   41.7050000000000         4.375345636847432E-092
   41.8950000000000         1.001732323222803E-092
   42.0850000000000        -4.949318024903330E-092
   42.2750000000000        -1.438574739371764E-091
   42.4650000000000        -2.829885707683121E-091
   42.6550000000000        -4.766108222472109E-091
   42.8450000000000        -7.325870831262076E-091
   43.0350000000000        -1.054450379140904E-090
   43.2250000000000        -1.438037842251882E-090
   43.4150000000000        -1.867211108673834E-090
   43.6050000000000        -2.308788390856962E-090
   43.7950000000000        -2.707016165215319E-090
   43.9850000000000        -2.978172714019696E-090
   44.1750000000000        -3.006209975470052E-090
   44.3650000000000        -2.640676786721715E-090
   44.5550000000000        -1.698478644560808E-090
   44.7450000000000         2.875166448153825E-092
   44.9350000000000         2.759859481356458E-090
   45.1250000000000         6.700378634766470E-090
   45.3150000000000         1.200879738599815E-089
   45.5050000000000         1.875300852819742E-089
   45.6950000000000         2.685863092754199E-089
   45.8850000000000         3.605286717912048E-089
   46.0750000000000         4.580977304069375E-089
   46.2650000000000         5.530492092289081E-089
   46.4550000000000         6.338893811485816E-089
   46.6450000000000         6.858963862539179E-089
   46.8350000000000         6.915070887405457E-089
   47.0250000000000         6.311045400574290E-089
   47.2150000000000         4.841649651774230E-089
   47.4050000000000         2.306156763137045E-089
   47.5950000000000        -1.478752433075194E-089
   47.7850000000000        -6.670905996496386E-089
   47.9750000000000        -1.340453767566960E-088
   48.1650000000000        -2.180756916119367E-088
   48.3550000000000        -3.203848779276904E-088
   48.5450000000000        -4.434367097966991E-088
   48.7350000000000        -5.912976543038380E-088
   48.9250000000000        -7.703605211274769E-088
   49.1150000000000        -9.897846462987216E-088
   49.3050000000000        -1.261206066286804E-087
   49.4950000000000        -1.597092542155507E-087
   49.6850000000000        -2.006952551282394E-087
   49.8750000000000        -2.490498145899404E-087
   50.0650000000000        -3.026869015736096E-087
   50.2550000000000        -3.559224555443695E-087
   50.4450000000000        -3.974488508779270E-087
   50.6350000000000        -4.078875895230929E-087
   50.8250000000000        -3.571123842651702E-087
   51.0150000000000        -2.017139726341419E-087
   51.2050000000000         1.167922232814559E-087
   51.3950000000000         6.721405561452734E-087
   51.5850000000000         1.550694723475527E-086
   51.7750000000000         2.844553828641811E-086
   51.9650000000000         4.638648568500600E-086
   52.1550000000000         6.989938802694361E-086
   52.3450000000000         9.896859422499566E-086
   52.5350000000000         1.325749268448900E-085
   52.7250000000000         1.681570863176039E-085
   52.9150000000000         2.009588097865565E-085
   53.1050000000000         2.232896060196710E-085
   53.2950000000000         2.237591489008119E-085
   53.4850000000000         1.865908595104015E-085
   53.6750000000000         9.118147516708503E-086
   53.8650000000000        -8.784750260186803E-086
   54.0550000000000        -3.797633446712796E-085
   54.2450000000000        -8.155451123927932E-085
   54.4350000000000        -1.423842003902056E-084
   54.6250000000000        -2.224385900264818E-084
   54.8150000000000        -3.218112837379357E-084
   55.0050000000000        -4.373275639465565E-084
   55.1950000000000        -5.607019707971631E-084
   55.3850000000000        -6.762340708695009E-084
   55.5750000000000        -7.581164218782010E-084
   55.7650000000000        -7.675616008085364E-084
   55.9550000000000        -6.501518071430881E-084
   56.1450000000000        -3.340847624310687E-084
   56.3350000000000         2.696647807265624E-084
   56.5250000000000         1.263840318628837E-083
   56.7150000000000         2.756192591327774E-083
   56.9050000000000         4.843304546010192E-083
   57.0950000000000         7.584450995313744E-083
   57.2850000000000         1.096306030269165E-082
   57.4750000000000         1.483394168618360E-082
   57.6650000000000         1.885583143480174E-082
   57.8550000000000         2.241129348485742E-082
   58.0450000000000         2.451988161081231E-082
   58.2350000000000         2.375596927886389E-082
   58.4250000000000         1.818987133699890E-082
   58.6150000000000         5.379652835597453E-083
   58.8050000000000        -1.754922024978662E-082
   58.9950000000000        -5.368960542699067E-082
   59.1850000000000        -1.059493347114424E-081
   59.3750000000000        -1.764013135736550E-081
   59.5650000000000        -2.653347726697407E-081
   59.7550000000000        -3.699732078582124E-081
   59.9450000000000        -4.828600855628070E-081
   60.1350000000000        -5.899718742183710E-081
   60.3250000000000        -6.687040219346086E-081
   60.5150000000000        -6.859920524313091E-081
   60.7050000000000        -5.969766944491099E-081
   60.8950000000000        -3.447935043179088E-081
   61.0850000000000         1.377488584347279E-081
   61.2750000000000         9.236638983971238E-081
   61.4650000000000         2.083388679436765E-080
   61.6550000000000         3.671385809441911E-080
   61.8450000000000         5.706755487337115E-080
   62.0350000000000         8.147210128440960E-080
   62.2250000000000         1.085641992142997E-079
   62.4150000000000         1.356579417390106E-079
   62.6050000000000         1.583330035614626E-079
   62.7950000000000         1.700399581776969E-079
   62.9850000000000         1.617956468215044E-079
   63.1750000000000         1.220724660923522E-079
   63.3650000000000         3.701935094660035E-080
   63.5550000000000        -1.088142236575126E-079
   63.7450000000000        -3.310520187195367E-079
   63.9350000000000        -6.431488607158457E-079
   64.1250000000000        -1.052928047715013E-078
   64.3150000000000        -1.557840103126691E-078
   64.5050000000000        -2.138883706054970E-078
   64.6950000000000        -2.753299064883523E-078
   64.8850000000000        -3.326401527629114E-078
   65.0750000000000        -3.743283989181898E-078
   65.2650000000000        -3.841589204334451E-078
   65.4550000000000        -3.407133758767303E-078
   65.6450000000000        -2.174830973518107E-078
   65.8350000000000         1.619411631061257E-079
   66.0250000000000         3.929738689347119E-078
   66.2150000000000         9.436981054698666E-078
   66.4050000000000         1.691511701125885E-077
   66.5950000000000         2.643531935644013E-077
   66.7850000000000         3.779854498757154E-077
   66.9750000000000         5.039965326604675E-077
   67.1650000000000         6.307080913774412E-077
   67.3550000000000         7.391592720711674E-077
   67.5450000000000         8.015663129335315E-077
   67.7350000000000         7.802106362084229E-077
   67.9250000000000         6.271944905112930E-077
   68.1150000000000         2.856362286211234E-077
   68.3050000000000        -3.069994401710779E-077
   68.4950000000000        -1.212653483282887E-076
   68.6850000000000        -2.482708849625044E-076
   68.8750000000000        -4.143616613937101E-076
   69.0650000000000        -6.177695829067444E-076
   69.2550000000000        -8.499205329220108E-076
   69.4450000000000        -1.092659628494650E-075
   69.6350000000000        -1.315300933640567E-075
   69.8250000000000        -1.471860113606286E-075
   70.0150000000000        -1.499014739662889E-075
   70.2050000000000        -1.315547867729231E-075
   70.3950000000000        -8.242471144556156E-076
   70.5850000000000         8.257739545038668E-077
   70.7750000000000         1.512672538567437E-075
   70.9650000000000         3.557246794586177E-075
   71.1550000000000         6.267145875729562E-075
   71.3450000000000         9.621257175805020E-075
   71.5350000000000         1.348749680695159E-074
   71.7250000000000         1.757809573042529E-074
   71.9150000000000         2.140278825794459E-074
   72.1050000000000         2.422592548835483E-074
   72.2950000000000         2.503641865941451E-074
   72.4850000000000         2.254258217922697E-074
   72.6750000000000         1.520706592201210E-074
   72.8650000000000         1.339634792718098E-075
   73.0550000000000        -2.073313835331963E-074
   73.2450000000000        -5.240306970849859E-074
   73.4350000000000        -9.440640399856886E-074
   73.6250000000000        -1.463353026189928E-073
   73.8150000000000        -2.060437733736601E-073
   74.0050000000000        -2.689782048994628E-073
   74.1950000000000        -3.274912354188891E-073
   74.3850000000000        -3.702334882336221E-073
   74.5750000000000        -3.817594047950391E-073
   74.7650000000000        -3.425280230402108E-073
   74.9550000000000        -2.295220052655296E-073
   75.1450000000000        -1.774092721587104E-074
   75.3350000000000         3.171625614909182E-073
   75.5250000000000         7.948557283648642E-073
   75.7150000000000         1.424729247199021E-072
   75.9050000000000         2.198687334519859E-072
   76.0950000000000         3.082497310132661E-072
   76.2850000000000         4.006183034471854E-072
   76.4750000000000         4.854359793615882E-072
   76.6650000000000         5.457917588051622E-072
   76.8550000000000         5.589043049652751E-072
   77.0450000000000         4.962181577443342E-072
   77.2350000000000         3.244105436311629E-072
   77.4250000000000         7.666057358145568E-074
   77.6150000000000        -4.884132505209682E-072
   77.8050000000000        -1.190933357640637E-071
   77.9950000000000        -2.111648762876624E-071
   78.1850000000000        -3.236698272196215E-071
   78.3750000000000        -4.514430637002233E-071
   78.5650000000000        -5.842058053426541E-071
   78.7550000000000        -7.052453341441534E-071
   78.9450000000000        -7.903106879286109E-071
   79.1350000000000        -8.070045485773276E-071
   79.3250000000000        -7.150318169935214E-071
   79.5150000000000        -4.677363639809243E-071
   79.7050000000000        -1.540367205048519E-072
   79.8950000000000         6.891916797505534E-071
   80.0850000000000         1.682582968616292E-070
   80.2750000000000         2.979507103838423E-070
   80.4650000000000         4.558943411265987E-070
   80.6550000000000         6.347778448406436E-070
   80.8450000000000         8.203183138060032E-070
   81.0350000000000         9.895555606709524E-070
   81.2250000000000         1.109478906346689E-069
   81.4150000000000         1.136361028604952E-069
   81.6050000000000         1.016269956991456E-069
   81.7950000000000         6.873095978920276E-070
   81.9850000000000         8.418069174403840E-071
   82.1750000000000        -8.543679247707552E-070
   82.3650000000000        -2.174743374044502E-069
   82.5550000000000        -3.894154535290373E-069
   82.7450000000000        -5.982882221556483E-069
   82.9350000000000        -8.343931075129044E-069
   83.1250000000000        -1.079158281961682E-068
   83.3150000000000        -1.303130708919427E-068
   83.5050000000000        -1.464455173430434E-068
   83.6950000000000        -1.508304264253118E-068
   83.8850000000000        -1.367823726618586E-068
   84.0750000000000        -9.672304640835019E-069
   84.2650000000000        -2.277201034082806E-069
   84.4550000000000         9.232219297619484E-069
   84.6450000000000         2.538689656790648E-068
   84.8350000000000         4.635314379129258E-068
   85.0250000000000         7.172717189033281E-068
   85.2150000000000         1.003054879802575E-067
   85.4050000000000         1.298508078644987E-067
   85.5950000000000         1.568833704470207E-067
   85.7850000000000         1.765386343956876E-067
   85.9750000000000         1.825431401365685E-067
   86.1650000000000         1.673691919600155E-067
   86.3550000000000         1.226337987234127E-067
   86.5450000000000         3.980539208825539E-068
   86.7350000000000        -8.872970579433374E-068
   86.9250000000000        -2.682132377716975E-067
   87.1150000000000        -4.996849278422409E-067
   87.3050000000000        -7.778442283272822E-067
   87.4950000000000        -1.088745290673997E-066
   87.6850000000000        -1.407555219621848E-066
   87.8750000000000        -1.696704406801050E-066
   88.0650000000000        -1.904857743411872E-066
   88.2550000000000        -1.967223758202923E-066
   88.4450000000000        -1.807777833339977E-066
   88.6350000000000        -1.343984279724772E-066
   88.8250000000000        -4.945360488563817E-067
   89.0150000000000         8.095347172379115E-067
   89.2050000000000         2.610309900380685E-066
   89.3950000000000         4.905363274280556E-066
   89.5850000000000         7.627993452186367E-066
   89.7750000000000         1.062694262863596E-065
   89.9650000000000         1.364802713099911E-065
   90.1550000000000         1.632093168496151E-065
   90.3450000000000         1.815517873198506E-065
   90.5350000000000         1.854984624738344E-065
   90.7250000000000         1.682181046511742E-065
   90.9150000000000         1.225694925974617E-065
   91.1050000000000         4.187665615876856E-066
   91.2950000000000        -7.901898402278215E-066
   91.4850000000000        -2.424462011899480E-065
   91.6750000000000        -4.463891663402358E-065
   91.8650000000000        -6.828796012148305E-065
   92.0550000000000        -9.364643657604898E-065
   92.2450000000000        -1.182979308645969E-064
   92.4350000000000        -1.388918839886574E-064
   92.6250000000000        -1.511736245730464E-064
   92.8150000000000        -1.501430649631087E-064
   93.0050000000000        -1.303759463783315E-064
   93.1950000000000        -8.653463184392351E-065
   93.3850000000000        -1.408209563385967E-065
   93.5750000000000         8.980802571734949E-065
   93.7650000000000         2.251810653431931E-064
   93.9550000000000         3.881423403807415E-064
   94.1450000000000         5.697228920895017E-064
   94.3350000000000         7.549275218303252E-064
   94.5250000000000         9.221647510669572E-064
   94.7150000000000         1.043291767752475E-063
   94.9050000000000         1.084524215682796E-063
   95.0950000000000         1.008451670216618E-063
   95.2850000000000         7.773552365878452E-064
   95.4750000000000         3.579349916552944E-064
   95.6650000000000        -2.725848202819457E-064
   95.8550000000000        -1.119198714039412E-063
   96.0450000000000        -2.161181632824006E-063
   96.2350000000000        -3.344224713492822E-063
   96.4250000000000        -4.573704461450509E-063
   96.6150000000000        -5.710435959552673E-063
   96.8050000000000        -6.570495992377196E-063
   96.9950000000000        -6.930827164850847E-063
   97.1850000000000        -6.542287311233718E-063
   97.3750000000000        -5.151524704430878E-063
   97.5650000000000        -2.532477846020407E-063
   97.7550000000000         1.472628331281461E-063
   97.9450000000000         6.904212078298416E-063
   98.1350000000000         1.363125697255018E-062
   98.3250000000000         2.129721933298764E-062
   98.5150000000000         2.927298778837367E-062
   98.7050000000000         3.662597698506962E-062
   98.8950000000000         4.211610926275337E-062
   99.0850000000000         4.423041049245751E-062
   99.2750000000000         4.126780726644832E-062
   99.4650000000000         3.148402462585745E-062
   99.6550000000000         1.330282836832455E-062
   99.8450000000000        -1.440610408872465E-062
   100.035000000000        -5.199084764864090E-062
   100.225000000000        -9.864146765368087E-062
   100.415000000000        -1.520067873845693E-061
   100.605000000000        -2.078497931031868E-061
   100.795000000000        -2.598018932841102E-061
   100.985000000000        -2.992885208817905E-061
   101.175000000000        -3.157067210063501E-061
   101.365000000000        -2.969367163094434E-061
   101.555000000000        -2.302610736299828E-061
   101.745000000000        -1.037441311860096E-061
   101.935000000000         9.191168378518188E-062
   102.125000000000         3.610687103590148E-061
   102.315000000000         7.005216924974915E-061
   102.505000000000         1.096720414894304E-060
   102.695000000000         1.523132867308014E-060
   102.885000000000         1.938133138328517E-060
   103.075000000000         2.283889594153599E-060
   103.265000000000         2.486798958930970E-060
   103.455000000000         2.460043781470828E-060
   103.645000000000         2.108825517888125E-060
   103.835000000000         1.338723589806231E-060
   104.025000000000         6.743434214460118E-062
   104.215000000000        -1.760160867176146E-060
   104.405000000000        -4.154068336339137E-060
   104.595000000000        -7.059393944381386E-060
   104.785000000000        -1.033631117144253E-059
   104.975000000000        -1.374207225340690E-059
   105.165000000000        -1.691801306268594E-059
   105.355000000000        -1.938507905830933E-059
   105.545000000000        -2.055178887329931E-059
   105.735000000000        -1.973863636829365E-059
   105.925000000000        -1.622258434605758E-059
   106.115000000000        -9.304398159791491E-060
   106.305000000000         1.600003864655802E-060
   106.495000000000         1.684531798040239E-059
   106.685000000000         3.642394502460427E-059
   106.875000000000         5.982237314645424E-059
   107.065000000000         8.587912151272755E-059
   107.255000000000         1.126610581430636E-058
   107.445000000000         1.373792773036057E-058
   107.635000000000         1.563693651647292E-058
   107.825000000000         1.651631151653389E-058
   108.015000000000         1.586787998273365E-058
   108.205000000000         1.315541425434924E-058
   108.395000000000         7.863937039528987E-059
   108.585000000000        -4.343494883192092E-060
   108.775000000000        -1.199850504075510E-058
   108.965000000000        -2.682475793725053E-058
   109.155000000000        -4.454551407285938E-058
   109.345000000000        -6.432997270552006E-058
   109.535000000000        -8.479785417440079E-058
   109.725000000000        -1.039606007505793E-057
   109.915000000000        -1.192067614689929E-057
   110.105000000000        -1.273496768812715E-057