  -1.42500000000000         0.000000000000000E+000
  -1.23500000000000         0.000000000000000E+000
  -1.04500000000000         0.000000000000000E+000
 -0.855000000000000         0.000000000000000E+000
 -0.665000000000000         0.000000000000000E+000
 -0.475000000000000         0.000000000000000E+000
 -0.285000000000000         0.000000000000000E+000
 -9.499999999999975E-002    0.000000000000000E+000
  9.500000000000020E-002    0.000000000000000E+000
  0.285000000000000         0.000000000000000E+000
  0.475000000000000         0.000000000000000E+000
  0.665000000000000         0.000000000000000E+000
  0.855000000000000         0.000000000000000E+000
   1.04500000000000         0.000000000000000E+000
   1.23500000000000         0.000000000000000E+000
   1.42500000000000         0.000000000000000E+000
   1.61500000000000         0.000000000000000E+000
   1.80500000000000         0.000000000000000E+000
   1.99500000000000         0.000000000000000E+000
   2.18500000000000         0.000000000000000E+000
   2.37500000000000         0.000000000000000E+000
   2.56500000000000         0.000000000000000E+000
   2.75500000000000         0.000000000000000E+000
   2.94500000000000         0.000000000000000E+000
   3.13500000000000         0.000000000000000E+000
   3.32500000000000         0.000000000000000E+000
   3.51500000000000         0.000000000000000E+000
   3.70500000000000         0.000000000000000E+000
   3.89500000000000         0.000000000000000E+000
   4.08500000000000         0.000000000000000E+000
   4.27500000000000         0.000000000000000E+000
   4.46500000000000         0.000000000000000E+000
   4.65500000000000         0.000000000000000E+000
   4.84500000000000         0.000000000000000E+000
   5.03500000000000         0.000000000000000E+000
   5.22500000000000         0.000000000000000E+000
   5.41500000000000         0.000000000000000E+000
   5.60500000000000         0.000000000000000E+000
   5.79500000000000         0.000000000000000E+000
   5.98500000000000         0.000000000000000E+000
   6.17500000000000         0.000000000000000E+000
   6.36500000000000         1.303971613308142E-179
   6.55500000000000        -4.325014139164838E-167
   6.74500000000000         2.536035607562713E-163
   6.93500000000000         1.365342608188681E-161
   7.12500000000000         4.480372011443919E-160
   7.31500000000000         1.215189440524218E-158
   7.50500000000000         2.861060999431806E-157
   7.69500000000000         5.881273223826585E-156
   7.88500000000000         1.076971303016663E-154
   8.07500000000000         1.501621953977547E-151
   8.26500000000000        -5.587052954193021E-149
   8.45500000000000        -3.709731246191006E-147
   8.64500000000000        -1.039282940302203E-145
   8.83500000000000        -1.606121120073877E-144
   9.02500000000000        -1.196901624147931E-143
   9.21500000000000         6.034894352053681E-143
   9.40500000000000         3.123832799839343E-141
   9.59500000000000         5.051238056031797E-140
   9.78500000000000         5.470682153310266E-139
   9.97500000000000         4.441409133432461E-138
   10.1650000000000         2.726263888585070E-137
   10.3550000000000         1.139751732398269E-136
   10.5450000000000         1.130158720288280E-136
   10.7350000000000        -3.367422587289398E-135
   10.9250000000000        -4.071668117250487E-134
   11.1150000000000        -3.126561783313846E-133
   11.3050000000000        -1.908762722948894E-132
   11.4950000000000        -9.871877235290084E-132
   11.6850000000000        -4.430261958541854E-131
   11.8750000000000        -1.734622214679647E-130
   12.0650000000000        -5.857038839165803E-130
   12.2550000000000        -1.633163028062582E-129
   12.4450000000000        -3.223060999709814E-129
   12.6350000000000        -4.653781663243119E-130
   12.8250000000000         3.638888026660334E-128
   13.0150000000000         2.370385042931370E-127
   13.2050000000000         1.073878170107309E-126
   13.3950000000000         4.054290877566748E-126
   13.5850000000000         1.346629299168772E-125
   13.7750000000000         4.020669159417949E-125
   13.9650000000000         1.086863043586699E-124
   14.1550000000000         2.650328291268183E-124
   14.3450000000000         5.719882041196240E-124
   14.5350000000000         1.031168318528263E-123
   14.7250000000000         1.230304682563880E-123
   14.9150000000000        -9.408058358457564E-124
   15.1050000000000        -1.363131753886945E-122
   15.2950000000000        -6.536503199682268E-122
   15.4850000000000        -2.518638686657963E-121
   15.6750000000000        -8.863593427611158E-121
   15.8650000000000        -2.968047594848163E-120
   16.0550000000000        -9.583512114027162E-120
   16.2450000000000        -2.989722112276294E-119
   16.4350000000000        -8.989959864026161E-119
   16.6250000000000        -2.596372212302076E-118
   16.8150000000000        -7.176595596797490E-118
   17.0050000000000        -1.891950087335328E-117
   17.1950000000000        -4.738786590936532E-117
   17.3850000000000        -1.121886879999401E-116
   17.5750000000000        -2.490249234980293E-116
   17.7650000000000        -5.108805762729515E-116
   17.9550000000000        -9.409224300819287E-116
   18.1450000000000        -1.446700381308942E-115
   18.3350000000000        -1.388651004691976E-115
   18.5250000000000         1.574016532824752E-115
   18.7150000000000         1.442854396938070E-114
   18.9050000000000         5.583128315992832E-114
   19.0950000000000         1.719811286392942E-113
   19.2850000000000         4.709323434790988E-113
   19.4750000000000         1.193936943058483E-112
   19.6650000000000         2.858657065513022E-112
   19.8550000000000         6.537372686875698E-112
   20.0450000000000         1.438059657960807E-111
   20.2350000000000         3.057191462763984E-111
   20.4250000000000         6.301321320918555E-111
   20.6150000000000         1.261966042926993E-110
   20.8050000000000         2.459113912577644E-110
   20.9950000000000         4.666161559067773E-110
   21.1850000000000         8.623584390946095E-110
   21.3750000000000         1.551796033801052E-109
   21.5650000000000         2.716701798244454E-109
   21.7550000000000         4.620561353792926E-109
   21.9450000000000         7.618415136050006E-109
   22.1350000000000         1.213967767208639E-108
   22.3250000000000         1.861138493768538E-108
   22.5150000000000         2.727110768945066E-108
   22.7050000000000         3.780257923836301E-108
   22.8950000000000         4.873014934972037E-108
   23.0850000000000         5.657035551149094E-108
   23.2750000000000         5.494204854003783E-108
   23.4650000000000         3.433552381173019E-108
   23.6550000000000        -1.568903777138505E-108
   23.8450000000000        -9.800098940389494E-108
   24.0350000000000        -1.853515903246925E-107
   24.2250000000000        -1.692750916560609E-107
   24.4150000000000         2.453199777385634E-107
   24.6050000000000         1.743555335267936E-106
   24.7950000000000         5.773010465318840E-106
   24.9850000000000         1.519605691089037E-105
   25.1750000000000         3.538825784476054E-105
   25.3650000000000         7.602121138861101E-105
   25.5550000000000         1.538553575697108E-104
   25.7450000000000         2.969610334649416E-104
   25.9350000000000         5.508618382427056E-104
   26.1250000000000         9.871078539335350E-104
   26.3150000000000         1.714655403204776E-103
   26.5050000000000         2.894015647153580E-103
   26.6950000000000         4.753211622105001E-103
   26.8850000000000         7.602803158801041E-103
   27.0750000000000         1.184407760285853E-102
   27.2650000000000         1.795919958285689E-102
   27.4550000000000         2.646359115135529E-102
   27.6450000000000         3.778760715201708E-102
   27.8350000000000         5.203474339782255E-102
   28.0250000000000         6.853471389106740E-102
   28.2150000000000         8.506880697810615E-102
   28.4050000000000         9.658868409662548E-102
   28.5950000000000         9.317497366957807E-102
   28.7850000000000         5.688623887393670E-102
   28.9750000000000        -4.296794836752900E-102
   29.1650000000000        -2.567294093567551E-101
   29.3550000000000        -6.642054074864767E-101
   29.5450000000000        -1.388242674419142E-100
   29.7350000000000        -2.612946587221748E-100
   29.9250000000000        -4.607305946087280E-100
   30.1150000000000        -7.754559569367758E-100
   30.3050000000000        -1.258670682997891E-099
   30.4950000000000        -1.982181302919619E-099
   30.6850000000000        -3.039876170336873E-099
   30.8750000000000        -4.549928242315295E-099
   31.0650000000000        -6.653969728967459E-099
   31.2550000000000        -9.510399434422825E-099
   31.4450000000000        -1.327745616869748E-098
   31.6350000000000        -1.807962213720610E-098
   31.8250000000000        -2.394823156878853E-098
   32.0150000000000        -3.072382785635189E-098
   32.2050000000000        -3.790391286539537E-098
   32.3950000000000        -4.441550435464028E-098
   32.5850000000000        -4.828784673807802E-098
   32.7750000000000        -4.619753527465698E-098
   32.9650000000000        -3.285749605070074E-098
   33.1550000000000        -2.245633431431451E-100
   33.3450000000000         6.348966087844229E-098
   33.5350000000000         1.750000927371748E-097
   33.7250000000000         3.572830408306054E-097
   33.9150000000000         6.409729687233431E-097
   34.1050000000000         1.065651108526830E-096
   34.2950000000000         1.680745276585961E-096
   34.4850000000000         2.545609093233229E-096
   34.6750000000000         3.728147494910506E-096
   34.8650000000000         5.301092766525291E-096
   35.0550000000000         7.334698577213380E-096
   35.2450000000000         9.884194996714736E-096
   35.4350000000000         1.296982261452437E-095
   35.6250000000000         1.654663192709966E-095
   35.8150000000000         2.046050356669815E-095
   36.0050000000000         2.438605598155933E-095
   36.1950000000000         2.774135866694095E-095
   36.3850000000000         2.957385827860940E-095
   36.5750000000000         2.841200261861277E-095
   36.7650000000000         2.207828688107346E-095
   36.9550000000000         7.462721518738599E-096
   37.1450000000000        -1.973772094046250E-095
   37.3350000000000        -6.529661723406468E-095
   37.5250000000000        -1.367169898053529E-094
   37.7150000000000        -2.434081992803275E-094
   37.9050000000000        -3.966781184814837E-094
   38.0950000000000        -6.093855482145024E-094
   38.2850000000000        -8.950326988521809E-094
   38.4750000000000        -1.266002850932559E-093
   38.6650000000000        -1.730572069702792E-093
   38.8550000000000        -2.288260988915479E-093
   39.0450000000000        -2.923067030523196E-093
   39.2350000000000        -3.594163357733884E-093
   39.4250000000000        -4.223813698796452E-093
   39.6150000000000        -4.682586467494379E-093
   39.8050000000000        -4.772515959649875E-093
   39.9950000000000        -4.209705713185733E-093
   40.1850000000000        -2.609030967050463E-093
   40.3750000000000         5.249380666091739E-094
   40.5650000000000         5.794985085468558E-093
   40.7550000000000         1.388873991409294E-092
   40.9450000000000         2.552764195805572E-092
   41.1350000000000         4.137770348342295E-092
   41.3250000000000         6.191306023184537E-092
   41.5150000000000         8.722603986302649E-092
   41.7050000000000         1.167830541531773E-091
   41.8950000000000         1.491346443127748E-091
   42.0850000000000         1.816007321778965E-091
   42.2750000000000         2.099681392275244E-091
   42.4650000000000         2.282552997230820E-091
   42.6550000000000         2.286160213209600E-091
   42.8450000000000         2.014657318051745E-091
   43.0350000000000         1.359138531349641E-091
   43.2250000000000         2.056745606664394E-092
   43.4150000000000        -1.552734488967262E-091
   43.6050000000000        -4.000859420318063E-091
   43.7950000000000        -7.184285121968826E-091
   43.9850000000000        -1.109389984206561E-090
   44.1750000000000        -1.565647074029034E-090
   44.3650000000000        -2.073727742164835E-090
   44.5550000000000        -2.616138083175174E-090
   44.7450000000000        -3.175926413004974E-090
   44.9350000000000        -3.743940952934621E-090
   45.1250000000000        -4.328392287964349E-090
   45.3150000000000        -4.965276922135477E-090
   45.5050000000000        -5.726715420469329E-090
   45.6950000000000        -6.722354485168316E-090
   45.8850000000000        -8.086859831696548E-090
   46.0750000000000        -9.944560665959868E-090
   46.2650000000000        -1.234111292891211E-089
   46.4550000000000        -1.513251200445413E-089
   46.6450000000000        -1.782504321897743E-089
   46.8350000000000        -1.936711178157607E-089
   47.0250000000000        -1.790662113639310E-089
   47.2150000000000        -1.054661039030660E-089
   47.4050000000000         6.842636863889949E-090
   47.5950000000000         3.966607991355856E-089
   47.7850000000000         9.437944796886783E-089
   47.9750000000000         1.778477968350382E-088
   48.1650000000000         2.961221708038341E-088
   48.3550000000000         4.524808886682664E-088
   48.5450000000000         6.446355288593793E-088
   48.7350000000000         8.611145303383263E-088
   48.9250000000000         1.077025182096902E-087
   49.1150000000000         1.249667464321273E-087
   49.3050000000000         1.314828488019232E-087
   49.4950000000000         1.185002263532639E-087
   49.6850000000000         7.512063480103644E-088
   49.8750000000000        -1.095809430639171E-088
   50.0650000000000        -1.519187753292708E-087
   50.2550000000000        -3.573260882030989E-087
   50.4450000000000        -6.305342117045310E-087
   50.6350000000000        -9.640372939558575E-087
   50.8250000000000        -1.334047467691880E-086
   51.0150000000000        -1.694935276417327E-086
   51.2050000000000        -1.974610826178972E-086
   51.3950000000000        -2.072426416170429E-086
   51.5850000000000        -1.861673454019983E-086
   51.7750000000000        -1.199115778203661E-086
   51.9650000000000         5.591105370598244E-088
   52.1550000000000         2.010701664060502E-086
   52.3450000000000         4.695662202240935E-086
   52.5350000000000         8.009102442561500E-086
   52.7250000000000         1.165454013605805E-085
   52.9150000000000         1.507905934080240E-085
   53.1050000000000         1.742661646761515E-085
   53.2950000000000         1.752608153212517E-085
   53.4850000000000         1.393935625791317E-085
   53.6750000000000         5.098755417763455E-086
   53.8650000000000        -1.043691076207741E-085
   54.0550000000000        -3.358379273169014E-085
   54.2450000000000        -6.418243830609037E-085
   54.4350000000000        -1.003108772677128E-084
   54.6250000000000        -1.375151135274346E-084
   54.8150000000000        -1.680621743171650E-084
   55.0050000000000        -1.803836349169249E-084
   55.1950000000000        -1.589463856281698E-084
   55.3850000000000        -8.485266509657756E-085
   55.5750000000000         6.248171987239875E-085
   55.7650000000000         3.022135936154724E-084
   55.9550000000000         6.472202433035302E-084
   56.1450000000000         1.097351116347568E-083
   56.3350000000000         1.630887557001534E-083
   56.5250000000000         2.194714032256847E-083
   56.7150000000000         2.694248190076512E-083
   56.9050000000000         2.984851241938726E-083
   57.0950000000000         2.867199343067830E-083
   57.2850000000000         2.089856067157424E-083
   57.4750000000000         3.629149538664479E-084
   57.6650000000000        -2.613099263687553E-083
   57.8550000000000        -7.099093346702496E-083
   58.0450000000000        -1.324704670864587E-082
   58.2350000000000        -2.100647059991371E-082
   58.4250000000000        -3.000999912726527E-082
   58.6150000000000        -3.944507930746091E-082
   58.8050000000000        -4.792474423560069E-082
   58.9950000000000        -5.337760981047926E-082
   59.1850000000000        -5.298504049878385E-082
   59.3750000000000        -4.320108180623036E-082
   59.5650000000000        -1.989712593945634E-082
   59.7550000000000         2.132307900830743E-082
   59.9450000000000         8.459323821699214E-082
   60.1350000000000         1.730013210714835E-081
   60.3250000000000         2.875306565528495E-081
   60.5150000000000         4.257274238017002E-081
   60.7050000000000         5.801325045418487E-081
   60.8950000000000         7.365633456624624E-081
   61.0850000000000         8.723911828933770E-081
   61.2750000000000         9.550302500415996E-081
   61.4650000000000         9.409373396532277E-081
   61.6550000000000         7.755104938069488E-081
   61.8450000000000         3.943719940243618E-081
   62.0350000000000        -2.733809711838088E-081
   62.2250000000000        -1.299281362201236E-080
   62.4150000000000        -2.746199782292035E-080
   62.6050000000000        -4.654860476095693E-080
   62.7950000000000        -7.025399192535400E-080
   62.9850000000000        -9.793341242428862E-080
   63.1750000000000        -1.279971399665641E-079
   63.3650000000000        -1.575563628289885E-079
   63.5550000000000        -1.820277817790363E-079
   63.7450000000000        -1.947271262351821E-079
   63.9350000000000        -1.865054612674107E-079
   64.1250000000000        -1.455145512206260E-079
   64.3150000000000        -5.722924628635676E-080
   64.5050000000000         9.509511523264695E-080
   64.6950000000000         3.292974997392262E-079
   64.8850000000000         6.622331697971064E-079
   65.0750000000000         1.106420745833520E-078
   65.2650000000000         1.665088967951075E-078
   65.4550000000000         2.325354323804793E-078
   65.6450000000000         3.049409795467656E-078
   65.8350000000000         3.763884554878956E-078
   66.0250000000000         4.347983662827916E-078
   66.2150000000000         4.621669198197917E-078
   66.4050000000000         4.336017183540639E-078
   66.5950000000000         3.168965273980657E-078
   66.7850000000000         7.308933585045680E-079
   66.9750000000000        -3.414276644429594E-078
   67.1650000000000        -9.705733302967763E-078
   67.3550000000000        -1.851293718881563E-077
   67.5450000000000        -3.002650148554341E-077
   67.7350000000000        -4.410797274269435E-077
   67.9250000000000        -6.009780844572227E-077
   68.1150000000000        -7.658774928879462E-077
   68.3050000000000        -9.117401990641710E-077
   68.4950000000000        -1.002216652310119E-076
   68.6850000000000        -9.868769250160107E-077
   68.8750000000000        -8.007069228561401E-077
   69.0650000000000        -3.657542740993103E-077
   69.2550000000000         4.040057713299140E-077
   69.4450000000000         1.593397011549194E-076
   69.6350000000000         3.271186866228716E-076
   69.8250000000000         5.468693144536999E-076
   70.0150000000000         8.151409569868872E-076
   70.2050000000000         1.118410182574484E-075
   70.3950000000000         1.429118266207856E-075
   70.5850000000000         1.701604120790897E-075
   70.7750000000000         1.868537041134479E-075
   70.9650000000000         1.838731292001724E-075
   71.1550000000000         1.497521388937322E-075
   71.3450000000000         7.111557837768021E-076
   71.5350000000000        -6.631279432481346E-076
   71.7250000000000        -2.759626747300214E-075
   71.9150000000000        -5.677761686187204E-075
   72.1050000000000        -9.445739303267918E-075
   72.2950000000000        -1.397429618610980E-074
   72.4850000000000        -1.900211486967305E-074
   72.6750000000000        -2.403672070721369E-074
   72.8650000000000        -2.829754828143530E-074
   73.0550000000000        -3.067131943572420E-074
   73.2450000000000        -2.969368461618877E-074
   73.4350000000000        -2.357485063859680E-074
   73.6250000000000        -1.029004611014548E-074
   73.8150000000000         1.224267681627026E-074
   74.0050000000000         4.587570576632376E-074
   74.1950000000000         9.181930260440719E-074
   74.3850000000000         1.500961819935581E-073
   74.5750000000000         2.188725419909171E-073
   74.7650000000000         2.936986856231880E-073
   74.9550000000000         3.667241457543191E-073
   75.1450000000000         4.259914291353563E-073
   75.3350000000000         4.549572272846666E-073
   75.5250000000000         4.324364600932644E-073
   75.7150000000000         3.332068310448312E-073
   75.9050000000000         1.295411496927504E-073
   76.0950000000000        -2.060596147966926E-073
   76.2850000000000        -6.966911877214170E-073
   76.4750000000000        -1.355271269781423E-072
   76.6650000000000        -2.177159001026608E-072
   76.8550000000000        -3.131393987905249E-072
   77.0450000000000        -4.151100302501476E-072
   77.2350000000000        -5.124008555442273E-072
   77.4250000000000        -5.884530620953747E-072
   77.6150000000000        -6.209345150456033E-072
   77.8050000000000        -5.818963649053863E-072
   77.9950000000000        -4.388166809933654E-072
   78.1850000000000        -1.568421877999589E-072
   78.3750000000000         2.974718775764449E-072
   78.5650000000000         9.506832318970279E-072
   78.7550000000000         1.815128641528060E-071
   78.9450000000000         2.879821056844789E-071
   79.1350000000000         4.099957563018451E-071
   79.3250000000000         5.385805298722823E-071
   79.5150000000000         6.592206218104188E-071
   79.7050000000000         7.510478073642801E-071
   79.8950000000000         7.865044311853813E-071
   80.0850000000000         7.317631550295043E-071
   80.2750000000000         5.482235374950626E-071
   80.4650000000000         1.954152750106247E-071
   80.6550000000000        -3.643930110735288E-071
   80.8450000000000        -1.159667714921260E-070
   81.0350000000000        -2.201113808532513E-070
   81.2250000000000        -3.471397762475571E-070
   81.4150000000000        -4.913613965670147E-070
   81.6050000000000        -6.419443107287359E-070
   81.7950000000000        -7.818450587281321E-070
   81.9850000000000        -8.870516162584332E-070
   82.1750000000000        -9.263920156947935E-070
   82.3650000000000        -8.622060683691269E-070
   82.5550000000000        -6.522040385884614E-070
   82.7450000000000        -2.528318296646771E-070
   82.9350000000000         3.755864943178001E-070
   83.1250000000000         1.261765411073306E-069
   83.3150000000000         2.414449434761176E-069
   83.5050000000000         3.811755085567098E-069
   83.6950000000000         5.389483401429556E-069
   83.8850000000000         7.029445285879753E-069
   84.0750000000000         8.549322568255384E-069
   84.2650000000000         9.696090728540745E-069
   84.4550000000000         1.014549991147524E-068
   84.6450000000000         9.510473812889361E-069
   84.8350000000000         7.361446180943307E-069
   85.0250000000000         3.261500623970563E-069
   85.2150000000000        -3.181409560061384E-069
   85.4050000000000        -1.224402748979726E-068
   85.5950000000000        -2.399980803439106E-068
   85.7850000000000        -3.821656038618641E-068
   85.9750000000000        -5.424612804969107E-068
   86.1650000000000        -7.091637640487063E-068
   86.3550000000000        -8.644003904895691E-068
   86.5450000000000        -9.835932777262653E-068
   86.7350000000000        -1.035491295212724E-067
   86.9250000000000        -9.830442442913001E-068
   87.1150000000000        -7.853843672919694E-068
   87.3050000000000        -4.011603283947283E-068
   87.4950000000000         2.065898622045002E-068
   87.6850000000000         1.063947365221227E-067
   87.8750000000000         2.178085596997358E-067
   88.0650000000000         3.528013884916894E-067
   88.2550000000000         5.054679550767181E-067
   88.4450000000000         6.651348435223595E-067
   88.6350000000000         8.155548027885148E-067
   88.8250000000000         9.344223722748670E-067
   89.0150000000000         9.934084716404134E-067
   89.2050000000000         9.589346030258283E-067
   89.3950000000000         7.939139302763820E-067
   89.5850000000000         4.606690328118458E-067
   89.7750000000000        -7.481354579770875E-068
   89.9650000000000        -8.372215164059516E-067
   90.1550000000000        -1.834913508214323E-066
   90.3450000000000        -3.051826174098829E-066
   90.5350000000000        -4.438779821890600E-066
   90.7250000000000        -5.904950189003741E-066
   90.9150000000000        -7.310582993039864E-066
   91.1050000000000        -8.462343181323870E-066
   91.2950000000000        -9.112978666037947E-066
   91.4850000000000        -8.967193970566799E-066
   91.6750000000000        -7.695717112920525E-066
   91.8650000000000        -4.959438717823653E-066
   92.0550000000000        -4.451357701283311E-067
   92.2450000000000         6.086406369900509E-066
   92.4350000000000         1.474015307803028E-065
   92.6250000000000         2.541627092782289E-065
   92.8150000000000         3.773306073855303E-065
   93.0050000000000         5.094956181348200E-065
   93.1950000000000         6.389673351230256E-065
   93.3850000000000         7.492898326554642E-065
   93.5750000000000         8.191055085339077E-065
   93.7650000000000         8.225350657019146E-065
   93.9550000000000         7.302539944537479E-065
   94.1450000000000         5.114432735539114E-065
   94.3350000000000         1.367674614155833E-065
   94.5250000000000        -4.175198899099091E-065
   94.7150000000000        -1.164331939018955E-064
   94.9050000000000        -2.099482517300628E-064
   95.0950000000000        -3.194687268629982E-064
   95.2850000000000        -4.390334649374910E-064
   95.4750000000000        -5.588778652286263E-064
   95.6650000000000        -6.649175994661750E-064
   95.8550000000000        -7.385160606766120E-064
   96.0450000000000        -7.566885067738421E-064
   96.2350000000000        -6.929119000982363E-064
   96.4250000000000        -5.187124915362071E-064
   96.6150000000000        -2.061870645160402E-064
   96.8050000000000         2.684282312553870E-064
   96.9950000000000         9.201019197163864E-064
   97.1850000000000         1.749336963326535E-063
   97.3750000000000         2.735712980665717E-063
   97.5650000000000         3.831063032571531E-063
   97.7550000000000         4.952938967722471E-063
   97.9450000000000         5.979275940685628E-063
   98.1350000000000         6.745428037012578E-063
   98.3250000000000         7.044983324313121E-063
   98.5150000000000         6.635938200498350E-063
   98.7050000000000         5.253867782509919E-063
   98.8950000000000         2.633613150634341E-063
   99.0850000000000        -1.459345391343326E-063
   99.2750000000000        -7.187309375574876E-063
   99.4650000000000        -1.458905849375906E-062
   99.6550000000000        -2.352068877200590E-062
   99.8450000000000        -3.359223164577823E-062
   100.035000000000        -4.410580745750384E-062
   100.225000000000        -5.400341691278994E-062
   100.415000000000        -6.183487737289823E-062
   100.605000000000        -6.575859870023892E-062
   100.795000000000        -6.358950532387972E-062
   100.985000000000        -5.290899953192329E-062
   101.175000000000        -3.125090750563130E-062
   101.365000000000         3.625701599680848E-063
   101.555000000000         5.337162401204981E-062
   101.745000000000         1.185941435545111E-061
   101.935000000000         1.983309116612518E-061
   102.125000000000         2.894823449788586E-061
   102.315000000000         3.862522488059972E-061
   102.505000000000         4.796667932312745E-061
   102.695000000000         5.572627461829547E-061
   102.885000000000         6.030546628633108E-061
   103.075000000000         5.979044478309378E-061
   103.265000000000         5.204215468797221E-061
   103.455000000000         3.485136544310499E-061
   103.645000000000         6.168165795107265E-062
   103.835000000000        -3.558957932411316E-061
   104.025000000000        -9.115167764868425E-061
   104.215000000000        -1.599480116284262E-060
   104.405000000000        -2.396238450229526E-060
   104.595000000000        -3.255592230220639E-060
   104.785000000000        -4.104503973940843E-060
   104.975000000000        -4.840281068231163E-060
   105.165000000000        -5.330026752289914E-060
   105.355000000000        -5.413367544306406E-060
   105.545000000000        -4.909501062450956E-060
   105.735000000000        -3.629536877842727E-060
   105.925000000000        -1.394889333135910E-060
   106.115000000000         1.937907960686824E-060
   106.305000000000         6.446187057466981E-060
   106.495000000000         1.210495673874939E-059
   106.685000000000         1.874758032756092E-059
   106.875000000000         2.602654998956989E-059
   107.065000000000         3.337888494607437E-059
   107.255000000000         4.000198158082225E-059
   107.445000000000         4.484689877853532E-059
   107.635000000000         4.663688185334923E-059
   107.825000000000         4.391918617541464E-059
   108.015000000000         3.515770488575866E-059
   108.205000000000         1.887227536372570E-059
   108.395000000000        -6.172401511315287E-060
   108.585000000000        -4.072972893203797E-059
   108.775000000000        -8.479357902630485E-059
   108.965000000000        -1.372950920682972E-058
   109.155000000000        -1.957977333527851E-058
   109.345000000000        -2.562239800498761E-058
   109.535000000000        -3.126565478370541E-058
   109.725000000000        -3.572655221494200E-058
   109.915000000000        -3.804187705815814E-058
   110.105000000000        -3.710349719972747E-058