  -1.42500000000000         0.000000000000000E+000
  -1.23500000000000         0.000000000000000E+000
  -1.04500000000000         0.000000000000000E+000
 -0.855000000000000         0.000000000000000E+000
 -0.665000000000000         0.000000000000000E+000
 -0.475000000000000         0.000000000000000E+000
 -0.285000000000000         0.000000000000000E+000
 -9.499999999999975E-002    0.000000000000000E+000
  9.500000000000020E-002    0.000000000000000E+000
  0.285000000000000         0.000000000000000E+000
  0.475000000000000         0.000000000000000E+000
  0.665000000000000         0.000000000000000E+000
  0.855000000000000         0.000000000000000E+000
   1.04500000000000         0.000000000000000E+000
   1.23500000000000         0.000000000000000E+000
   1.42500000000000         0.000000000000000E+000
   1.61500000000000         0.000000000000000E+000
   1.80500000000000         0.000000000000000E+000
   1.99500000000000         0.000000000000000E+000
   2.18500000000000         0.000000000000000E+000
   2.37500000000000         0.000000000000000E+000
   2.56500000000000         0.000000000000000E+000
   2.75500000000000         0.000000000000000E+000
   2.94500000000000         0.000000000000000E+000
   3.13500000000000         0.000000000000000E+000
   3.32500000000000         0.000000000000000E+000
   3.51500000000000         0.000000000000000E+000
   3.70500000000000         0.000000000000000E+000
   3.89500000000000         0.000000000000000E+000
   4.08500000000000         0.000000000000000E+000
   4.27500000000000         0.000000000000000E+000
   4.46500000000000         0.000000000000000E+000
   4.65500000000000         0.000000000000000E+000
   4.84500000000000         0.000000000000000E+000
   5.03500000000000         0.000000000000000E+000
   5.22500000000000         0.000000000000000E+000
   5.41500000000000         0.000000000000000E+000
   5.60500000000000         0.000000000000000E+000
   5.79500000000000         0.000000000000000E+000
   5.98500000000000         0.000000000000000E+000
   6.17500000000000         1.168817338194195E-180
   6.36500000000000        -3.865113048657121E-168
   6.55500000000000         1.799769794487569E-163
   6.74500000000000        -3.677834678596700E-164
   6.93500000000000         6.601321547347034E-160
   7.12500000000000         5.230904666171487E-158
   7.31500000000000         1.930828526718862E-156
   7.50500000000000         4.822287386260803E-155
   7.69500000000000         9.470602613839393E-154
   7.88500000000000         1.669742433981200E-148
   8.07500000000000         1.772020536071768E-146
   8.26500000000000         6.142871283687165E-145
   8.45500000000000         1.103671388555653E-143
   8.64500000000000         1.072819978016746E-142
   8.83500000000000         2.108048420564881E-142
   9.02500000000000        -1.086835693390892E-140
   9.21500000000000        -2.043703786250700E-139
   9.40500000000000        -2.183883708424415E-138
   9.59500000000000        -1.624096187446611E-137
   9.78500000000000        -8.229045606288690E-137
   9.97500000000000        -1.802166258263776E-136
   10.1650000000000         1.557165899232300E-135
   10.3550000000000         2.400024322122358E-134
   10.5450000000000         1.959885963676087E-133
   10.7350000000000         1.210044986134567E-132
   10.9250000000000         6.120768470040051E-132
   11.1150000000000         2.600029409244297E-131
   11.3050000000000         9.264576752946851E-131
   11.4950000000000         2.698857012726882E-130
   11.6850000000000         6.016734146218612E-130
   11.8750000000000         8.959155856021777E-130
   12.0650000000000         1.268162720729200E-129
   12.2550000000000         1.327647897430042E-128
   12.4450000000000         1.400548057973450E-127
   12.6350000000000         9.909540227797132E-127
   12.8250000000000         5.423683794922167E-126
   13.0150000000000         2.469945040664941E-125
   13.2050000000000         9.665319462481586E-125
   13.3950000000000         3.276312359929528E-124
   13.5850000000000         9.464261537319871E-124
   13.7750000000000         2.177580151066877E-123
   13.9650000000000         2.928426221547506E-123
   14.1550000000000        -5.622514819435694E-123
   14.3450000000000        -6.429776618548775E-122
   14.5350000000000        -3.240650414151101E-121
   14.7250000000000        -1.265501047685632E-120
   14.9150000000000        -4.233160558009226E-120
   15.1050000000000        -1.251080501047282E-119
   15.2950000000000        -3.279259210598070E-119
   15.4850000000000        -7.465581343045811E-119
   15.6750000000000        -1.369917398141519E-118
   15.8650000000000        -1.428345395090312E-118
   16.0550000000000         2.937620750681248E-118
   16.2450000000000         2.586547912010232E-117
   16.4350000000000         1.118446725369790E-116
   16.6250000000000         3.876802817671812E-116
   16.8150000000000         1.188816007464887E-115
   17.0050000000000         3.350090562854150E-115
   17.1950000000000         8.842875657982788E-115
   17.3850000000000         2.210938051309230E-114
   17.5750000000000         5.273995195940482E-114
   17.7650000000000         1.206269124809430E-113
   17.9550000000000         2.654812934452754E-113
   18.1450000000000         5.636515363835452E-113
   18.3350000000000         1.156412413487715E-112
   18.5250000000000         2.294729002959447E-112
   18.7150000000000         4.404309947662972E-112
   18.9050000000000         8.167614813761989E-112
   19.0950000000000         1.459787771140546E-111
   19.2850000000000         2.502723304373628E-111
   19.4750000000000         4.081525015446127E-111
   19.6650000000000         6.235089354429249E-111
   19.8550000000000         8.648077761189847E-111
   20.0450000000000         1.007130071917983E-110
   20.2350000000000         7.122504833784601E-111
   20.4250000000000        -8.040446555082839E-111
   20.6150000000000        -5.199957176984966E-110
   20.8050000000000        -1.575820965753854E-109
   20.9950000000000        -3.864355494256364E-109
   21.1850000000000        -8.491448856328663E-109
   21.3750000000000        -1.735831228720877E-108
   21.5650000000000        -3.359975650605213E-108
   21.7550000000000        -6.216324548859816E-108
   21.9450000000000        -1.104823002146715E-107
   22.1350000000000        -1.890728166215767E-107
   22.3250000000000        -3.116299990064004E-107
   22.5150000000000        -4.937388536618541E-107
   22.7050000000000        -7.485008648967200E-107
   22.8950000000000        -1.076036389290747E-106
   23.0850000000000        -1.441695606078420E-106
   23.2750000000000        -1.734590904103306E-106
   23.4650000000000        -1.693419825853298E-106
   23.6550000000000        -7.802396434808690E-107
   23.8450000000000         2.025011753053151E-106
   24.0350000000000         8.544906776370659E-106
   24.2250000000000         2.188173678381256E-105
   24.4150000000000         4.709127424616958E-105
   24.6050000000000         9.207013050026814E-105
   24.7950000000000         1.686090459056524E-104
   24.9850000000000         2.934224036846905E-104
   25.1750000000000         4.886906872405499E-104
   25.3650000000000         7.811698656523759E-104
   25.5550000000000         1.198126299613516E-103
   25.7450000000000         1.757120974158780E-103
   25.9350000000000         2.444854545165583E-103
   26.1250000000000         3.177772349876286E-103
   26.3150000000000         3.733859868344248E-103
   26.5050000000000         3.641128761110467E-103
   26.6950000000000         2.004079193246726E-103
   26.8850000000000        -2.754220415973331E-103
   27.0750000000000        -1.325827428390299E-102
   27.2650000000000        -3.367499655317391E-102
   27.4550000000000        -7.034536557624156E-102
   27.6450000000000        -1.325336422525792E-101
   27.8350000000000        -2.332243040766551E-101
   28.0250000000000        -3.898126024540327E-101
   28.2150000000000        -6.244045554653035E-101
   28.4050000000000        -9.632535026803730E-101
   28.5950000000000        -1.434602152960295E-100
   28.7850000000000        -2.063865983637522E-100
   28.9750000000000        -2.864691249058084E-100
   29.1650000000000        -3.823971008140136E-100
   29.3550000000000        -4.878450923732100E-100
   29.5450000000000        -5.880176102211188E-100
   29.7350000000000        -6.547821403640819E-100
   29.9250000000000        -6.401031224355840E-100
   30.1150000000000        -4.675395904169649E-100
   30.3050000000000        -2.167175646625976E-101
   30.4950000000000         8.645163898397015E-100
   30.6850000000000         2.424047566338846E-099
   30.8750000000000         4.971613942701188E-099
   31.0650000000000         8.919574803784769E-099
   31.2550000000000         1.479284065798451E-098
   31.4450000000000         2.324034087033701E-098
   31.6350000000000         3.503924534116975E-098
   31.8250000000000         5.108527879746564E-098
   32.0150000000000         7.235729430434936E-098
   32.2050000000000         9.983522635218851E-098
   32.3950000000000         1.343355673756605E-097
   32.5850000000000         1.762051736972630E-097
   32.7750000000000         2.247801458036486E-097
   32.9650000000000         2.774703534199039E-097
   33.1550000000000         3.282729985897388E-097
   33.3450000000000         3.654563290605589E-097
   33.5350000000000         3.681009895973143E-097
   33.7250000000000         3.011668262134151E-097
   33.9150000000000         1.088078390270370E-097
   34.1050000000000        -2.941537804093851E-097
   34.2950000000000        -1.032284479989352E-096
   34.4850000000000        -2.280114826200937E-096
   34.6750000000000        -4.271120510151402E-096
   34.8650000000000        -7.301418208932926E-096
   35.0550000000000        -1.172240497814087E-095
   35.2450000000000        -1.791405844433411E-095
   35.4350000000000        -2.622790347187585E-095
   35.6250000000000        -3.688619369953822E-095
   35.8150000000000        -4.982239221453137E-095
   36.0050000000000        -6.444862428771325E-095
   36.1950000000000        -7.933978377606690E-095
   36.3850000000000        -9.183298444181908E-095
   36.5750000000000        -9.755664595037403E-095
   36.7650000000000        -8.992694172631261E-095
   36.9550000000000        -5.968103417855136E-095
   37.1450000000000         5.444533693530780E-096
   37.3350000000000         1.207388402875030E-094
   37.5250000000000         3.040520708060339E-094
   37.7150000000000         5.746173964446681E-094
   37.9050000000000         9.509254831116497E-094
   38.0950000000000         1.447442243116512E-093
   38.2850000000000         2.070030310546644E-093
   38.4750000000000         2.810056626505318E-093
   38.6650000000000         3.637339133268777E-093
   38.8550000000000         4.492286088746808E-093
   39.0450000000000         5.277772701774874E-093
   39.2350000000000         5.851419821171912E-093
   39.4250000000000         6.018907312975074E-093
   39.6150000000000         5.528683139393652E-093
   39.8050000000000         4.067849908760761E-093
   39.9950000000000         1.258116590095222E-093
   40.1850000000000        -3.350394045523203E-093
   40.3750000000000        -1.029069030154562E-092
   40.5650000000000        -2.019935247395516E-092
   40.7550000000000        -3.384820358617178E-092
   40.9450000000000        -5.218557998340133E-092
   41.1350000000000        -7.637740374031798E-092
   41.3250000000000        -1.078244169260640E-091
   41.5150000000000        -1.481113490470363E-091
   41.7050000000000        -1.988164236772000E-091
   41.8950000000000        -2.610773680824245E-091
   42.0850000000000        -3.347778764269845E-091
   42.2750000000000        -4.171953361165642E-091
   42.4650000000000        -5.009506718776709E-091
   42.6550000000000        -5.711439245834415E-091
   42.8450000000000        -6.016688440582035E-091
   43.0350000000000        -5.509026617386584E-091
   43.2250000000000        -3.572868855503675E-091
   43.4150000000000         6.423558288476864E-092
   43.6050000000000         8.233909523878868E-091
   43.7950000000000         2.051168035527922E-090
   43.9850000000000         3.889016892592010E-090
   44.1750000000000         6.467373049044675E-090
   44.3650000000000         9.870163923805770E-090
   44.5550000000000         1.408258121096844E-089
   44.7450000000000         1.892105818388513E-089
   44.9350000000000         2.394740834837567E-089
   45.1250000000000         2.837371419226931E-089
   45.3150000000000         3.097086171580129E-089
   45.5050000000000         3.000132484982377E-089
   45.6950000000000         2.320515335774940E-089
   45.8850000000000         7.875718969792461E-090
   46.0750000000000        -1.893347809535412E-089
   46.2650000000000        -6.003054362928836E-089
   46.4550000000000        -1.175049075007207E-088
   46.6450000000000        -1.919365737874907E-088
   46.8350000000000        -2.814234418307324E-088
   47.0250000000000        -3.805079608133103E-088
   47.2150000000000        -4.791505900262267E-088
   47.4050000000000        -5.619704503253374E-088
   47.5950000000000        -6.080405820991133E-088
   47.7850000000000        -5.915672995294438E-088
   47.9750000000000        -4.837751679718945E-088
   48.1650000000000        -2.562323196804453E-088
   48.3550000000000         1.143426463883927E-088
   48.5450000000000         6.400702214381050E-088
   48.7350000000000         1.315419033861243E-087
   48.9250000000000         2.111495798665756E-087
   49.1150000000000         2.972931231442890E-087
   49.3050000000000         3.819610748126809E-087
   49.4950000000000         4.555615935628592E-087
   49.6850000000000         5.087293120917113E-087
   49.8750000000000         5.351072248525034E-087
   50.0650000000000         5.349272158206164E-087
   50.2550000000000         5.188505033220609E-087
   50.4450000000000         5.110511307996820E-087
   50.6350000000000         5.499749146659389E-087
   50.8250000000000         6.846755209772448E-087
   51.0150000000000         9.642716313861334E-087
   51.2050000000000         1.418102026464808E-086
   51.3950000000000         2.024851856908407E-086
   51.5850000000000         2.670583092028441E-086
   51.7750000000000         3.098496784585869E-086
   51.9650000000000         2.857542883841246E-086
   52.1550000000000         1.262604822850313E-086
   52.3450000000000        -2.614516108470620E-086
   52.5350000000000        -9.897655903919298E-086
   52.7250000000000        -2.177192764401614E-085
   52.9150000000000        -3.923110029356671E-085
   53.1050000000000        -6.268125364673080E-085
   53.2950000000000        -9.139111861027363E-085
   53.4850000000000        -1.228084197081163E-084
   53.6750000000000        -1.518055481896039E-084
   53.8650000000000        -1.699769917486826E-084
   54.0550000000000        -1.651816834163349E-084
   54.2450000000000        -1.215975067428041E-084
   54.4350000000000        -2.061821962649612E-085
   54.6250000000000         1.570460798750409E-084
   54.8150000000000         4.277325015377441E-084
   55.0050000000000         7.994401724930697E-084
   55.1950000000000         1.264725395067062E-083
   55.3850000000000         1.792293895158774E-083
   55.5750000000000         2.318246684890042E-083
   55.7650000000000         2.738604754566665E-083
   55.9550000000000         2.905469538913601E-083
   56.1450000000000         2.629850583331592E-083
   56.3350000000000         1.694627424508135E-083
   56.5250000000000        -1.189312170610928E-084
   56.7150000000000        -2.988473946512579E-083
   56.9050000000000        -6.990938452759727E-083
   57.0950000000000        -1.202836867663539E-082
   57.2850000000000        -1.774607656949765E-082
   57.4750000000000        -2.345579426704187E-082
   57.6650000000000        -2.808292466238401E-082
   57.8550000000000        -3.016319513755494E-082
   58.0450000000000        -2.791843120828324E-082
   58.2350000000000        -1.944174249924677E-082
   58.4250000000000        -3.016696333920019E-083
   58.6150000000000         2.241952324592964E-082
   58.8050000000000         5.668459219874920E-082
   58.9950000000000         9.768451915105453E-082
   59.1850000000000         1.407743971493511E-081
   59.3750000000000         1.783048447757186E-081
   59.5650000000000         1.995678618193722E-081
   59.7550000000000         1.913975523807821E-081
   59.9450000000000         1.396916452539060E-081
   60.1350000000000         3.207726419774406E-082
   60.3250000000000        -1.381745362661815E-081
   60.5150000000000        -3.670976672704745E-081
   60.7050000000000        -6.342831939636233E-081
   60.8950000000000        -8.973104679882556E-081
   61.0850000000000        -1.087748748407513E-080
   61.2750000000000        -1.110654112980776E-080
   61.4650000000000        -8.499317097176950E-081
   61.6550000000000        -1.821388242418008E-081
   61.8450000000000         9.989247967174840E-081
   62.0350000000000         2.745379171399302E-080
   62.2250000000000         5.006483552142183E-080
   62.4150000000000         7.571034557399298E-080
   62.6050000000000         1.000799263963207E-079
   62.7950000000000         1.161729118118894E-079
   62.9850000000000         1.140824291938434E-079
   63.1750000000000         8.128181492005593E-080
   63.3650000000000         3.677317399625031E-081
   63.5550000000000        -1.323029099671482E-079
   63.7450000000000        -3.363596349372137E-079
   63.9350000000000        -6.096103296845594E-079
   64.1250000000000        -9.386285054978062E-079
   64.3150000000000        -1.288678371160650E-078
   64.5050000000000        -1.597031853301445E-078
   64.6950000000000        -1.767793656867123E-078
   64.8850000000000        -1.670245391040511E-078
   65.0750000000000        -1.143264903070718E-078
   65.2650000000000        -8.750768373183674E-081
   65.4550000000000         1.902991759786614E-078
   65.6450000000000         4.713482267438698E-078
   65.8350000000000         8.440823731551236E-078
   66.0250000000000         1.293024467389225E-077
   66.2150000000000         1.777520392948843E-077
   66.4050000000000         2.223856640987588E-077
   66.5950000000000         2.518911837714544E-077
   66.7850000000000         2.507501000466546E-077
   66.9750000000000         1.996174004076948E-077
   67.1650000000000         7.666737841412895E-078
   67.3550000000000        -1.397630479622491E-077
   67.5450000000000        -4.669461169995875E-077
   67.7350000000000        -9.117861021880483E-077
   67.9250000000000        -1.463155782750981E-076
   68.1150000000000        -2.082957534192207E-076
   68.3050000000000        -2.696798573170844E-076
   68.4950000000000        -3.185767582860260E-076
   68.6850000000000        -3.381478579272828E-076
   68.8750000000000        -3.067232888625218E-076
   69.0650000000000        -1.988723081097011E-076
   69.2550000000000         1.220027341373893E-077
   69.4450000000000         3.505794206793918E-076
   69.6350000000000         8.316282661936179E-076
   69.8250000000000         1.453974258993329E-075
   70.0150000000000         2.189744509667594E-075
   70.2050000000000         2.973757317931639E-075
   70.3950000000000         3.692971528013124E-075
   70.5850000000000         4.178205743508774E-075
   70.7750000000000         4.200909189332352E-075
   70.9650000000000         3.478496913173555E-075
   71.1550000000000         1.692307197481320E-075
   71.3450000000000        -1.477599442865894E-075
   71.5350000000000        -6.297046745426580E-075
   71.7250000000000        -1.289937167443676E-074
   71.9150000000000        -2.118424464824974E-074
   72.1050000000000        -3.069781985602382E-074
   72.2950000000000        -4.050387538902445E-074
   72.4850000000000        -4.906262399060494E-074
   72.6750000000000        -5.414207031605702E-074
   72.8650000000000        -5.279546004822853E-074
   73.0550000000000        -4.144634643271788E-074
   73.2450000000000        -1.612839871562913E-074
   73.4350000000000         2.707194002495187E-074
   73.6250000000000         9.132818256929975E-074
   73.8150000000000         1.781168342350537E-073
   74.0050000000000         2.859956654310387E-073
   74.1950000000000         4.091679616969079E-073
   74.3850000000000         5.359464015415099E-073
   74.5750000000000         6.473094834040821E-073
   74.7650000000000         7.158353251654194E-073
   74.9550000000000         7.053944492669083E-073
   75.1450000000000         5.720721658737213E-073
   75.3350000000000         2.668541280866232E-073
   75.5250000000000        -2.593783601141646E-073
   75.7150000000000        -1.048062505448167E-072
   75.9050000000000        -2.122073400221833E-072
   76.0950000000000        -3.471763215897013E-072
   76.2850000000000        -5.038422316749017E-072
   76.4750000000000        -6.696334654686777E-072
   76.6650000000000        -8.235446281142917E-072
   76.8550000000000        -9.347651533512619E-072
   77.0450000000000        -9.620748919900551E-072
   77.2350000000000        -8.545100767074710E-072
   77.4250000000000        -5.538764204430129E-072
   77.6150000000000         2.894022024680731E-075
   77.8050000000000         8.627620011412619E-072
   77.9950000000000         2.071288735385712E-071
   78.1850000000000         3.631791427422424E-071
   78.3750000000000         5.500504363545012E-071
   78.5650000000000         7.564105058667580E-071
   78.7550000000000         9.619736733354651E-071
   78.9450000000000         1.135781396269048E-070
   79.1350000000000         1.235157542448645E-070
   79.3250000000000         1.205838327524023E-070
   79.5150000000000         9.838597820772085E-071
   79.7050000000000         4.998255162816429E-071
   79.8950000000000        -3.138527400531088E-071
   80.0850000000000        -1.512280239880144E-070
   80.2750000000000        -3.123770720002516E-070
   80.4650000000000        -5.132125873882150E-070
   80.6550000000000        -7.456321187603848E-070
   80.8450000000000        -9.929190278142670E-070
   81.0350000000000        -1.227762678634874E-069
   81.2250000000000        -1.410784606473991E-069
   81.4150000000000        -1.490027060252658E-069
   81.6050000000000        -1.401947908955157E-069
   81.7950000000000        -1.074519673969428E-069
   81.9850000000000        -4.330267431421925E-070
   82.1750000000000         5.909331912673939E-070
   82.3650000000000         2.046937511969589E-069
   82.5550000000000         3.949748355821782E-069
   82.7450000000000         6.260368050178764E-069
   82.9350000000000         8.865318546464190E-069
   83.1250000000000         1.155612338185971E-068
   83.3150000000000         1.401187658361102E-068
   83.5050000000000         1.578872025389151E-068
   83.6950000000000         1.632090883140623E-068
   83.8850000000000         1.493876011989756E-068
   84.0750000000000         1.090898962528161E-068
   84.2650000000000         3.502474053337896E-069
   84.4550000000000        -7.906843420327150E-069
   84.6450000000000        -2.371063345772920E-068
   84.8350000000000        -4.390489857060354E-068
   85.0250000000000        -6.790627839041778E-068
   85.2150000000000        -9.435990757163279E-068
   85.4050000000000        -1.209602735794903E-067
   85.5950000000000        -1.443145644106976E-067
   85.7850000000000        -1.598857963734779E-067
   85.9750000000000        -1.620594403508522E-067
   86.1650000000000        -1.443808705014431E-067
   86.3550000000000        -1.000100157908449E-067
   86.5450000000000        -2.243220269880681E-068
   86.7350000000000         9.355156671773013E-068
   86.9250000000000         2.505574188832233E-067
   87.1150000000000         4.471139016584294E-067
   87.3050000000000         6.760073615410482E-067
   87.4950000000000         9.226232917652203E-067
   87.6850000000000         1.163494925268939E-066
   87.8750000000000         1.365337608663129E-066
   88.0650000000000         1.484908894577315E-066
   88.2550000000000         1.470079465215261E-066
   88.4450000000000         1.262516120004501E-066
   88.6350000000000         8.023503717826295E-067
   88.8250000000000         3.511903431353945E-068
   89.0150000000000        -1.078898469267010E-066
   89.2050000000000        -2.553069718684011E-066
   89.3950000000000        -4.360991274302119E-066
   89.5850000000000        -6.422161693667414E-066
   89.7750000000000        -8.588154671475688E-066
   89.9650000000000        -1.063125898219188E-065
   90.1550000000000        -1.223810781535780E-065
   90.3450000000000        -1.301130444490593E-065
   90.5350000000000        -1.248237257740347E-065
   90.7250000000000        -1.013940717632862E-065
   90.9150000000000        -5.472449537312710E-066
   91.1050000000000         1.961272094359786E-066
   91.2950000000000         1.245163084440582E-065
   91.4850000000000         2.603109815240373E-065
   91.6750000000000         4.235620981366058E-065
   91.8650000000000         6.058360680081699E-065
   92.0550000000000         7.925372779370542E-065
   92.2450000000000         9.620005222620280E-065
   92.4350000000000         1.085065264531909E-064
   92.6250000000000         1.125398313789252E-064
   92.8150000000000         1.040856625078688E-064
   93.0050000000000         7.861821961401637E-065
   93.1950000000000         3.172854624801609E-065
   93.3850000000000        -4.027092210840881E-065
   93.5750000000000        -1.395623146278326E-064
   93.7650000000000        -2.658761917780263E-064
   93.9550000000000        -4.154284253691360E-064
   94.1450000000000        -5.798196016282906E-064
   94.3350000000000        -7.450163243724609E-064
   94.5250000000000        -8.905766614619805E-064
   94.7150000000000        -9.893239286970463E-064
   94.9050000000000        -1.007708512903453E-063
   95.0950000000000        -9.071193187965315E-064
   95.2850000000000        -6.464059936129886E-064
   95.4750000000000        -1.858405371255675E-064
   95.6650000000000         5.073279702717429E-064
   95.8550000000000         1.451698552015602E-063
   96.0450000000000         2.643082568871163E-063
   96.2350000000000         4.044815099293306E-063
   96.4250000000000         5.577730789112767E-063
   96.6150000000000         7.110879913553310E-063
   96.8050000000000         8.454446089731864E-063
   96.9950000000000         9.356705173575039E-063
   97.1850000000000         9.507186105488213E-063
   97.3750000000000         8.548394861491191E-063
   97.5650000000000         6.098464882768686E-063
   97.7550000000000         1.786814249773570E-063
   97.9450000000000        -4.695769214317402E-063
   98.1350000000000        -1.353231345979831E-062
   98.3250000000000        -2.470146311129729E-062
   98.5150000000000        -3.788944402451938E-062
   98.7050000000000        -5.239847742358444E-062
   98.8950000000000        -6.706110368209786E-062
   99.0850000000000        -8.017329384079872E-062
   99.2750000000000        -8.946258364585358E-062
   99.4650000000000        -9.211033069295935E-062
   99.6550000000000        -8.484901462892643E-062
   99.8450000000000        -6.415560458153250E-062
   100.035000000000        -2.655965712415313E-062
   100.225000000000         3.092079369222197E-062
   100.415000000000         1.102120551473846E-061
   100.605000000000         2.114968812326368E-061
   100.795000000000         3.324352846563085E-061
   100.985000000000         4.673468739081394E-061
   101.175000000000         6.064346489268111E-061
   101.365000000000         7.351593862677488E-061
   101.555000000000         8.339024549192402E-061
   101.745000000000         8.780795360001857E-061
   101.935000000000         8.388836589596265E-061
   102.125000000000         6.848376943642415E-061
   102.315000000000         3.843178099319063E-061
   102.505000000000        -9.083591379298222E-062
   102.695000000000        -7.605833087404843E-061
   102.885000000000        -1.630898684061572E-060
   103.075000000000        -2.687165955415291E-060
   103.265000000000        -3.887174716783570E-060
   103.455000000000        -5.154358364135728E-060
   103.645000000000        -6.372153136758021E-060
   103.835000000000        -7.380591228680910E-060
   104.025000000000        -7.976443500880140E-060
   104.215000000000        -7.918361489808658E-060
   104.405000000000        -6.938491205840684E-060
   104.595000000000        -4.761894860532285E-060
   104.785000000000        -1.134772370550565E-060
   104.975000000000         4.138122326832473E-060
   105.165000000000         1.114735805708088E-059
   105.355000000000         1.982566771081136E-059
   105.545000000000         2.989089556333078E-059
   105.735000000000         4.078989667809908E-059
   105.925000000000         5.165007425377987E-059
   106.115000000000         6.124706201453382E-059
   106.305000000000         6.799864913745296E-059
   106.495000000000         6.999613499634160E-059
   106.685000000000         6.508457087339113E-059
   106.875000000000         5.100244347542737E-059
   107.065000000000         2.558892201148838E-059
   107.255000000000        -1.293750050041154E-059
   107.445000000000        -6.563153745240598E-059
   107.635000000000        -1.324159870339078E-058
   107.825000000000        -2.116408665601866E-058
   108.015000000000        -2.996411969256223E-058
   108.205000000000        -3.903413743314392E-058
   108.395000000000        -4.749675834844970E-058
   108.585000000000        -5.419417047771260E-058
   108.775000000000        -5.770387529227395E-058
   108.965000000000        -5.638928155550037E-058
   109.155000000000        -4.849312654833428E-058
   109.345000000000        -3.228011791303293E-058
   109.535000000000        -6.232309321881092E-059
   109.725000000000         3.070363045390388E-058
   109.915000000000         7.882400748549615E-058
   110.105000000000         1.373447225576479E-057