  -1.42500000000000         0.000000000000000E+000
  -1.23500000000000         0.000000000000000E+000
  -1.04500000000000         0.000000000000000E+000
 -0.855000000000000         0.000000000000000E+000
 -0.665000000000000         0.000000000000000E+000
 -0.475000000000000         0.000000000000000E+000
 -0.285000000000000         0.000000000000000E+000
 -9.499999999999975E-002    0.000000000000000E+000
  9.500000000000020E-002    0.000000000000000E+000
  0.285000000000000         0.000000000000000E+000
  0.475000000000000         0.000000000000000E+000
  0.665000000000000         0.000000000000000E+000
  0.855000000000000         0.000000000000000E+000
   1.04500000000000         0.000000000000000E+000
   1.23500000000000         0.000000000000000E+000
   1.42500000000000         0.000000000000000E+000
   1.61500000000000         0.000000000000000E+000
   1.80500000000000         0.000000000000000E+000
   1.99500000000000         0.000000000000000E+000
   2.18500000000000         0.000000000000000E+000
   2.37500000000000         0.000000000000000E+000
   2.56500000000000         0.000000000000000E+000
   2.75500000000000         0.000000000000000E+000
   2.94500000000000         0.000000000000000E+000
   3.13500000000000         0.000000000000000E+000
   3.32500000000000         0.000000000000000E+000
   3.51500000000000         0.000000000000000E+000
   3.70500000000000         0.000000000000000E+000
   3.89500000000000         0.000000000000000E+000
   4.08500000000000         0.000000000000000E+000
   4.27500000000000         0.000000000000000E+000
   4.46500000000000         0.000000000000000E+000
   4.65500000000000         0.000000000000000E+000
   4.84500000000000         0.000000000000000E+000
   5.03500000000000         0.000000000000000E+000
   5.22500000000000         0.000000000000000E+000
   5.41500000000000         0.000000000000000E+000
   5.60500000000000         0.000000000000000E+000
   5.79500000000000         0.000000000000000E+000
   5.98500000000000         0.000000000000000E+000
   6.17500000000000         1.110376471284485E-181
   6.36500000000000        -3.671857396222044E-169
   6.55500000000000         1.709707867615267E-164
   6.74500000000000         3.070094877911771E-164
   6.93500000000000         6.273976170563128E-161
   7.12500000000000         5.094811749268340E-159
   7.31500000000000         1.934928812204231E-157
   7.50500000000000         4.958094608206476E-156
   7.69500000000000         9.950999245662845E-155
   7.88500000000000         1.586274260353869E-149
   8.07500000000000         1.715144804994539E-147
   8.26500000000000         6.175584150929078E-146
   8.45500000000000         1.168600937832189E-144
   8.64500000000000         1.240887854811915E-143
   8.83500000000000         4.262712833464461E-143
   9.02500000000000        -9.698403203913363E-142
   9.21500000000000        -2.141752019849432E-140
   9.40500000000000        -2.483016584681954E-139
   9.59500000000000        -1.998661988842795E-138
   9.78500000000000        -1.135914669289133E-137
   9.97500000000000        -3.629731947237147E-137
   10.1650000000000         9.451286150119116E-137
   10.3550000000000         2.522466727944499E-135
   10.5450000000000         2.342140648888357E-134
   10.7350000000000         1.569945968265903E-133
   10.9250000000000         8.534218751631789E-133
   11.1150000000000         3.904922818599066E-132
   11.3050000000000         1.517629867268066E-131
   11.4950000000000         4.961678820888554E-131
   11.6850000000000         1.324149042188678E-130
   11.8750000000000         2.746858592401514E-130
   12.0650000000000         4.802732983416322E-130
   12.2550000000000         1.862014259369446E-129
   12.4450000000000         1.642848631267577E-128
   12.6350000000000         1.238743250274963E-127
   12.8250000000000         7.332649177091750E-127
   13.0150000000000         3.594962666858475E-126
   13.2050000000000         1.512346394484768E-125
   13.3950000000000         5.543048485353570E-125
   13.5850000000000         1.764659368774050E-124
   13.7750000000000         4.732465358332971E-124
   13.9650000000000         9.583171412316634E-124
   14.1550000000000         7.023787244322854E-124
   14.3450000000000        -5.940047971035442E-123
   14.5350000000000        -4.283451469309224E-122
   14.7250000000000        -1.938432931576627E-121
   14.9150000000000        -7.162161456986742E-121
   15.1050000000000        -2.306892874704469E-120
   15.2950000000000        -6.610715600767553E-120
   15.4850000000000        -1.681831412672924E-119
   15.6750000000000        -3.692483168496720E-119
   15.8650000000000        -6.350832822066959E-119
   16.0550000000000        -4.917021234255570E-119
   16.2450000000000         2.244592364298883E-118
   16.4350000000000         1.532705677172161E-117
   16.6250000000000         6.278192743061685E-117
   16.8150000000000         2.125490749076634E-116
   17.0050000000000         6.437451990879719E-116
   17.1950000000000         1.802076990067481E-115
   17.3850000000000         4.742541326319614E-115
   17.5750000000000         1.185322791120684E-114
   17.7650000000000         2.832308003303988E-114
   17.9550000000000         6.500335959603064E-114
   18.1450000000000         1.437709784297686E-113
   18.3350000000000         3.071770536675384E-113
   18.5250000000000         6.350354882300188E-113
   18.7150000000000         1.271444188539148E-112
   18.9050000000000         2.465777040874519E-112
   19.0950000000000         4.628498830765427E-112
   19.2850000000000         8.392884352503891E-112
   19.4750000000000         1.464792025633266E-111
   19.6650000000000         2.444870390771427E-111
   19.8550000000000         3.858771266755241E-111
   20.0450000000000         5.637112222390362E-111
   20.2350000000000         7.270523749921980E-111
   20.4250000000000         7.183319286398650E-111
   20.6150000000000         1.479517545530061E-111
   20.8050000000000        -1.843074094726727E-110
   20.9950000000000        -7.011241731736434E-110
   21.1850000000000        -1.874925586479221E-109
   21.3750000000000        -4.330652895115277E-109
   21.5650000000000        -9.171669430475062E-109
   21.7550000000000        -1.826915461996684E-108
   21.9450000000000        -3.467048146177746E-108
   22.1350000000000        -6.312821756122103E-108
   22.3250000000000        -1.106949850458789E-107
   22.5150000000000        -1.872050260493630E-107
   22.7050000000000        -3.052177993124276E-107
   22.8950000000000        -4.785488384602370E-107
   23.0850000000000        -7.177333780203081E-107
   23.2750000000000        -1.019480596487572E-106
   23.4650000000000        -1.345141615833449E-106
   23.6550000000000        -1.580139265420195E-106
   23.8450000000000        -1.461885915010828E-106
   24.0350000000000        -4.577436547155665E-107
   24.2250000000000         2.432787483501839E-106
   24.4150000000000         8.985223531350141E-106
   24.6050000000000         2.220555698226172E-105
   24.7950000000000         4.697007874082418E-105
   24.9850000000000         9.086306645190675E-105
   25.1750000000000         1.651638100898046E-104
   25.3650000000000         2.858005626146324E-104
   25.5550000000000         4.738336983148921E-104
   25.7450000000000         7.545821893232603E-104
   25.9350000000000         1.153769863659075E-103
   26.1250000000000         1.687919418688052E-103
   26.3150000000000         2.344524479419002E-103
   26.5050000000000         3.045148399217201E-103
   26.6950000000000         3.581443154881135E-103
   26.8850000000000         3.510179738722107E-103
   27.0750000000000         1.988992742233856E-103
   27.2650000000000        -2.469667987288450E-103
   27.4550000000000        -1.235160238958292E-102
   27.6450000000000        -3.162510813332089E-102
   27.8350000000000        -6.637211303459815E-102
   28.0250000000000        -1.255606191550135E-101
   28.2150000000000        -2.219112491573504E-101
   28.4050000000000        -3.727387646811896E-101
   28.5950000000000        -6.005350519670531E-101
   28.7850000000000        -9.328895249438458E-101
   28.9750000000000        -1.401102462049928E-100
   29.1650000000000        -2.036525376483759E-100
   29.3550000000000        -2.863255460011622E-100
   29.5450000000000        -3.885325027476234E-100
   29.7350000000000        -5.065984790532175E-100
   29.9250000000000        -6.296125790191859E-100
   30.1150000000000        -7.348386367401779E-100
   30.3050000000000        -7.813137146940842E-100
   30.4950000000000        -7.012434745236072E-100
   30.6850000000000        -3.888298986866450E-100
   30.8750000000000         3.137579446721585E-100
   31.0650000000000         1.633420875588324E-099
   31.2550000000000         3.886100344456406E-099
   31.4450000000000         7.499252589646950E-099
   31.6350000000000         1.303581327974009E-098
   31.8250000000000         2.121764307291045E-098
   32.0150000000000         3.294468751758288E-098
   32.2050000000000         4.930297697995398E-098
   32.3950000000000         7.154920238409962E-098
   32.5850000000000         1.010505727860273E-097
   32.7750000000000         1.391441781386140E-097
   32.9650000000000         1.868579755648514E-097
   33.1550000000000         2.444035940057675E-097
   33.3450000000000         3.103078801325458E-097
   33.5350000000000         3.799958254050437E-097
   33.7250000000000         4.435762679070629E-097
   33.9150000000000         4.825238611049058E-097
   34.1050000000000         4.649159966735826E-097
   34.2950000000000         3.389043619357027E-097
   34.4850000000000         2.422642784762527E-098
   34.6750000000000        -5.981409291058471E-097
   34.8650000000000        -1.697532107418858E-096
   35.0550000000000        -3.504795310190869E-096
   35.2450000000000        -6.320259335325994E-096
   35.4350000000000        -1.051374571736594E-095
   35.6250000000000        -1.650958494865027E-095
   35.8150000000000        -2.474690061048688E-095
   36.0050000000000        -3.560264717820013E-095
   36.1950000000000        -4.926254594425924E-095
   36.3850000000000        -6.552395892495839E-095
   36.5750000000000        -8.351597381221678E-095
   36.7650000000000        -1.013269146415020E-094
   36.9550000000000        -1.155396723524641E-094
   37.1450000000000        -1.206921398985410E-094
   37.3350000000000        -1.087047193703428E-094
   37.5250000000000        -6.834958281645683E-095
   37.7150000000000         1.512401657235987E-095
   37.9050000000000         1.600505901302101E-094
   38.0950000000000         3.878955241218855E-094
   38.2850000000000         7.220554167198851E-094
   38.4750000000000         1.185663675739821E-093
   38.6650000000000         1.798166272918361E-093
   38.8550000000000         2.570480669009841E-093
   39.0450000000000         3.498636254109401E-093
   39.2350000000000         4.555909543789345E-093
   39.4250000000000         5.683590621533308E-093
   39.6150000000000         6.780611714508336E-093
   39.8050000000000         7.692282354083007E-093
   39.9950000000000         8.198249171474326E-093
   40.1850000000000         7.999482813208669E-093
   40.3750000000000         6.703579800237128E-093
   40.5650000000000         3.807025736564555E-093
   40.7550000000000        -1.327492089147504E-093
   40.9450000000000        -9.500701528256949E-093
   41.1350000000000        -2.171418498201028E-092
   41.3250000000000        -3.921335794531658E-092
   41.5150000000000        -6.352725571276110E-092
   41.7050000000000        -9.648539412156354E-092
   41.8950000000000        -1.401753043387279E-091
   42.0850000000000        -1.967815525671217E-091
   42.2750000000000        -2.682190077587589E-091
   42.4650000000000        -3.554428785182113E-091
   42.6550000000000        -4.572918651820171E-091
   42.8450000000000        -5.687090782029730E-091
   43.0350000000000        -6.782033712536749E-091
   43.2250000000000        -7.644813782461324E-091
   43.4150000000000        -7.923212519993642E-091
   43.6050000000000        -7.079967311484620E-091
   43.7950000000000        -4.349136272964604E-091
   43.9850000000000         1.294039408749332E-091
   44.1750000000000         1.113260985330419E-090
   44.3650000000000         2.665326997751211E-090
   44.5550000000000         4.940837785554760E-090
   44.7450000000000         8.076183528065848E-090
   44.9350000000000         1.214868784863063E-089
   45.1250000000000         1.711919448999190E-089
   45.3150000000000         2.275692920125860E-089
   45.5050000000000         2.854928692499299E-089
   45.6950000000000         3.360390235471243E-089
   45.8850000000000         3.655658522582889E-089
   46.0750000000000         3.550609810890055E-089
   46.2650000000000         2.800451604505952E-089
   46.4550000000000         1.113864818770865E-089
   46.6450000000000        -1.825829253467143E-089
   46.8350000000000        -6.322749401840264E-089
   47.0250000000000        -1.261109772695867E-088
   47.2150000000000        -2.077785395993427E-088
   47.4050000000000        -3.066850384327413E-088
   47.5950000000000        -4.178360865130641E-088
   47.7850000000000        -5.317988352677771E-088
   47.9750000000000        -6.339563696804040E-088
   48.1650000000000        -7.042570810073764E-088
   48.3550000000000        -7.177365999701215E-088
   48.5450000000000        -6.460673775266041E-088
   48.7350000000000        -4.602958982731661E-088
   48.9250000000000        -1.347389891831010E-088
   49.1150000000000         3.482815786772203E-088
   49.3050000000000         9.935730667363415E-088
   49.4950000000000         1.789219601693105E-087
   49.6850000000000         2.705295962064947E-087
   49.8750000000000         3.696940672161951E-087
   50.0650000000000         4.713473390801415E-087
   50.2550000000000         5.714562223986959E-087
   50.4450000000000         6.692968776402615E-087
   50.6350000000000         7.700943519594954E-087
   50.8250000000000         8.873861433455982E-087
   51.0150000000000         1.044036122820119E-086
   51.2050000000000         1.270361620315958E-086
   51.3950000000000         1.597442239236413E-086
   51.5850000000000         2.043508559385414E-086
   51.7750000000000         2.591571147663774E-086
   51.9650000000000         3.157394916164350E-086
   52.1550000000000         3.548808948300047E-086
   52.3450000000000         3.420377376166118E-086
   52.5350000000000         2.231721034989076E-086
   52.7250000000000        -7.768894020647909E-087
   52.9150000000000        -6.572177056135162E-086
   53.1050000000000        -1.625385068046343E-085
   53.2950000000000        -3.089072604487884E-085
   53.4850000000000        -5.123968218512588E-085
   53.6750000000000        -7.732800913540931E-085
   53.8650000000000        -1.078973504295465E-084
   54.0550000000000        -1.397374245702232E-084
   54.2450000000000        -1.669814476353414E-084
   54.4350000000000        -1.804919416404249E-084
   54.6250000000000        -1.675312949168131E-084
   54.8150000000000        -1.119773296825985E-084
   55.0050000000000         4.604074350328753E-086
   55.1950000000000         2.006998032685412E-084
   55.3850000000000         4.911166358399955E-084
   55.5750000000000         8.816179909446331E-084
   55.7650000000000         1.362018877693020E-083
   55.9550000000000         1.898205935573646E-083
   56.1450000000000         2.424061347186938E-083
   56.3350000000000         2.834886757931713E-083
   56.5250000000000         2.984577897639181E-083
   56.7150000000000         2.689374407099683E-083
   56.9050000000000         1.741330229168814E-083
   57.0950000000000        -6.550394812372254E-085
   57.2850000000000        -2.894076246506360E-083
   57.4750000000000        -6.808253975977614E-083
   57.6650000000000        -1.170443227427307E-082
   57.8550000000000        -1.723781365526727E-082
   58.0450000000000        -2.275556815812190E-082
   58.2350000000000        -2.725478466033725E-082
   58.4250000000000        -2.938833634948809E-082
   58.6150000000000        -2.754506779284718E-082
   58.8050000000000        -2.003017682560269E-082
   58.9950000000000        -5.365111247371340E-083
   59.1850000000000         1.728848580116719E-082
   59.3750000000000         4.760101378404883E-082
   59.5650000000000         8.349892091058246E-082
   59.7550000000000         1.206406352595971E-081
   59.9450000000000         1.520941090348925E-081
   60.1350000000000         1.684121554327992E-081
   60.3250000000000         1.583329145862977E-081
   60.5150000000000         1.103320552503153E-081
   60.7050000000000         1.520087343307605E-082
   60.8950000000000        -1.303005244523524E-081
   61.0850000000000        -3.188811500099504E-081
   61.2750000000000        -5.277294218418379E-081
   61.4650000000000        -7.139850749981927E-081
   61.6550000000000        -8.120317757243449E-081
   61.8450000000000        -7.344371083391547E-081
   62.0350000000000        -3.787282313680599E-081
   62.2250000000000         3.576987273683811E-081
   62.4150000000000         1.552562947774821E-080
   62.6050000000000         3.222570531492801E-080
   62.7950000000000         5.276972494470798E-080
   62.9850000000000         7.464398234025259E-080
   63.1750000000000         9.320358553107301E-080
   63.3650000000000         1.012747031014427E-079
   63.5550000000000         8.905527180752802E-080
   63.7450000000000         4.453233004161364E-080
   63.9350000000000        -4.533481659745481E-080
   64.1250000000000        -1.924175059397796E-079
   64.3150000000000        -4.040116592223328E-079
   64.5050000000000        -6.781541305462318E-079
   64.6950000000000        -9.978125540122456E-079
   64.8850000000000        -1.324426263563471E-078
   65.0750000000000        -1.591709741504038E-078
   65.2650000000000        -1.701151230291208E-078
   65.4550000000000        -1.521198336106932E-078
   65.6450000000000        -8.926333035205272E-079
   65.8350000000000         3.570257663835166E-079
   66.0250000000000         2.387277264900648E-078
   66.2150000000000         5.304294882221811E-078
   66.4050000000000         9.105603064461420E-078
   66.5950000000000         1.361123311922844E-077
   66.7850000000000         1.838632531550048E-077
   66.9750000000000         2.266481656981680E-077
   67.1650000000000         2.528952196862413E-077
   67.3550000000000         2.469011310791698E-077
   67.5450000000000         1.892637604077953E-077
   67.7350000000000         5.828419958496992E-078
   67.9250000000000        -1.673352794842378E-077
   68.1150000000000        -5.042160445938406E-077
   68.3050000000000        -9.582928747933304E-077
   68.4950000000000        -1.517136659616285E-076
   68.6850000000000        -2.141025045018929E-076
   68.8750000000000        -2.753652634469243E-076
   69.0650000000000        -3.233968451592856E-076
   69.2550000000000        -3.411306884554020E-076
   69.4450000000000        -3.066666175165546E-076
   69.6350000000000        -1.943568872636186E-076
   69.8250000000000         2.277535262914131E-077
   70.0150000000000         3.689286356519290E-076
   70.2050000000000         8.594613092738564E-076
   70.3950000000000         1.492800549638609E-075
   70.5850000000000         2.240562390433189E-075
   70.7750000000000         3.036578309053097E-075
   70.9650000000000         3.766121888791158E-075
   71.1550000000000         4.257348279303369E-075
   71.3450000000000         4.277745515991836E-075
   71.5350000000000         3.539154128104051E-075
   71.7250000000000         1.715494378217034E-075
   71.9150000000000        -1.522449172438183E-075
   72.1050000000000        -6.451245300344170E-075
   72.2950000000000        -1.321540634862376E-074
   72.4850000000000        -2.172422378968855E-074
   72.6750000000000        -3.152866974882144E-074
   72.8650000000000        -4.168773513342856E-074
   73.0550000000000        -5.064070674911848E-074
   73.2450000000000        -5.611030753821145E-074
   73.4350000000000        -5.507067111382578E-074
   73.6250000000000        -4.382265946737187E-074
   73.8150000000000        -1.822538287095829E-074
   74.0050000000000         2.586530459732047E-074
   74.1950000000000         9.190584917447541E-074
   74.3850000000000         1.816917136821251E-073
   74.5750000000000         2.941010227519563E-073
   74.7650000000000         4.235997795660590E-073
   74.9550000000000         5.586166081371300E-073
   75.1450000000000         6.799759365754900E-073
   75.3350000000000         7.596739345017226E-073
   75.5250000000000         7.603841324591061E-073
   75.7150000000000         6.361772502306847E-073
   75.9050000000000         3.350143391920348E-073
   76.0950000000000        -1.964001393392556E-073
   76.2850000000000        -1.004867764940628E-072
   76.4750000000000        -2.119669677227029E-072
   76.6650000000000        -3.538188866130850E-072
   76.8550000000000        -5.208583158523126E-072
   77.0450000000000        -7.010581201597377E-072
   77.2350000000000        -8.736336921860028E-072
   77.4250000000000        -1.007430409415298E-071
   77.6150000000000        -1.060021176148150E-071
   77.8050000000000        -9.780312928304959E-072
   77.9950000000000        -6.992964728604334E-072
   78.1850000000000        -1.575038573936605E-072
   78.3750000000000         7.100642427482459E-072
   78.5650000000000         1.951202137858442E-071
   78.7550000000000         3.583667108100554E-071
   78.9450000000000         5.576534424224841E-071
   79.1350000000000         7.828926416006649E-071
   79.3250000000000         1.014787249248068E-070
   79.5150000000000         1.222808569660185E-070
   79.7050000000000         1.363758673004276E-070
   79.8950000000000         1.381426086745987E-070
   80.0850000000000         1.207943453652328E-070
   80.2750000000000         7.675186124634753E-071
   80.4650000000000        -1.679156395556806E-072
   80.6550000000000        -1.212694034796738E-070
   80.8450000000000        -2.864317624042658E-070
   81.0350000000000        -4.973965245169341E-070
   81.2250000000000        -7.480585166022764E-070
   81.4150000000000        -1.023635624941308E-069
   81.6050000000000        -1.298373247016050E-069
   81.7950000000000        -1.533637667393886E-069
   81.9850000000000        -1.676854577019490E-069
   82.1750000000000        -1.661853464447596E-069
   82.3650000000000        -1.411255747640082E-069
   82.5550000000000        -8.415705901999021E-070
   82.7450000000000         1.283904683701498E-070
   82.9350000000000         1.565330695051230E-069
   83.1250000000000         3.505367678242002E-069
   83.3150000000000         5.934327674961723E-069
   83.5050000000000         8.765384374524461E-069
   83.6950000000000         1.181579913762774E-068
   83.8850000000000         1.478546768800161E-068
   84.0750000000000         1.724100391379363E-068
   84.2650000000000         1.861009296326248E-068
   84.4550000000000         1.819167787339850E-068
   84.6450000000000         1.518801756998315E-068
   84.8350000000000         8.764542027291537E-069
   85.0250000000000        -1.857519784005491E-069
   85.2150000000000        -1.727280745040029E-068
   85.4050000000000        -3.772822465975699E-068
   85.5950000000000        -6.292933426882484E-068
   85.7850000000000        -9.182836854332152E-068
   85.9750000000000        -1.224131660321329E-067
   86.1650000000000        -1.515249955631009E-067
   86.3550000000000        -1.747421297608683E-067
   86.5450000000000        -1.863741405173852E-067
   86.7350000000000        -1.796178009355875E-067
   86.9250000000000        -1.469274473034970E-067
   87.1150000000000        -8.064867185203992E-068
   87.3050000000000         2.604784815191046E-068
   87.4950000000000         1.779177602160060E-067
   87.6850000000000         3.760989908342512E-067
   87.8750000000000         6.163380815577976E-067
   88.0650000000000         8.871114993656398E-067
   88.2550000000000         1.167835393545935E-066
   88.4450000000000         1.427431974141812E-066
   88.6350000000000         1.623594290861589E-066
   88.8250000000000         1.703153884440725E-066
   89.0150000000000         1.603994838120145E-066
   89.2050000000000         1.258957860264799E-066
   89.3950000000000         6.021220659311165E-067
   89.5850000000000        -4.222774660259893E-067
   89.7750000000000        -1.848257520714584E-066
   89.9650000000000        -3.674101817813004E-066
   90.1550000000000        -5.846691663580223E-066
   90.3450000000000        -8.245385828305278E-066
   90.5350000000000        -1.066728514542467E-065
   90.7250000000000        -1.281635422202922E-065
   90.9150000000000        -1.429948060982514E-065
   91.1050000000000        -1.463304246690567E-065
   91.2950000000000        -1.326381668772294E-065
   91.4850000000000        -9.607957433026035E-066
   91.6750000000000        -3.111163176249926E-066
   91.8650000000000         6.668119402125445E-066
   92.0550000000000         1.995266618860507E-065
   92.2450000000000         3.662077529049636E-065
   92.4350000000000         5.606790026503876E-065
   92.6250000000000         7.706730425908981E-065
   92.8150000000000         9.764672617833523E-065
   93.0050000000000         1.150035949799143E-064
   93.1950000000000         1.254865377368074E-064
   93.3850000000000         1.246750120300701E-064
   93.5750000000000         1.075908545401272E-064
   93.7650000000000         6.907419643157058E-065
   93.9550000000000         4.350257802590152E-066
   94.1450000000000        -9.019830476216537E-065
   94.3350000000000        -2.160577177322368E-064
   94.5250000000000        -3.714390513865087E-064
   94.7150000000000        -5.500296074516162E-064
   94.9050000000000        -7.397476894036636E-064
   95.0950000000000        -9.216563334151623E-064
   95.2850000000000        -1.069241238094067E-063
   95.4750000000000        -1.148304658514229E-063
   95.6650000000000        -1.117763352365343E-063
   95.8550000000000        -9.316558327480447E-064
   96.0450000000000        -5.426516262638020E-064
   96.2350000000000         9.269865221182258E-065
   96.4250000000000         1.006840511610399E-063
   96.6150000000000         2.212258528363677E-063
   96.8050000000000         3.690964498675767E-063
   96.9950000000000         5.383023868689924E-063
   97.1850000000000         7.175093540200932E-063
   97.3750000000000         8.890373732063978E-063
   97.5650000000000         1.028182540776866E-062
   97.7550000000000         1.103092692536018E-062
   97.9450000000000         1.075457620372851E-062
   98.1350000000000         9.022908349687519E-063
   98.3250000000000         5.390699575433438E-063
   98.5150000000000        -5.554366024691460E-064
   98.7050000000000        -9.132789140039006E-063
   98.8950000000000        -2.048144934507883E-062
   99.0850000000000        -3.446871710975401E-062
   99.2750000000000        -5.058412547098597E-062
   99.4650000000000        -6.783355233317318E-062
   99.6550000000000        -8.464469013875235E-062
   99.8450000000000        -9.880012896374595E-062
   100.035000000000        -1.074180788257861E-061
   100.225000000000        -1.070037708518195E-061
   100.415000000000        -9.359615021205692E-062
   100.605000000000        -6.303380125595490E-062
   100.795000000000        -1.136024549650509E-062
   100.985000000000         6.461905956711744E-062
   101.175000000000         1.666283042364377E-061
   101.365000000000         2.940797375799209E-061
   101.555000000000         4.431406124926849E-061
   101.745000000000         6.057789016300305E-061
   101.935000000000         7.688904051512127E-061
   102.125000000000         9.136439337169803E-061
   102.315000000000         1.015213706625114E-060
   102.505000000000         1.043094486758312E-060
   102.695000000000         9.622096606176327E-061
   102.885000000000         7.350188713014374E-061
   103.075000000000         3.248027305511355E-061
   103.265000000000        -2.997596333077563E-061
   103.455000000000        -1.158705275995090E-060
   103.645000000000        -2.253723868579996E-060
   103.835000000000        -3.560234583296695E-060
   104.025000000000        -5.019152882604996E-060
   104.215000000000        -6.529159356720430E-060
   104.405000000000        -7.940560362807117E-060
   104.595000000000        -9.052097039112553E-060
   104.785000000000        -9.612280426065422E-060
   104.975000000000        -9.326962180218641E-060
   105.165000000000        -7.874841543746871E-060
   105.355000000000        -4.932404095797109E-060
   105.545000000000        -2.093305847536049E-061
   105.735000000000         6.505344678182233E-060
   105.925000000000         1.528714191671074E-059
   106.115000000000         2.601236986220054E-059
   106.305000000000         3.829071242163929E-059
   106.495000000000         5.140021691434977E-059
   106.685000000000         6.423288397197437E-059
   106.875000000000         7.526115033511211E-059
   107.065000000000         8.253733005636912E-059
   107.255000000000         8.373921509992141E-059
   107.445000000000         7.627515649440374E-059
   107.635000000000         5.746064166820394E-059
   107.825000000000         2.477524057676497E-059
   108.015000000000        -2.379655545438687E-059
   108.205000000000        -8.934489972380774E-059
   108.395000000000        -1.715492507163217E-058
   108.585000000000        -2.681556331011759E-058
   108.775000000000        -3.744587765826630E-058
   108.965000000000        -4.828472755880487E-058
   109.155000000000        -5.824855632866916E-058
   109.345000000000        -6.592201455249907E-058
   109.535000000000        -6.958069513981591E-058
   109.725000000000        -6.725591963227371E-058
   109.915000000000        -5.685079402803073E-058
   110.105000000000        -3.631476467393201E-058